      -----------------------------------------------------------      
     |                   =====================                   |     
     |                           x T B                           |     
     |                   =====================                   |     
     |                         S. Grimme                         |     
     |          Mulliken Center for Theoretical Chemistry        |     
     |                    University of Bonn                     |     
      -----------------------------------------------------------      

   * xtb version 6.3.3 (4ae9cef) compiled by 'conda@95abc7406d43' on 2020-10-14

   xtb is free software: you can redistribute it and/or modify it under
   the terms of the GNU Lesser General Public License as published by
   the Free Software Foundation, either version 3 of the License, or
   (at your option) any later version.
   
   xtb is distributed in the hope that it will be useful,
   but WITHOUT ANY WARRANTY; without even the implied warranty of
   MERCHANTABILITY or FITNESS FOR A PARTICULAR PURPOSE.  See the
   GNU Lesser General Public License for more details.
   
   Cite this work as:
   * C. Bannwarth, E. Caldeweyher, S. Ehlert, A. Hansen, P. Pracht,
     J. Seibert, S. Spicher, S. Grimme, WIREs Comput. Mol. Sci., 2020,
     e01493. DOI: 10.1002/wcms.1493
   
   for GFN2-xTB:
   * S. Grimme, C. Bannwarth, P. Shushkov, J. Chem. Theory Comput., 2017,
     13, 1989-2009. DOI: 10.1021/acs.jctc.7b00118
   for GFN1-xTB:
   * C. Bannwarth, S. Ehlert and S. Grimme., J. Chem. Theory Comput., 2019,
     15, 1652-1671. DOI: 10.1021/acs.jctc.8b01176
   for GFN0-xTB:
   * P. Pracht, E. Caldeweyher, S. Ehlert, S. Grimme, ChemRxiv, 2019, preprint.
     DOI: 10.26434/chemrxiv.8326202.v1
   for GFN-FF:
   * S. Spicher and S. Grimme, Angew. Chem. Int. Ed., 2020, 59, 15665-15673.
     DOI: 10.1002/anie.202004239
   
   for DFT-D4:
   * E. Caldeweyher, C. Bannwarth and S. Grimme, J. Chem. Phys., 2017,
     147, 034112. DOI: 10.1063/1.4993215
   * E. Caldeweyher, S. Ehlert, A. Hansen, H. Neugebauer, S. Spicher,
     C. Bannwarth and S. Grimme, J. Chem. Phys., 2019, 150, 154122.
     DOI: 10.1063/1.5090222
   * E. Caldeweyher, J.-M. Mewes, S. Ehlert and S. Grimme, Phys. Chem. Chem. Phys.
     2020, 22, 8499-8512. DOI: 10.1039/D0CP00502A
   
   for sTDA-xTB:
   * S. Grimme and C. Bannwarth, J. Chem. Phys., 2016, 145, 054103.
     DOI: 10.1063/1.4959605
   
   in the mass-spec context:
   * V. Asgeirsson, C. Bauer and S. Grimme, Chem. Sci., 2017, 8, 4879.
     DOI: 10.1039/c7sc00601b
   * J. Koopman and S. Grimme, ACS Omega 2019, 4, 12, 15120-15133.
     DOI: 10.1021/acsomega.9b02011
   
   for metadynamics refer to:
   * S. Grimme, J. Chem. Theory Comput., 2019, 155, 2847-2862
     DOI: 10.1021/acs.jctc.9b00143
   
   with help from (in alphabetical order)
   C. Bannwarth, F. Bohle, G. Brandenburg, E. Caldeweyher, M. Checinski,
   S. Dohm, S. Ehlert, S. Ehrlich, F. März, H. Neugebauer, J. Pisarek,
   P. Pracht, P. Shushkov, and S. Spicher.
   
 * started run on 2022/03/17 at 02:03:26.146     

           -------------------------------------------------
          |                Calculation Setup                |
           -------------------------------------------------

          program call               : xtb acid_77.xyz --opt --chrg 0 --uhf 0 --gfn 2
          coordinate file            : acid_77.xyz
          omp threads                :                    64
          number of atoms            :                    78
          number of electrons        :                   266
          charge                     :                     0
          spin                       :                   0.0
          first test random number   :      0.94967400093826

   ID    Z sym.   atoms
    1    6 C      1, 2, 6-15, 19-22, 24-33, 36, 37, 41-50
    2    9 F      3-5, 16-18
    3    7 N      23, 40
    4    8 O      34, 35, 38, 39, 51, 52
    5    1 H      53-78

           -------------------------------------------------
          |                 G F N 2 - x T B                 |
           -------------------------------------------------

        Reference                      10.1021/acs.jctc.8b01176
      * Hamiltonian:
        H0-scaling (s, p, d)           1.850000    2.230000    2.230000
        zeta-weighting                 0.500000
      * Dispersion:
        s8                             2.700000
        a1                             0.520000
        a2                             5.000000
        s9                             5.000000
      * Repulsion:
        kExp                           1.500000    1.000000
        rExp                           1.000000
      * Coulomb:
        alpha                          2.000000
        third order                    shell-resolved
        anisotropic                    true
        a3                             3.000000
        a5                             4.000000
        cn-shift                       1.200000
        cn-exp                         4.000000
        max-rad                        5.000000


          ...................................................
          :                      SETUP                      :
          :.................................................:
          :  # basis functions                 234          :
          :  # atomic orbitals                 234          :
          :  # shells                          130          :
          :  # electrons                       266          :
          :  max. iterations                   250          :
          :  Hamiltonian                  GFN2-xTB          :
          :  restarted?                      false          :
          :  GBSA solvation                  false          :
          :  PC potential                    false          :
          :  electronic temp.          300.0000000     K    :
          :  accuracy                    1.0000000          :
          :  -> integral cutoff          0.2500000E+02      :
          :  -> integral neglect         0.1000000E-07      :
          :  -> SCF convergence          0.1000000E-05 Eh   :
          :  -> wf. convergence          0.1000000E-03 e    :
          :  Broyden damping             0.4000000          :
          ...................................................

 iter      E             dE          RMSdq      gap      omega  full diag
   1   -154.8381715 -0.154838E+03  0.448E+00    2.50       0.0  T
   2   -155.0742710 -0.236100E+00  0.263E+00    2.93       1.0  T
   3   -155.0701821  0.408887E-02  0.130E+00    2.79       1.0  T
   4   -155.0875848 -0.174027E-01  0.499E-01    2.89       1.0  T
   5   -155.1072276 -0.196428E-01  0.124E-01    2.88       1.0  T
   6   -155.1077651 -0.537494E-03  0.590E-02    2.89       1.0  T
   7   -155.1078564 -0.912592E-04  0.238E-02    2.89       1.0  T
   8   -155.1078605 -0.410178E-05  0.116E-02    2.89       1.0  T
   9   -155.1078657 -0.520008E-05  0.373E-03    2.89       3.0  T
  10   -155.1078659 -0.198635E-06  0.165E-03    2.89       6.9  T
  11   -155.1078660 -0.868691E-07  0.764E-04    2.89      14.8  T
  12   -155.1078660 -0.124017E-07  0.389E-04    2.89      29.1  T

   *** convergence criteria satisfied after 12 iterations ***

         #    Occupation            Energy/Eh            Energy/eV
      -------------------------------------------------------------
         1        2.0000           -0.8650792             -23.5400
       ...           ...                  ...                  ...
       127        2.0000           -0.4166239             -11.3369
       128        2.0000           -0.4154935             -11.3062
       129        2.0000           -0.4136696             -11.2565
       130        2.0000           -0.4088118             -11.1243
       131        2.0000           -0.4037374             -10.9863
       132        2.0000           -0.3936336             -10.7113
       133        2.0000           -0.3934796             -10.7071 (HOMO)
       134                         -0.2873881              -7.8202 (LUMO)
       135                         -0.2823475              -7.6831
       136                         -0.2782822              -7.5724
       137                         -0.2635126              -7.1705
       138                         -0.2599583              -7.0738
       ...                                ...                  ...
       234                          0.6855692              18.6553
      -------------------------------------------------------------
                  HL-Gap            0.1060916 Eh            2.8869 eV
             Fermi-level           -0.3404339 Eh           -9.2637 eV

 SCC (total)                   0 d,  0 h,  0 min,  0.632 sec
 SCC setup                      ...        0 min,  0.015 sec (  2.442%)
 Dispersion                     ...        0 min,  0.017 sec (  2.624%)
 classical contributions        ...        0 min,  0.020 sec (  3.157%)
 integral evaluation            ...        0 min,  0.129 sec ( 20.484%)
 iterations                     ...        0 min,  0.355 sec ( 56.236%)
 molecular gradient             ...        0 min,  0.091 sec ( 14.436%)
 printout                       ...        0 min,  0.004 sec (  0.605%)

         :::::::::::::::::::::::::::::::::::::::::::::::::::::
         ::                     SUMMARY                     ::
         :::::::::::::::::::::::::::::::::::::::::::::::::::::
         :: total energy            -153.359148174341 Eh    ::
         :: gradient norm              0.124085084585 Eh/a0 ::
         :: HOMO-LUMO gap              2.886898593574 eV    ::
         ::.................................................::
         :: SCC energy              -155.107865969075 Eh    ::
         :: -> isotropic ES            0.225224815813 Eh    ::
         :: -> anisotropic ES         -0.000381048380 Eh    ::
         :: -> anisotropic XC          0.007110042931 Eh    ::
         :: -> dispersion             -0.108595235349 Eh    ::
         :: repulsion energy           1.745414903639 Eh    ::
         :: add. restraining           0.000000000000 Eh    ::
         :: total charge              -0.000000000000 e     ::
         :::::::::::::::::::::::::::::::::::::::::::::::::::::

      ----------------------------------------------------------- 
     |                   =====================                   |
     |                        A N C O P T                        |
     |                   =====================                   |
     |               Approximate Normal Coordinate               |
     |                Rational Function Optimizer                |
      ----------------------------------------------------------- 

          ...................................................
          :                      SETUP                      :
          :.................................................:
          :   optimization level            normal          :
          :   max. optcycles                   234          :
          :   ANC micro-cycles                  20          :
          :   degrees of freedom               228          :
          :.................................................:
          :   RF solver                   davidson          :
          :   write xtbopt.log                true          :
          :   linear?                        false          :
          :   energy convergence         0.5000000E-05 Eh   :
          :   grad. convergence          0.1000000E-02 Eh/α :
          :   maximium RF displ.         1.0000000          :
          :   Hlow (freq-cutoff)         0.1000000E-01      :
          :   Hmax (freq-cutoff)         5.0000000          :
          :   S6 in model hess.         20.0000000          :
          ...................................................

generating ANC from model Hessian ...
Using Lindh-Hessian (1995)
 Shifting diagonal of input Hessian by    9.8974190619060039E-003
 Lowest  eigenvalues of input Hessian
    0.000000    0.000000    0.000000    0.000000    0.000000    0.000000
    0.010000    0.010052    0.010163    0.010267    0.010281    0.010417
    0.010521    0.010562    0.010755    0.011325    0.011336    0.011711
 Highest eigenvalues
    2.028193    2.114057    2.119207    2.211249    2.245263    2.257243


........................................................................
.............................. CYCLE    1 ..............................
........................................................................
   1   -155.1078660 -0.155108E+03  0.169E-04    2.89       0.0  T
   2   -155.1078660 -0.213987E-09  0.127E-04    2.89      88.9  T
   3   -155.1078660 -0.664187E-09  0.747E-05    2.89     151.5  T
     SCC iter.                  ...        0 min,  0.098 sec
     gradient                   ...        0 min,  0.129 sec
 * total energy  :  -153.3591482 Eh     change       -0.6293874E-08 Eh
   gradient norm :     0.1240883 Eh/α   predicted     0.0000000E+00 (-100.00%)
   displ. norm   :     0.3957938 α      lambda       -0.2366053E-01
   maximum displ.:     0.0951244 α      in ANC's #32, #43, #61, ...

........................................................................
.............................. CYCLE    2 ..............................
........................................................................
   1   -155.1996429 -0.155200E+03  0.158E-01    2.99       0.0  T
   2   -155.1997765 -0.133595E-03  0.974E-02    2.98       1.0  T
   3   -155.1997193  0.571855E-04  0.395E-02    2.99       1.0  T
   4   -155.1998040 -0.846737E-04  0.932E-03    2.98       1.2  T
   5   -155.1998102 -0.621643E-05  0.352E-03    2.98       3.2  T
   6   -155.1998106 -0.410316E-06  0.180E-03    2.98       6.3  T
   7   -155.1998107 -0.346181E-07  0.932E-04    2.98      12.2  T
   8   -155.1998107 -0.395154E-07  0.322E-04    2.98      35.1  T
     SCC iter.                  ...        0 min,  0.238 sec
     gradient                   ...        0 min,  0.133 sec
 * total energy  :  -153.3758102 Eh     change       -0.1666200E-01 Eh
   gradient norm :     0.0498367 Eh/α   predicted    -0.1368351E-01 ( -17.88%)
   displ. norm   :     0.4385901 α      lambda       -0.8773411E-02
   maximum displ.:     0.1434328 α      in ANC's #32, #23, #22, ...

........................................................................
.............................. CYCLE    3 ..............................
........................................................................
   1   -155.2509187 -0.155251E+03  0.113E-01    3.05       0.0  T
   2   -155.2509890 -0.702800E-04  0.693E-02    3.05       1.0  T
   3   -155.2509503  0.386633E-04  0.305E-02    3.05       1.0  T
   4   -155.2510069 -0.565219E-04  0.804E-03    3.05       1.4  T
   5   -155.2510118 -0.491089E-05  0.271E-03    3.05       4.2  T
   6   -155.2510119 -0.156624E-06  0.144E-03    3.05       7.9  T
   7   -155.2510120 -0.538241E-07  0.677E-04    3.05      16.7  T
   8   -155.2510120 -0.161445E-07  0.258E-04    3.05      43.8  T
     SCC iter.                  ...        0 min,  0.240 sec
     gradient                   ...        0 min,  0.122 sec
 * total energy  :  -153.3815300 Eh     change       -0.5719825E-02 Eh
   gradient norm :     0.0153852 Eh/α   predicted    -0.5230537E-02 (  -8.55%)
   displ. norm   :     0.3867829 α      lambda       -0.2706150E-02
   maximum displ.:     0.1444982 α      in ANC's #32, #22, #23, ...

........................................................................
.............................. CYCLE    4 ..............................
........................................................................
   1   -155.2633637 -0.155263E+03  0.769E-02    3.06       0.0  T
   2   -155.2634053 -0.416207E-04  0.471E-02    3.06       1.0  T
   3   -155.2633933  0.119958E-04  0.229E-02    3.06       1.0  T
   4   -155.2634157 -0.223698E-04  0.712E-03    3.06       1.6  T
   5   -155.2634199 -0.418766E-05  0.189E-03    3.06       6.0  T
   6   -155.2634199 -0.614597E-07  0.107E-03    3.06      10.6  T
   7   -155.2634200 -0.281142E-07  0.429E-04    3.06      26.4  T
   8   -155.2634200 -0.641512E-08  0.167E-04    3.06      67.9  T
     SCC iter.                  ...        0 min,  0.238 sec
     gradient                   ...        0 min,  0.148 sec
 * total energy  :  -153.3834825 Eh     change       -0.1952484E-02 Eh
   gradient norm :     0.0138289 Eh/α   predicted    -0.1555510E-02 ( -20.33%)
   displ. norm   :     0.3870600 α      lambda       -0.1534298E-02
   maximum displ.:     0.1409643 α      in ANC's #22, #32, #23, ...

........................................................................
.............................. CYCLE    5 ..............................
........................................................................
   1   -155.2671147 -0.155267E+03  0.734E-02    3.06       0.0  T
   2   -155.2671407 -0.259846E-04  0.441E-02    3.06       1.0  T
   3   -155.2671249  0.157708E-04  0.211E-02    3.06       1.0  T
   4   -155.2671476 -0.226973E-04  0.606E-03    3.06       1.9  T
   5   -155.2671505 -0.289336E-05  0.160E-03    3.06       7.1  T
   6   -155.2671505 -0.367721E-07  0.926E-04    3.06      12.2  T
   7   -155.2671506 -0.205305E-07  0.338E-04    3.06      33.5  T
     SCC iter.                  ...        0 min,  0.211 sec
     gradient                   ...        0 min,  0.118 sec
 * total energy  :  -153.3845330 Eh     change       -0.1050526E-02 Eh
   gradient norm :     0.0098475 Eh/α   predicted    -0.8821642E-03 ( -16.03%)
   displ. norm   :     0.3028866 α      lambda       -0.6533425E-03
   maximum displ.:     0.1071821 α      in ANC's #9, #4, #22, ...

........................................................................
.............................. CYCLE    6 ..............................
........................................................................
   1   -155.2675307 -0.155268E+03  0.607E-02    3.05       0.0  T
   2   -155.2675418 -0.110645E-04  0.357E-02    3.05       1.0  T
   3   -155.2675319  0.985248E-05  0.146E-02    3.05       1.0  T
   4   -155.2675440 -0.120692E-04  0.403E-03    3.05       2.8  T
   5   -155.2675453 -0.129808E-05  0.107E-03    3.05      10.5  T
   6   -155.2675453 -0.184367E-07  0.624E-04    3.05      18.2  T
   7   -155.2675453 -0.847066E-08  0.252E-04    3.05      45.0  T
     SCC iter.                  ...        0 min,  0.212 sec
     gradient                   ...        0 min,  0.130 sec
 * total energy  :  -153.3850025 Eh     change       -0.4694581E-03 Eh
   gradient norm :     0.0061515 Eh/α   predicted    -0.3566424E-03 ( -24.03%)
   displ. norm   :     0.3192330 α      lambda       -0.4729077E-03
   maximum displ.:     0.1349129 α      in ANC's #4, #9, #12, ...

........................................................................
.............................. CYCLE    7 ..............................
........................................................................
   1   -155.2677998 -0.155268E+03  0.651E-02    3.04       0.0  T
   2   -155.2678053 -0.544718E-05  0.381E-02    3.04       1.0  T
   3   -155.2677987  0.660233E-05  0.105E-02    3.04       1.1  T
   4   -155.2678063 -0.763489E-05  0.278E-03    3.04       4.1  T
   5   -155.2678069 -0.557339E-06  0.949E-04    3.04      11.9  T
   6   -155.2678069 -0.144045E-07  0.534E-04    3.04      21.2  T
     SCC iter.                  ...        0 min,  0.177 sec
     gradient                   ...        0 min,  0.132 sec
 * total energy  :  -153.3853576 Eh     change       -0.3551517E-03 Eh
   gradient norm :     0.0058709 Eh/α   predicted    -0.2605639E-03 ( -26.63%)
   displ. norm   :     0.3648384 α      lambda       -0.4356278E-03
   maximum displ.:     0.1683760 α      in ANC's #4, #9, #5, ...

........................................................................
.............................. CYCLE    8 ..............................
........................................................................
   1   -155.2670724 -0.155267E+03  0.774E-02    3.03       0.0  T
   2   -155.2670779 -0.549431E-05  0.453E-02    3.03       1.0  T
   3   -155.2670705  0.745363E-05  0.107E-02    3.03       1.1  T
   4   -155.2670792 -0.868044E-05  0.266E-03    3.03       4.3  T
   5   -155.2670796 -0.480641E-06  0.995E-04    3.03      11.4  T
   6   -155.2670797 -0.170907E-07  0.523E-04    3.03      21.7  T
     SCC iter.                  ...        0 min,  0.181 sec
     gradient                   ...        0 min,  0.141 sec
 * total energy  :  -153.3856959 Eh     change       -0.3382739E-03 Eh
   gradient norm :     0.0071630 Eh/α   predicted    -0.2468070E-03 ( -27.04%)
   displ. norm   :     0.4142110 α      lambda       -0.4374483E-03
   maximum displ.:     0.1984163 α      in ANC's #4, #9, #5, ...

........................................................................
.............................. CYCLE    9 ..............................
........................................................................
   1   -155.2672734 -0.155267E+03  0.890E-02    3.03       0.0  T
   2   -155.2672774 -0.396442E-05  0.522E-02    3.03       1.0  T
   3   -155.2672725  0.496008E-05  0.855E-03    3.03       1.3  T
   4   -155.2672785 -0.601162E-05  0.222E-03    3.03       5.1  T
   5   -155.2672787 -0.267108E-06  0.102E-03    3.03      11.1  T
   6   -155.2672787 -0.153401E-07  0.512E-04    3.03      22.1  T
   7   -155.2672788 -0.649359E-08  0.206E-04    3.03      55.1  T
     SCC iter.                  ...        0 min,  0.209 sec
     gradient                   ...        0 min,  0.134 sec
 * total energy  :  -153.3860294 Eh     change       -0.3334658E-03 Eh
   gradient norm :     0.0082130 Eh/α   predicted    -0.2562526E-03 ( -23.15%)
   displ. norm   :     0.4362816 α      lambda       -0.3937169E-03
   maximum displ.:     0.2154991 α      in ANC's #4, #5, #9, ...

........................................................................
.............................. CYCLE   10 ..............................
........................................................................
   1   -155.2662520 -0.155266E+03  0.952E-02    3.02       0.0  T
   2   -155.2662584 -0.639142E-05  0.560E-02    3.03       1.0  T
   3   -155.2662489  0.956075E-05  0.113E-02    3.03       1.0  T
   4   -155.2662600 -0.111317E-04  0.274E-03    3.03       4.1  T
   5   -155.2662605 -0.525533E-06  0.106E-03    3.03      10.7  T
   6   -155.2662605 -0.141052E-07  0.556E-04    3.03      20.4  T
   7   -155.2662605 -0.660481E-08  0.221E-04    3.03      51.2  T
     SCC iter.                  ...        0 min,  0.210 sec
     gradient                   ...        0 min,  0.111 sec
 * total energy  :  -153.3863240 Eh     change       -0.2946301E-03 Eh
   gradient norm :     0.0059282 Eh/α   predicted    -0.2343295E-03 ( -20.47%)
   displ. norm   :     0.4364831 α      lambda       -0.3559266E-03
   maximum displ.:     0.2185186 α      in ANC's #4, #5, #9, ...

........................................................................
.............................. CYCLE   11 ..............................
........................................................................
   1   -155.2671052 -0.155267E+03  0.946E-02    3.04       0.0  T
   2   -155.2671092 -0.406621E-05  0.555E-02    3.03       1.0  T
   3   -155.2671047  0.458532E-05  0.800E-03    3.03       1.4  T
   4   -155.2671101 -0.547213E-05  0.230E-03    3.03       4.9  T
   5   -155.2671105 -0.333805E-06  0.997E-04    3.03      11.4  T
   6   -155.2671105 -0.102884E-07  0.540E-04    3.03      20.9  T
     SCC iter.                  ...        0 min,  0.187 sec
     gradient                   ...        0 min,  0.125 sec
 * total energy  :  -153.3865957 Eh     change       -0.2717277E-03 Eh
   gradient norm :     0.0071608 Eh/α   predicted    -0.2118833E-03 ( -22.02%)
   displ. norm   :     0.4358032 α      lambda       -0.3387731E-03
   maximum displ.:     0.2244260 α      in ANC's #4, #5, #9, ...

........................................................................
.............................. CYCLE   12 ..............................
........................................................................
   1   -155.2677149 -0.155268E+03  0.891E-02    3.04       0.0  T
   2   -155.2677181 -0.321367E-05  0.523E-02    3.04       1.0  T
   3   -155.2677130  0.513753E-05  0.818E-03    3.03       1.4  T
   4   -155.2677191 -0.618202E-05  0.203E-03    3.04       5.6  T
   5   -155.2677194 -0.223961E-06  0.101E-03    3.04      11.3  T
   6   -155.2677194 -0.124931E-07  0.506E-04    3.04      22.4  T
   7   -155.2677194 -0.723733E-08  0.163E-04    3.04      69.3  T
     SCC iter.                  ...        0 min,  0.207 sec
     gradient                   ...        0 min,  0.147 sec
 * total energy  :  -153.3868648 Eh     change       -0.2690492E-03 Eh
   gradient norm :     0.0064836 Eh/α   predicted    -0.2015583E-03 ( -25.08%)
   displ. norm   :     0.4654503 α      lambda       -0.3436291E-03
   maximum displ.:     0.2434285 α      in ANC's #4, #5, #2, ...

........................................................................
.............................. CYCLE   13 ..............................
........................................................................
   1   -155.2680123 -0.155268E+03  0.916E-02    3.04       0.0  T
   2   -155.2680160 -0.374773E-05  0.537E-02    3.04       1.0  T
   3   -155.2680104  0.565881E-05  0.884E-03    3.03       1.3  T
   4   -155.2680173 -0.695345E-05  0.208E-03    3.04       5.4  T
   5   -155.2680175 -0.193622E-06  0.111E-03    3.04      10.2  T
   6   -155.2680176 -0.177618E-07  0.581E-04    3.04      19.5  T
   7   -155.2680176 -0.105040E-07  0.189E-04    3.04      60.0  T
     SCC iter.                  ...        0 min,  0.207 sec
     gradient                   ...        0 min,  0.121 sec
 * total energy  :  -153.3871314 Eh     change       -0.2666582E-03 Eh
   gradient norm :     0.0064558 Eh/α   predicted    -0.2090442E-03 ( -21.61%)
   displ. norm   :     0.4342225 α      lambda       -0.2970744E-03
   maximum displ.:     0.2371355 α      in ANC's #5, #4, #2, ...

........................................................................
.............................. CYCLE   14 ..............................
........................................................................
   1   -155.2695051 -0.155270E+03  0.772E-02    3.03       0.0  T
   2   -155.2695089 -0.382032E-05  0.452E-02    3.03       1.0  T
   3   -155.2695040  0.494927E-05  0.863E-03    3.03       1.3  T
   4   -155.2695101 -0.608310E-05  0.180E-03    3.03       6.3  T
   5   -155.2695102 -0.125405E-06  0.957E-04    3.03      11.8  T
   6   -155.2695102 -0.189217E-07  0.521E-04    3.03      21.7  T
     SCC iter.                  ...        0 min,  0.178 sec
     gradient                   ...        0 min,  0.135 sec
 * total energy  :  -153.3873536 Eh     change       -0.2221863E-03 Eh
   gradient norm :     0.0060464 Eh/α   predicted    -0.1765457E-03 ( -20.54%)
   displ. norm   :     0.4227778 α      lambda       -0.2430302E-03
   maximum displ.:     0.2391091 α      in ANC's #5, #4, #2, ...

........................................................................
.............................. CYCLE   15 ..............................
........................................................................
   1   -155.2677862 -0.155268E+03  0.756E-02    3.03       0.0  T
   2   -155.2677913 -0.510347E-05  0.442E-02    3.03       1.0  T
   3   -155.2677867  0.461950E-05  0.886E-03    3.03       1.3  T
   4   -155.2677924 -0.569538E-05  0.223E-03    3.03       5.1  T
   5   -155.2677927 -0.280640E-06  0.999E-04    3.03      11.3  T
   6   -155.2677927 -0.119481E-07  0.541E-04    3.03      20.9  T
     SCC iter.                  ...        0 min,  0.184 sec
     gradient                   ...        0 min,  0.122 sec
 * total energy  :  -153.3875384 Eh     change       -0.1848008E-03 Eh
   gradient norm :     0.0051987 Eh/α   predicted    -0.1432486E-03 ( -22.48%)
   displ. norm   :     0.3863692 α      lambda       -0.2593350E-03
   maximum displ.:     0.2284407 α      in ANC's #5, #4, #2, ...

........................................................................
.............................. CYCLE   16 ..............................
........................................................................
   1   -155.2709014 -0.155271E+03  0.596E-02    3.02       0.0  T
   2   -155.2709048 -0.341841E-05  0.352E-02    3.02       1.0  T
   3   -155.2709005  0.425404E-05  0.843E-03    3.02       1.3  T
   4   -155.2709057 -0.520064E-05  0.174E-03    3.02       6.5  T
   5   -155.2709059 -0.164677E-06  0.830E-04    3.02      13.6  T
   6   -155.2709059 -0.111513E-07  0.414E-04    3.02      27.4  T
     SCC iter.                  ...        0 min,  0.178 sec
     gradient                   ...        0 min,  0.132 sec
 * total energy  :  -153.3877267 Eh     change       -0.1882616E-03 Eh
   gradient norm :     0.0062742 Eh/α   predicted    -0.1490272E-03 ( -20.84%)
   displ. norm   :     0.4630154 α      lambda       -0.2716670E-03
   maximum displ.:     0.2780609 α      in ANC's #5, #4, #2, ...

........................................................................
.............................. CYCLE   17 ..............................
........................................................................
   1   -155.2692660 -0.155269E+03  0.747E-02    3.02       0.0  T
   2   -155.2692737 -0.767996E-05  0.436E-02    3.02       1.0  T
   3   -155.2692677  0.601806E-05  0.104E-02    3.02       1.1  T
   4   -155.2692744 -0.668256E-05  0.325E-03    3.02       3.5  T
   5   -155.2692752 -0.768957E-06  0.943E-04    3.02      12.0  T
   6   -155.2692752 -0.178250E-07  0.512E-04    3.02      22.1  T
     SCC iter.                  ...        0 min,  0.182 sec
     gradient                   ...        0 min,  0.134 sec
 * total energy  :  -153.3879363 Eh     change       -0.2095886E-03 Eh
   gradient norm :     0.0070811 Eh/α   predicted    -0.1649541E-03 ( -21.30%)
   displ. norm   :     0.4731811 α      lambda       -0.2939572E-03
   maximum displ.:     0.2851758 α      in ANC's #5, #4, #2, ...

........................................................................
.............................. CYCLE   18 ..............................
........................................................................
   1   -155.2686667 -0.155269E+03  0.741E-02    3.02       0.0  T
   2   -155.2686689 -0.218884E-05  0.436E-02    3.02       1.0  T
   3   -155.2686626  0.624865E-05  0.909E-03    3.02       1.2  T
   4   -155.2686698 -0.717239E-05  0.203E-03    3.02       5.6  T
   5   -155.2686700 -0.196886E-06  0.928E-04    3.02      12.2  T
   6   -155.2686700 -0.849764E-08  0.414E-04    3.02      27.4  T
     SCC iter.                  ...        0 min,  0.181 sec
     gradient                   ...        0 min,  0.132 sec
 * total energy  :  -153.3881687 Eh     change       -0.2324088E-03 Eh
   gradient norm :     0.0072501 Eh/α   predicted    -0.1798905E-03 ( -22.60%)
   displ. norm   :     0.5333970 α      lambda       -0.3731452E-03
   maximum displ.:     0.3184310 α      in ANC's #5, #4, #2, ...

........................................................................
.............................. CYCLE   19 ..............................
........................................................................
   1   -155.2705499 -0.155271E+03  0.822E-02    3.03       0.0  T
   2   -155.2705587 -0.877690E-05  0.486E-02    3.03       1.0  T
   3   -155.2705419  0.167628E-04  0.154E-02    3.03       1.0  T
   4   -155.2705607 -0.187447E-04  0.396E-03    3.03       2.9  T
   5   -155.2705619 -0.120701E-05  0.102E-03    3.03      11.1  T
   6   -155.2705619 -0.186389E-07  0.544E-04    3.03      20.8  T
   7   -155.2705619 -0.271427E-08  0.212E-04    3.03      53.5  T
     SCC iter.                  ...        0 min,  0.207 sec
     gradient                   ...        0 min,  0.156 sec
 * total energy  :  -153.3884392 Eh     change       -0.2704896E-03 Eh
   gradient norm :     0.0066229 Eh/α   predicted    -0.2396580E-03 ( -11.40%)
   displ. norm   :     0.5850930 α      lambda       -0.3528179E-03
   maximum displ.:     0.3520913 α      in ANC's #5, #4, #2, ...

........................................................................
.............................. CYCLE   20 ..............................
........................................................................
   1   -155.2677554 -0.155268E+03  0.941E-02    3.03       0.0  T
   2   -155.2677591 -0.370806E-05  0.553E-02    3.03       1.0  T
   3   -155.2677525  0.660118E-05  0.965E-03    3.03       1.2  T
   4   -155.2677604 -0.783499E-05  0.239E-03    3.03       4.7  T
   5   -155.2677607 -0.288136E-06  0.114E-03    3.03      10.0  T
   6   -155.2677607 -0.178609E-07  0.534E-04    3.03      21.2  T
   7   -155.2677607 -0.627503E-08  0.189E-04    3.03      60.0  T
     SCC iter.                  ...        0 min,  0.208 sec
     gradient                   ...        0 min,  0.117 sec
 * total energy  :  -153.3887222 Eh     change       -0.2830248E-03 Eh
   gradient norm :     0.0070764 Eh/α   predicted    -0.2368011E-03 ( -16.33%)
   displ. norm   :     0.5494753 α      lambda       -0.4085987E-03
   maximum displ.:     0.3083404 α      in ANC's #5, #4, #2, ...
 * RMSD in coord.:     0.7444571 α      energy gain  -0.2957402E-01 Eh

generating ANC from model Hessian ...
Using Lindh-Hessian (1995)
 Shifting diagonal of input Hessian by    9.8904362547970436E-003
 Lowest  eigenvalues of input Hessian
    0.000000    0.000000    0.000000    0.000000    0.000000    0.000000
    0.010000    0.010081    0.010201    0.010273    0.010332    0.010511
    0.010549    0.010702    0.011045    0.011412    0.011549    0.011989
 Highest eigenvalues
    2.045279    2.157756    2.158411    2.341304    2.371340    2.380132


........................................................................
.............................. CYCLE   21 ..............................
........................................................................
   1   -155.2699531 -0.155270E+03  0.868E-02    3.04       0.0  T
   2   -155.2699569 -0.381074E-05  0.510E-02    3.04       1.0  T
   3   -155.2699488  0.815023E-05  0.997E-03    3.04       1.1  T
   4   -155.2699584 -0.964305E-05  0.226E-03    3.04       5.0  T
   5   -155.2699587 -0.250390E-06  0.114E-03    3.04       9.9  T
   6   -155.2699587 -0.190785E-07  0.548E-04    3.04      20.7  T
   7   -155.2699587 -0.900428E-08  0.181E-04    3.04      62.7  T
     SCC iter.                  ...        0 min,  0.210 sec
     gradient                   ...        0 min,  0.126 sec
 * total energy  :  -153.3890334 Eh     change       -0.3112151E-03 Eh
   gradient norm :     0.0090367 Eh/α   predicted     0.0000000E+00 (-100.00%)
   displ. norm   :     0.0747654 α      lambda       -0.1682377E-03
   maximum displ.:     0.0229880 α      in ANC's #13, #5, #34, ...

........................................................................
.............................. CYCLE   22 ..............................
........................................................................
   1   -155.2713506 -0.155271E+03  0.188E-02    3.04       0.0  T
   2   -155.2713521 -0.154001E-05  0.115E-02    3.04       1.0  T
   3   -155.2713504  0.170971E-05  0.640E-03    3.04       1.8  T
   4   -155.2713528 -0.232600E-05  0.145E-03    3.04       7.8  T
   5   -155.2713529 -0.135478E-06  0.365E-04    3.04      31.0  T
   6   -155.2713529 -0.450979E-08  0.201E-04    3.04      56.4  T
     SCC iter.                  ...        0 min,  0.182 sec
     gradient                   ...        0 min,  0.129 sec
 * total energy  :  -153.3891683 Eh     change       -0.1349204E-03 Eh
   gradient norm :     0.0040978 Eh/α   predicted    -0.8462430E-04 ( -37.28%)
   displ. norm   :     0.2054652 α      lambda       -0.2551306E-03
   maximum displ.:     0.0734609 α      in ANC's #5, #16, #13, ...

........................................................................
.............................. CYCLE   23 ..............................
........................................................................
   1   -155.2726491 -0.155273E+03  0.440E-02    3.04       0.0  T
   2   -155.2726544 -0.528038E-05  0.266E-02    3.04       1.0  T
   3   -155.2726422  0.121691E-04  0.153E-02    3.04       1.0  T
   4   -155.2726577 -0.155135E-04  0.238E-03    3.04       4.8  T
   5   -155.2726581 -0.334631E-06  0.775E-04    3.04      14.6  T
   6   -155.2726581 -0.221642E-07  0.412E-04    3.04      27.5  T
     SCC iter.                  ...        0 min,  0.182 sec
     gradient                   ...        0 min,  0.069 sec
 * total energy  :  -153.3893371 Eh     change       -0.1687865E-03 Eh
   gradient norm :     0.0045779 Eh/α   predicted    -0.1330278E-03 ( -21.19%)
   displ. norm   :     0.1905063 α      lambda       -0.1238728E-03
   maximum displ.:     0.0771783 α      in ANC's #5, #4, #2, ...

........................................................................
.............................. CYCLE   24 ..............................
........................................................................
   1   -155.2725198 -0.155273E+03  0.378E-02    3.04       0.0  T
   2   -155.2725214 -0.152776E-05  0.225E-02    3.04       1.0  T
   3   -155.2725118  0.953527E-05  0.122E-02    3.04       1.0  T
   4   -155.2725230 -0.112149E-04  0.116E-03    3.04       9.8  T
   5   -155.2725231 -0.584643E-07  0.576E-04    3.04      19.7  T
   6   -155.2725231 -0.103394E-07  0.312E-04    3.04      36.3  T
     SCC iter.                  ...        0 min,  0.178 sec
     gradient                   ...        0 min,  0.142 sec
 * total energy  :  -153.3894388 Eh     change       -0.1017058E-03 Eh
   gradient norm :     0.0061785 Eh/α   predicted    -0.6420516E-04 ( -36.87%)
   displ. norm   :     0.3678527 α      lambda       -0.2222509E-03
   maximum displ.:     0.1552373 α      in ANC's #5, #4, #2, ...

........................................................................
.............................. CYCLE   25 ..............................
........................................................................
   1   -155.2712625 -0.155271E+03  0.702E-02    3.04       0.0  T
   2   -155.2712659 -0.341409E-05  0.415E-02    3.04       1.0  T
   3   -155.2712376  0.282799E-04  0.207E-02    3.04       1.0  T
   4   -155.2712703 -0.326934E-04  0.190E-03    3.04       6.0  T
   5   -155.2712704 -0.142433E-06  0.102E-03    3.04      11.1  T
   6   -155.2712705 -0.247596E-07  0.531E-04    3.04      21.3  T
   7   -155.2712705 -0.481634E-08  0.187E-04    3.04      60.4  T
     SCC iter.                  ...        0 min,  0.208 sec
     gradient                   ...        0 min,  0.155 sec
 * total energy  :  -153.3896192 Eh     change       -0.1803328E-03 Eh
   gradient norm :     0.0060829 Eh/α   predicted    -0.1262621E-03 ( -29.98%)
   displ. norm   :     0.4657213 α      lambda       -0.2621443E-03
   maximum displ.:     0.2059532 α      in ANC's #5, #4, #2, ...

........................................................................
.............................. CYCLE   26 ..............................
........................................................................
   1   -155.2691317 -0.155269E+03  0.866E-02    3.04       0.0  T
   2   -155.2691366 -0.492325E-05  0.508E-02    3.04       1.0  T
   3   -155.2691042  0.323755E-04  0.222E-02    3.04       1.0  T
   4   -155.2691414 -0.371721E-04  0.247E-03    3.04       4.6  T
   5   -155.2691417 -0.271679E-06  0.124E-03    3.04       9.1  T
   6   -155.2691417 -0.293147E-07  0.631E-04    3.04      17.9  T
   7   -155.2691417 -0.787142E-08  0.243E-04    3.04      46.7  T
     SCC iter.                  ...        0 min,  0.211 sec
     gradient                   ...        0 min,  0.136 sec
 * total energy  :  -153.3898303 Eh     change       -0.2111264E-03 Eh
   gradient norm :     0.0054233 Eh/α   predicted    -0.1595071E-03 ( -24.45%)
   displ. norm   :     0.4673261 α      lambda       -0.2759523E-03
   maximum displ.:     0.2163281 α      in ANC's #5, #4, #2, ...

........................................................................
.............................. CYCLE   27 ..............................
........................................................................
   1   -155.2679301 -0.155268E+03  0.830E-02    3.04       0.0  T
   2   -155.2679346 -0.449492E-05  0.486E-02    3.04       1.0  T
   3   -155.2679157  0.189333E-04  0.172E-02    3.04       1.0  T
   4   -155.2679374 -0.217160E-04  0.237E-03    3.04       4.8  T
   5   -155.2679377 -0.253942E-06  0.116E-03    3.04       9.7  T
   6   -155.2679377 -0.304403E-07  0.586E-04    3.04      19.3  T
   7   -155.2679377 -0.623041E-08  0.227E-04    3.04      49.8  T
     SCC iter.                  ...        0 min,  0.208 sec
     gradient                   ...        0 min,  0.133 sec
 * total energy  :  -153.3900569 Eh     change       -0.2265793E-03 Eh
   gradient norm :     0.0062759 Eh/α   predicted    -0.1681324E-03 ( -25.80%)
   displ. norm   :     0.4702817 α      lambda       -0.3256822E-03
   maximum displ.:     0.2282692 α      in ANC's #5, #4, #2, ...

........................................................................
.............................. CYCLE   28 ..............................
........................................................................
   1   -155.2687083 -0.155269E+03  0.785E-02    3.05       0.0  T
   2   -155.2687113 -0.307178E-05  0.460E-02    3.05       1.0  T
   3   -155.2687007  0.106245E-04  0.123E-02    3.05       1.0  T
   4   -155.2687130 -0.122825E-04  0.194E-03    3.05       5.8  T
   5   -155.2687131 -0.118915E-06  0.104E-03    3.05      10.9  T
   6   -155.2687131 -0.249796E-07  0.502E-04    3.05      22.5  T
   7   -155.2687131 -0.516187E-08  0.169E-04    3.05      66.8  T
     SCC iter.                  ...        0 min,  0.207 sec
     gradient                   ...        0 min,  0.145 sec
 * total energy  :  -153.3903187 Eh     change       -0.2618538E-03 Eh
   gradient norm :     0.0076889 Eh/α   predicted    -0.1988566E-03 ( -24.06%)
   displ. norm   :     0.5098969 α      lambda       -0.3145830E-03
   maximum displ.:     0.2579045 α      in ANC's #5, #4, #2, ...

........................................................................
.............................. CYCLE   29 ..............................
........................................................................
   1   -155.2688967 -0.155269E+03  0.825E-02    3.06       0.0  T
   2   -155.2688997 -0.302964E-05  0.484E-02    3.06       1.0  T
   3   -155.2688841  0.155500E-04  0.146E-02    3.06       1.0  T
   4   -155.2689019 -0.177883E-04  0.190E-03    3.06       5.9  T
   5   -155.2689020 -0.858042E-07  0.107E-03    3.06      10.6  T
   6   -155.2689020 -0.241186E-07  0.492E-04    3.06      23.0  T
   7   -155.2689020 -0.487992E-08  0.176E-04    3.06      64.2  T
     SCC iter.                  ...        0 min,  0.208 sec
     gradient                   ...        0 min,  0.115 sec
 * total energy  :  -153.3905767 Eh     change       -0.2579435E-03 Eh
   gradient norm :     0.0080347 Eh/α   predicted    -0.1981998E-03 ( -23.16%)
   displ. norm   :     0.5186233 α      lambda       -0.3188591E-03
   maximum displ.:     0.2752992 α      in ANC's #5, #4, #2, ...

........................................................................
.............................. CYCLE   30 ..............................
........................................................................
   1   -155.2700924 -0.155270E+03  0.815E-02    3.05       0.0  T
   2   -155.2700959 -0.350598E-05  0.479E-02    3.06       1.0  T
   3   -155.2700793  0.165863E-04  0.151E-02    3.05       1.0  T
   4   -155.2700983 -0.189163E-04  0.204E-03    3.06       5.6  T
   5   -155.2700984 -0.135074E-06  0.106E-03    3.06      10.7  T
   6   -155.2700984 -0.161292E-07  0.529E-04    3.06      21.4  T
   7   -155.2700984 -0.573525E-08  0.184E-04    3.06      61.7  T
     SCC iter.                  ...        0 min,  0.206 sec
     gradient                   ...        0 min,  0.135 sec
 * total energy  :  -153.3908383 Eh     change       -0.2616262E-03 Eh
   gradient norm :     0.0061940 Eh/α   predicted    -0.2023157E-03 ( -22.67%)
   displ. norm   :     0.5778155 α      lambda       -0.3197695E-03
   maximum displ.:     0.3182922 α      in ANC's #5, #4, #2, ...

........................................................................
.............................. CYCLE   31 ..............................
........................................................................
   1   -155.2694942 -0.155269E+03  0.919E-02    3.05       0.0  T
   2   -155.2694989 -0.475772E-05  0.539E-02    3.05       1.0  T
   3   -155.2694768  0.221368E-04  0.180E-02    3.05       1.0  T
   4   -155.2695021 -0.252959E-04  0.236E-03    3.05       4.8  T
   5   -155.2695023 -0.197683E-06  0.122E-03    3.05       9.3  T
   6   -155.2695023 -0.188637E-07  0.615E-04    3.05      18.4  T
   7   -155.2695023 -0.849334E-08  0.205E-04    3.05      55.1  T
     SCC iter.                  ...        0 min,  0.209 sec
     gradient                   ...        0 min,  0.128 sec
 * total energy  :  -153.3911060 Eh     change       -0.2677630E-03 Eh
   gradient norm :     0.0053317 Eh/α   predicted    -0.2132665E-03 ( -20.35%)
   displ. norm   :     0.5210939 α      lambda       -0.3692748E-03
   maximum displ.:     0.3102396 α      in ANC's #5, #4, #2, ...

........................................................................
.............................. CYCLE   32 ..............................
........................................................................
   1   -155.2765925 -0.155277E+03  0.785E-02    3.04       0.0  T
   2   -155.2766005 -0.806614E-05  0.462E-02    3.04       1.0  T
   3   -155.2765874  0.130853E-04  0.144E-02    3.04       1.0  T
   4   -155.2766023 -0.148930E-04  0.364E-03    3.04       3.1  T
   5   -155.2766033 -0.924045E-06  0.123E-03    3.04       9.2  T
   6   -155.2766033 -0.272252E-07  0.653E-04    3.04      17.3  T
   7   -155.2766033 -0.482413E-08  0.261E-04    3.04      43.4  T
     SCC iter.                  ...        0 min,  0.206 sec
     gradient                   ...        0 min,  0.123 sec
 * total energy  :  -153.3913445 Eh     change       -0.2384165E-03 Eh
   gradient norm :     0.0067257 Eh/α   predicted    -0.2347925E-03 (  -1.52%)
   displ. norm   :     0.7323573 α      lambda       -0.4012274E-03
   maximum displ.:     0.4190595 α      in ANC's #5, #4, #2, ...

........................................................................
.............................. CYCLE   33 ..............................
........................................................................
   1   -155.2670242 -0.155267E+03  0.123E-01    3.03       0.0  T
   2   -155.2670356 -0.113129E-04  0.718E-02    3.03       1.0  T
   3   -155.2669897  0.458021E-04  0.270E-02    3.03       1.0  T
   4   -155.2670421 -0.523863E-04  0.409E-03    3.03       2.8  T
   5   -155.2670430 -0.851300E-06  0.179E-03    3.03       6.3  T
   6   -155.2670430 -0.350653E-07  0.935E-04    3.03      12.1  T
   7   -155.2670430 -0.154894E-07  0.370E-04    3.03      30.6  T
     SCC iter.                  ...        0 min,  0.207 sec
     gradient                   ...        0 min,  0.140 sec
 * total energy  :  -153.3915815 Eh     change       -0.2370841E-03 Eh
   gradient norm :     0.0115988 Eh/α   predicted    -0.3082125E-03 (  30.00%)
   displ. norm   :     0.2785595 α      lambda       -0.2332063E-03
   maximum displ.:     0.1806706 α      in ANC's #5, #4, #2, ...

........................................................................
.............................. CYCLE   34 ..............................
........................................................................
   1   -155.2684821 -0.155268E+03  0.429E-02    3.03       0.0  T
   2   -155.2684836 -0.150244E-05  0.252E-02    3.03       1.0  T
   3   -155.2684824  0.116863E-05  0.470E-03    3.03       2.4  T
   4   -155.2684840 -0.154694E-05  0.107E-03    3.03      10.6  T
   5   -155.2684840 -0.500145E-07  0.555E-04    3.03      20.4  T
   6   -155.2684840 -0.316822E-08  0.253E-04    3.03      44.8  T
     SCC iter.                  ...        0 min,  0.179 sec
     gradient                   ...        0 min,  0.109 sec
 * total energy  :  -153.3917850 Eh     change       -0.2034904E-03 Eh
   gradient norm :     0.0083202 Eh/α   predicted    -0.1256633E-03 ( -38.25%)
   displ. norm   :     0.4692816 α      lambda       -0.5053584E-03
   maximum displ.:     0.3072701 α      in ANC's #5, #4, #2, ...

........................................................................
.............................. CYCLE   35 ..............................
........................................................................
   1   -155.2754105 -0.155275E+03  0.810E-02    3.03       0.0  T
   2   -155.2754187 -0.814843E-05  0.476E-02    3.03       1.0  T
   3   -155.2754010  0.177302E-04  0.171E-02    3.03       1.0  T
   4   -155.2754214 -0.204655E-04  0.337E-03    3.03       3.4  T
   5   -155.2754221 -0.677968E-06  0.135E-03    3.03       8.4  T
   6   -155.2754221 -0.391006E-07  0.710E-04    3.03      15.9  T
   7   -155.2754221 -0.592880E-08  0.294E-04    3.03      38.5  T
     SCC iter.                  ...        0 min,  0.209 sec
     gradient                   ...        0 min,  0.143 sec
 * total energy  :  -153.3920918 Eh     change       -0.3067233E-03 Eh
   gradient norm :     0.0068689 Eh/α   predicted    -0.3083307E-03 (   0.52%)
   displ. norm   :     0.7003689 α      lambda       -0.3640399E-03
   maximum displ.:     0.4572477 α      in ANC's #5, #4, #2, ...

........................................................................
.............................. CYCLE   36 ..............................
........................................................................
   1   -155.2696172 -0.155270E+03  0.111E-01    3.03       0.0  T
   2   -155.2696258 -0.856867E-05  0.651E-02    3.03       1.0  T
   3   -155.2696101  0.156412E-04  0.158E-02    3.03       1.0  T
   4   -155.2696281 -0.179525E-04  0.338E-03    3.03       3.4  T
   5   -155.2696287 -0.603349E-06  0.143E-03    3.03       7.9  T
   6   -155.2696287 -0.352461E-07  0.811E-04    3.03      14.0  T
   7   -155.2696288 -0.147086E-07  0.248E-04    3.03      45.7  T
     SCC iter.                  ...        0 min,  0.207 sec
     gradient                   ...        0 min,  0.161 sec
 * total energy  :  -153.3923404 Eh     change       -0.2486200E-03 Eh
   gradient norm :     0.0068217 Eh/α   predicted    -0.2713114E-03 (   9.13%)
   displ. norm   :     0.4748030 α      lambda       -0.2168046E-03
   maximum displ.:     0.3214514 α      in ANC's #5, #4, #2, ...

........................................................................
.............................. CYCLE   37 ..............................
........................................................................
   1   -155.2683218 -0.155268E+03  0.774E-02    3.03       0.0  T
   2   -155.2683249 -0.305328E-05  0.454E-02    3.03       1.0  T
   3   -155.2683218  0.305792E-05  0.714E-03    3.03       1.6  T
   4   -155.2683258 -0.401545E-05  0.176E-03    3.03       6.4  T
   5   -155.2683259 -0.111581E-06  0.969E-04    3.03      11.7  T
   6   -155.2683259 -0.105880E-07  0.495E-04    3.03      22.9  T
     SCC iter.                  ...        0 min,  0.180 sec
     gradient                   ...        0 min,  0.137 sec
 * total energy  :  -153.3925128 Eh     change       -0.1724038E-03 Eh
   gradient norm :     0.0077414 Eh/α   predicted    -0.1328400E-03 ( -22.95%)
   displ. norm   :     0.5044302 α      lambda       -0.4269980E-03
   maximum displ.:     0.3364948 α      in ANC's #5, #4, #3, ...

........................................................................
.............................. CYCLE   38 ..............................
........................................................................
   1   -155.2770686 -0.155277E+03  0.834E-02    3.03       0.0  T
   2   -155.2770756 -0.701932E-05  0.490E-02    3.04       1.0  T
   3   -155.2770563  0.193021E-04  0.175E-02    3.04       1.0  T
   4   -155.2770783 -0.219944E-04  0.315E-03    3.04       3.6  T
   5   -155.2770789 -0.593710E-06  0.117E-03    3.04       9.7  T
   6   -155.2770789 -0.225650E-07  0.596E-04    3.04      19.0  T
   7   -155.2770789 -0.307935E-08  0.275E-04    3.04      41.2  T
     SCC iter.                  ...        0 min,  0.206 sec
     gradient                   ...        0 min,  0.132 sec
 * total energy  :  -153.3927228 Eh     change       -0.2099708E-03 Eh
   gradient norm :     0.0117451 Eh/α   predicted    -0.2678379E-03 (  27.56%)
   displ. norm   :     0.5660435 α      lambda       -0.3906326E-03
   maximum displ.:     0.3778602 α      in ANC's #5, #4, #2, ...

........................................................................
.............................. CYCLE   39 ..............................
........................................................................
   1   -155.2703102 -0.155270E+03  0.985E-02    3.03       0.0  T
   2   -155.2703253 -0.151818E-04  0.582E-02    3.03       1.0  T
   3   -155.2703184  0.694461E-05  0.115E-02    3.03       1.0  T
   4   -155.2703262 -0.784285E-05  0.441E-03    3.03       2.6  T
   5   -155.2703275 -0.128784E-05  0.151E-03    3.03       7.5  T
   6   -155.2703276 -0.563887E-07  0.853E-04    3.03      13.3  T
   7   -155.2703276 -0.761349E-08  0.306E-04    3.03      37.0  T
     SCC iter.                  ...        0 min,  0.209 sec
     gradient                   ...        0 min,  0.121 sec
 * total energy  :  -153.3928935 Eh     change       -0.1707673E-03 Eh
   gradient norm :     0.0111993 Eh/α   predicted    -0.2579010E-03 (  51.02%)
   displ. norm   :     0.2618251 α      lambda       -0.2404657E-03
   maximum displ.:     0.1698157 α      in ANC's #5, #4, #7, ...

........................................................................
.............................. CYCLE   40 ..............................
........................................................................
   1   -155.2703399 -0.155270E+03  0.516E-02    3.03       0.0  T
   2   -155.2703446 -0.471506E-05  0.301E-02    3.03       1.0  T
   3   -155.2703415  0.311298E-05  0.798E-03    3.03       1.4  T
   4   -155.2703449 -0.346153E-05  0.259E-03    3.03       4.4  T
   5   -155.2703454 -0.448960E-06  0.775E-04    3.03      14.6  T
   6   -155.2703454 -0.131340E-07  0.434E-04    3.03      26.1  T
     SCC iter.                  ...        0 min,  0.180 sec
     gradient                   ...        0 min,  0.141 sec
 * total energy  :  -153.3930166 Eh     change       -0.1230678E-03 Eh
   gradient norm :     0.0091332 Eh/α   predicted    -0.1284777E-03 (   4.40%)
   displ. norm   :     0.3200438 α      lambda       -0.2280584E-03
   maximum displ.:     0.2107328 α      in ANC's #5, #4, #3, ...

........................................................................
.............................. CYCLE   41 ..............................
........................................................................
   1   -155.2708783 -0.155271E+03  0.547E-02    3.03       0.0  T
   2   -155.2708929 -0.146227E-04  0.318E-02    3.03       1.0  T
   3   -155.2708917  0.117582E-05  0.839E-03    3.03       1.3  T
   4   -155.2708926 -0.921360E-06  0.331E-03    3.03       3.4  T
   5   -155.2708936 -0.953601E-06  0.756E-04    3.03      15.0  T
   6   -155.2708936 -0.141574E-07  0.436E-04    3.03      26.0  T
     SCC iter.                  ...        0 min,  0.181 sec
     gradient                   ...        0 min,  0.158 sec
 * total energy  :  -153.3931327 Eh     change       -0.1161013E-03 Eh
   gradient norm :     0.0093720 Eh/α   predicted    -0.1257096E-03 (   8.28%)
   displ. norm   :     0.2178674 α      lambda       -0.2020527E-03
   maximum displ.:     0.1195792 α      in ANC's #5, #4, #12, ...

........................................................................
.............................. CYCLE   42 ..............................
........................................................................
   1   -155.2764249 -0.155276E+03  0.435E-02    3.03       0.0  T
   2   -155.2764292 -0.426667E-05  0.260E-02    3.03       1.0  T
   3   -155.2764182  0.109802E-04  0.149E-02    3.03       1.0  T
   4   -155.2764318 -0.136406E-04  0.237E-03    3.03       4.8  T
   5   -155.2764322 -0.360631E-06  0.710E-04    3.03      15.9  T
   6   -155.2764322 -0.196575E-07  0.342E-04    3.03      33.1  T
     SCC iter.                  ...        0 min,  0.186 sec
     gradient                   ...        0 min,  0.121 sec
 * total energy  :  -153.3932449 Eh     change       -0.1121876E-03 Eh
   gradient norm :     0.0071731 Eh/α   predicted    -0.1058222E-03 (  -5.67%)
   displ. norm   :     0.5971381 α      lambda       -0.2172989E-03
   maximum displ.:     0.4051320 α      in ANC's #5, #4, #3, ...
 * RMSD in coord.:     0.9826500 α      energy gain  -0.4522686E-02 Eh

generating ANC from model Hessian ...
Using Lindh-Hessian (1995)
 Shifting diagonal of input Hessian by    9.8862316050131287E-003
 Lowest  eigenvalues of input Hessian
    0.000000    0.000000    0.000000    0.000000    0.000000    0.000000
    0.010000    0.010109    0.010182    0.010241    0.010353    0.010504
    0.010531    0.010723    0.010963    0.011277    0.011739    0.011787
 Highest eigenvalues
    2.044987    2.149420    2.156031    2.338144    2.362508    2.397925


........................................................................
.............................. CYCLE   43 ..............................
........................................................................
   1   -155.2705823 -0.155271E+03  0.104E-01    3.03       0.0  T
   2   -155.2705942 -0.119058E-04  0.611E-02    3.03       1.0  T
   3   -155.2705901  0.414016E-05  0.932E-03    3.03       1.2  T
   4   -155.2705951 -0.501420E-05  0.333E-03    3.03       3.4  T
   5   -155.2705958 -0.709756E-06  0.120E-03    3.03       9.4  T
   6   -155.2705958 -0.307595E-07  0.672E-04    3.03      16.9  T
   7   -155.2705959 -0.613082E-08  0.223E-04    3.03      50.7  T
     SCC iter.                  ...        0 min,  0.209 sec
     gradient                   ...        0 min,  0.156 sec
 * total energy  :  -153.3933361 Eh     change       -0.9126663E-04 Eh
   gradient norm :     0.0071453 Eh/α   predicted     0.0000000E+00 (-100.00%)
   displ. norm   :     0.0612104 α      lambda       -0.1537583E-03
   maximum displ.:     0.0292829 α      in ANC's #11, #5, #4, ...

........................................................................
.............................. CYCLE   44 ..............................
........................................................................
   1   -155.2748082 -0.155275E+03  0.205E-02    3.03       0.0  T
   2   -155.2748095 -0.129781E-05  0.123E-02    3.03       1.0  T
   3   -155.2748085  0.943336E-06  0.454E-03    3.03       2.5  T
   4   -155.2748096 -0.107019E-05  0.143E-03    3.03       7.9  T
   5   -155.2748097 -0.132457E-06  0.379E-04    3.03      29.9  T
   6   -155.2748097 -0.453028E-08  0.205E-04    3.03      55.3  T
     SCC iter.                  ...        0 min,  0.186 sec
     gradient                   ...        0 min,  0.130 sec
 * total energy  :  -153.3934419 Eh     change       -0.1057770E-03 Eh
   gradient norm :     0.0028889 Eh/α   predicted    -0.7719926E-04 ( -27.02%)
   displ. norm   :     0.1046138 α      lambda       -0.9556886E-04
   maximum displ.:     0.0496419 α      in ANC's #11, #5, #4, ...

........................................................................
.............................. CYCLE   45 ..............................
........................................................................
   1   -155.2775360 -0.155278E+03  0.245E-02    3.04       0.0  T
   2   -155.2775376 -0.159210E-05  0.147E-02    3.04       1.0  T
   3   -155.2775359  0.173959E-05  0.593E-03    3.03       1.9  T
   4   -155.2775379 -0.200219E-05  0.165E-03    3.04       6.8  T
   5   -155.2775381 -0.182698E-06  0.427E-04    3.04      26.5  T
   6   -155.2775381 -0.525739E-08  0.233E-04    3.04      48.6  T
     SCC iter.                  ...        0 min,  0.179 sec
     gradient                   ...        0 min,  0.126 sec
 * total energy  :  -153.3935103 Eh     change       -0.6835382E-04 Eh
   gradient norm :     0.0020836 Eh/α   predicted    -0.4833711E-04 ( -29.28%)
   displ. norm   :     0.1616993 α      lambda       -0.8812879E-04
   maximum displ.:     0.0768300 α      in ANC's #11, #5, #4, ...

........................................................................
.............................. CYCLE   46 ..............................
........................................................................
   1   -155.2781019 -0.155278E+03  0.345E-02    3.04       0.0  T
   2   -155.2781032 -0.124265E-05  0.205E-02    3.04       1.0  T
   3   -155.2780980  0.515651E-05  0.905E-03    3.04       1.3  T
   4   -155.2781039 -0.592845E-05  0.131E-03    3.04       8.7  T
   5   -155.2781040 -0.901582E-07  0.514E-04    3.04      22.0  T
   6   -155.2781040 -0.431410E-08  0.283E-04    3.04      40.0  T
     SCC iter.                  ...        0 min,  0.179 sec
     gradient                   ...        0 min,  0.126 sec
 * total energy  :  -153.3935800 Eh     change       -0.6973696E-04 Eh
   gradient norm :     0.0037934 Eh/α   predicted    -0.4522405E-04 ( -35.15%)
   displ. norm   :     0.2606330 α      lambda       -0.1174940E-03
   maximum displ.:     0.1174028 α      in ANC's #11, #5, #4, ...

........................................................................
.............................. CYCLE   47 ..............................
........................................................................
   1   -155.2767547 -0.155277E+03  0.530E-02    3.04       0.0  T
   2   -155.2767561 -0.147576E-05  0.314E-02    3.04       1.0  T
   3   -155.2767433  0.128002E-04  0.138E-02    3.04       1.0  T
   4   -155.2767579 -0.145797E-04  0.132E-03    3.04       8.6  T
   5   -155.2767580 -0.513138E-07  0.720E-04    3.04      15.7  T
   6   -155.2767580 -0.656166E-08  0.373E-04    3.04      30.3  T
     SCC iter.                  ...        0 min,  0.174 sec
     gradient                   ...        0 min,  0.132 sec
 * total energy  :  -153.3936702 Eh     change       -0.9020895E-04 Eh
   gradient norm :     0.0046374 Eh/α   predicted    -0.6278440E-04 ( -30.40%)
   displ. norm   :     0.2739221 α      lambda       -0.1018396E-03
   maximum displ.:     0.1271972 α      in ANC's #5, #11, #4, ...

........................................................................
.............................. CYCLE   48 ..............................
........................................................................
   1   -155.2747204 -0.155275E+03  0.541E-02    3.04       0.0  T
   2   -155.2747218 -0.146207E-05  0.319E-02    3.04       1.0  T
   3   -155.2747103  0.114735E-04  0.130E-02    3.04       1.0  T
   4   -155.2747233 -0.130017E-04  0.122E-03    3.04       9.3  T
   5   -155.2747234 -0.390187E-07  0.672E-04    3.04      16.8  T
   6   -155.2747234 -0.657093E-08  0.374E-04    3.04      30.3  T
     SCC iter.                  ...        0 min,  0.178 sec
     gradient                   ...        0 min,  0.137 sec
 * total energy  :  -153.3937460 Eh     change       -0.7576188E-04 Eh
   gradient norm :     0.0039844 Eh/α   predicted    -0.5474573E-04 ( -27.74%)
   displ. norm   :     0.2301381 α      lambda       -0.7817170E-04
   maximum displ.:     0.1154948 α      in ANC's #5, #4, #11, ...

........................................................................
.............................. CYCLE   49 ..............................
........................................................................
   1   -155.2736701 -0.155274E+03  0.439E-02    3.04       0.0  T
   2   -155.2736719 -0.184517E-05  0.258E-02    3.04       1.0  T
   3   -155.2736671  0.481698E-05  0.868E-03    3.03       1.3  T
   4   -155.2736726 -0.543811E-05  0.157E-03    3.04       7.2  T
   5   -155.2736727 -0.146959E-06  0.528E-04    3.04      21.5  T
   6   -155.2736727 -0.606991E-08  0.297E-04    3.04      38.1  T
     SCC iter.                  ...        0 min,  0.181 sec
     gradient                   ...        0 min,  0.132 sec
 * total energy  :  -153.3938074 Eh     change       -0.6142605E-04 Eh
   gradient norm :     0.0028363 Eh/α   predicted    -0.4116074E-04 ( -32.99%)
   displ. norm   :     0.2239962 α      lambda       -0.8005071E-04
   maximum displ.:     0.1193954 α      in ANC's #5, #4, #2, ...

........................................................................
.............................. CYCLE   50 ..............................
........................................................................
   1   -155.2736645 -0.155274E+03  0.409E-02    3.03       0.0  T
   2   -155.2736669 -0.240339E-05  0.240E-02    3.03       1.0  T
   3   -155.2736648  0.208774E-05  0.615E-03    3.03       1.8  T
   4   -155.2736671 -0.232743E-05  0.180E-03    3.03       6.3  T
   5   -155.2736674 -0.225851E-06  0.502E-04    3.03      22.6  T
   6   -155.2736674 -0.815936E-08  0.264E-04    3.03      42.8  T
     SCC iter.                  ...        0 min,  0.180 sec
     gradient                   ...        0 min,  0.156 sec
 * total energy  :  -153.3938721 Eh     change       -0.6472703E-04 Eh
   gradient norm :     0.0029256 Eh/α   predicted    -0.4203382E-04 ( -35.06%)
   displ. norm   :     0.2724137 α      lambda       -0.9549038E-04
   maximum displ.:     0.1488484 α      in ANC's #5, #4, #2, ...

........................................................................
.............................. CYCLE   51 ..............................
........................................................................
   1   -155.2741724 -0.155274E+03  0.475E-02    3.03       0.0  T
   2   -155.2741746 -0.220577E-05  0.279E-02    3.03       1.0  T
   3   -155.2741730  0.163816E-05  0.523E-03    3.04       2.2  T
   4   -155.2741748 -0.186738E-05  0.163E-03    3.04       7.0  T
   5   -155.2741750 -0.185656E-06  0.545E-04    3.04      20.8  T
   6   -155.2741750 -0.790692E-08  0.293E-04    3.04      38.7  T
     SCC iter.                  ...        0 min,  0.176 sec
     gradient                   ...        0 min,  0.134 sec
 * total energy  :  -153.3939514 Eh     change       -0.7927963E-04 Eh
   gradient norm :     0.0044813 Eh/α   predicted    -0.5129310E-04 ( -35.30%)
   displ. norm   :     0.3573582 α      lambda       -0.1238045E-03
   maximum displ.:     0.1971394 α      in ANC's #5, #4, #2, ...

........................................................................
.............................. CYCLE   52 ..............................
........................................................................
   1   -155.2746938 -0.155275E+03  0.602E-02    3.04       0.0  T
   2   -155.2746953 -0.149188E-05  0.354E-02    3.04       1.0  T
   3   -155.2746935  0.172662E-05  0.501E-03    3.04       2.3  T
   4   -155.2746956 -0.210560E-05  0.142E-03    3.04       8.0  T
   5   -155.2746957 -0.105465E-06  0.656E-04    3.04      17.3  T
   6   -155.2746957 -0.662067E-08  0.340E-04    3.04      33.3  T
     SCC iter.                  ...        0 min,  0.179 sec
     gradient                   ...        0 min,  0.119 sec
 * total energy  :  -153.3940574 Eh     change       -0.1059647E-03 Eh
   gradient norm :     0.0057312 Eh/α   predicted    -0.6981817E-04 ( -34.11%)
   displ. norm   :     0.4692922 α      lambda       -0.1657965E-03
   maximum displ.:     0.2605035 α      in ANC's #5, #4, #2, ...

........................................................................
.............................. CYCLE   53 ..............................
........................................................................
   1   -155.2747167 -0.155275E+03  0.775E-02    3.04       0.0  T
   2   -155.2747180 -0.128457E-05  0.455E-02    3.04       1.0  T
   3   -155.2747160  0.204498E-05  0.552E-03    3.04       2.1  T
   4   -155.2747187 -0.272423E-05  0.139E-03    3.04       8.1  T
   5   -155.2747187 -0.235557E-07  0.826E-04    3.04      13.7  T
   6   -155.2747187 -0.166897E-07  0.315E-04    3.04      35.9  T
     SCC iter.                  ...        0 min,  0.176 sec
     gradient                   ...        0 min,  0.132 sec
 * total energy  :  -153.3942009 Eh     change       -0.1435617E-03 Eh
   gradient norm :     0.0057859 Eh/α   predicted    -0.1011838E-03 ( -29.52%)
   displ. norm   :     0.5609286 α      lambda       -0.2054292E-03
   maximum displ.:     0.3136649 α      in ANC's #5, #4, #2, ...

........................................................................
.............................. CYCLE   54 ..............................
........................................................................
   1   -155.2742958 -0.155274E+03  0.912E-02    3.05       0.0  T
   2   -155.2742982 -0.240069E-05  0.535E-02    3.05       1.0  T
   3   -155.2742958  0.236946E-05  0.629E-03    3.05       1.8  T
   4   -155.2742991 -0.330946E-05  0.179E-03    3.05       6.3  T
   5   -155.2742992 -0.769899E-07  0.103E-03    3.05      11.0  T
   6   -155.2742992 -0.146502E-07  0.483E-04    3.05      23.4  T
   7   -155.2742992 -0.867070E-08  0.175E-04    3.05      64.8  T
     SCC iter.                  ...        0 min,  0.210 sec
     gradient                   ...        0 min,  0.129 sec
 * total energy  :  -153.3943743 Eh     change       -0.1733624E-03 Eh
   gradient norm :     0.0047158 Eh/α   predicted    -0.1350346E-03 ( -22.11%)
   displ. norm   :     0.5932442 α      lambda       -0.2139507E-03
   maximum displ.:     0.3345563 α      in ANC's #5, #4, #2, ...

........................................................................
.............................. CYCLE   55 ..............................
........................................................................
   1   -155.2736795 -0.155274E+03  0.952E-02    3.06       0.0  T
   2   -155.2736835 -0.402466E-05  0.558E-02    3.06       1.0  T
   3   -155.2736812  0.229176E-05  0.651E-03    3.06       1.7  T
   4   -155.2736845 -0.324389E-05  0.211E-03    3.06       5.4  T
   5   -155.2736847 -0.190228E-06  0.107E-03    3.06      10.6  T
   6   -155.2736847 -0.105558E-07  0.563E-04    3.06      20.1  T
   7   -155.2736847 -0.903157E-08  0.190E-04    3.06      59.7  T
     SCC iter.                  ...        0 min,  0.207 sec
     gradient                   ...        0 min,  0.131 sec
 * total energy  :  -153.3945471 Eh     change       -0.1728341E-03 Eh
   gradient norm :     0.0042377 Eh/α   predicted    -0.1446430E-03 ( -16.31%)
   displ. norm   :     0.5412092 α      lambda       -0.1927070E-03
   maximum displ.:     0.3073836 α      in ANC's #5, #4, #2, ...

........................................................................
.............................. CYCLE   56 ..............................
........................................................................
   1   -155.2739497 -0.155274E+03  0.858E-02    3.06       0.0  T
   2   -155.2739535 -0.388150E-05  0.503E-02    3.07       1.0  T
   3   -155.2739520  0.156509E-05  0.553E-03    3.07       2.0  T
   4   -155.2739542 -0.220149E-05  0.210E-03    3.07       5.4  T
   5   -155.2739544 -0.234861E-06  0.935E-04    3.07      12.1  T
   6   -155.2739544 -0.532648E-08  0.522E-04    3.07      21.7  T
     SCC iter.                  ...        0 min,  0.182 sec
     gradient                   ...        0 min,  0.112 sec
 * total energy  :  -153.3946989 Eh     change       -0.1517296E-03 Eh
   gradient norm :     0.0054019 Eh/α   predicted    -0.1245790E-03 ( -17.89%)
   displ. norm   :     0.5460865 α      lambda       -0.1681594E-03
   maximum displ.:     0.3106014 α      in ANC's #5, #4, #2, ...

........................................................................
.............................. CYCLE   57 ..............................
........................................................................
   1   -155.2721596 -0.155272E+03  0.876E-02    3.07       0.0  T
   2   -155.2721616 -0.198868E-05  0.515E-02    3.07       1.0  T
   3   -155.2721566  0.496945E-05  0.859E-03    3.07       1.3  T
   4   -155.2721626 -0.595425E-05  0.182E-03    3.07       6.2  T
   5   -155.2721627 -0.855880E-07  0.945E-04    3.07      12.0  T
   6   -155.2721627 -0.149273E-07  0.422E-04    3.07      26.9  T
     SCC iter.                  ...        0 min,  0.179 sec
     gradient                   ...        0 min,  0.147 sec
 * total energy  :  -153.3948268 Eh     change       -0.1279074E-03 Eh
   gradient norm :     0.0070311 Eh/α   predicted    -0.1091542E-03 ( -14.66%)
   displ. norm   :     0.4383817 α      lambda       -0.2767605E-03
   maximum displ.:     0.2243920 α      in ANC's #5, #4, #3, ...

........................................................................
.............................. CYCLE   58 ..............................
........................................................................
   1   -155.2836591 -0.155284E+03  0.805E-02    3.06       0.0  T
   2   -155.2836639 -0.472207E-05  0.472E-02    3.07       1.0  T
   3   -155.2836539  0.994926E-05  0.124E-02    3.06       1.0  T
   4   -155.2836655 -0.115797E-04  0.257E-03    3.06       4.4  T
   5   -155.2836658 -0.319593E-06  0.135E-03    3.07       8.4  T
   6   -155.2836659 -0.399889E-07  0.547E-04    3.07      20.7  T
   7   -155.2836659 -0.542278E-08  0.220E-04    3.07      51.4  T
     SCC iter.                  ...        0 min,  0.203 sec
     gradient                   ...        0 min,  0.132 sec
 * total energy  :  -153.3947628 Eh     change        0.6395894E-04 Eh
   gradient norm :     0.0119942 Eh/α   predicted    -0.1649749E-03 (-357.94%)
   displ. norm   :     0.2853241 α      lambda       -0.4013210E-03
   maximum displ.:     0.1497041 α      in ANC's #5, #4, #2, ...

........................................................................
.............................. CYCLE   59 ..............................
........................................................................
   1   -155.2739785 -0.155274E+03  0.579E-02    3.06       0.0  T
   2   -155.2739833 -0.480065E-05  0.339E-02    3.06       1.0  T
   3   -155.2739720  0.112787E-04  0.136E-02    3.06       1.0  T
   4   -155.2739848 -0.127557E-04  0.232E-03    3.06       4.9  T
   5   -155.2739851 -0.354100E-06  0.863E-04    3.06      13.1  T
   6   -155.2739851 -0.212850E-07  0.464E-04    3.06      24.4  T
     SCC iter.                  ...        0 min,  0.184 sec
     gradient                   ...        0 min,  0.122 sec
 * total energy  :  -153.3949895 Eh     change       -0.2266342E-03 Eh
   gradient norm :     0.0045935 Eh/α   predicted    -0.2170004E-03 (  -4.25%)
   displ. norm   :     0.2948063 α      lambda       -0.6390280E-04
   maximum displ.:     0.1682301 α      in ANC's #5, #4, #3, ...

........................................................................
.............................. CYCLE   60 ..............................
........................................................................
   1   -155.2722307 -0.155272E+03  0.478E-02    3.06       0.0  T
   2   -155.2722319 -0.124930E-05  0.281E-02    3.06       1.0  T
   3   -155.2722308  0.118122E-05  0.432E-03    3.06       2.6  T
   4   -155.2722321 -0.135186E-05  0.141E-03    3.06       8.0  T
   5   -155.2722322 -0.122899E-06  0.510E-04    3.06      22.2  T
   6   -155.2722322 -0.314171E-08  0.290E-04    3.06      39.1  T
     SCC iter.                  ...        0 min,  0.178 sec
     gradient                   ...        0 min,  0.157 sec
 * total energy  :  -153.3950409 Eh     change       -0.5142057E-04 Eh
   gradient norm :     0.0042643 Eh/α   predicted    -0.3473552E-04 ( -32.45%)
   displ. norm   :     0.2996509 α      lambda       -0.1454889E-03
   maximum displ.:     0.1581823 α      in ANC's #5, #4, #3, ...

........................................................................
.............................. CYCLE   61 ..............................
........................................................................
   1   -155.2736541 -0.155274E+03  0.525E-02    3.06       0.0  T
   2   -155.2736602 -0.616416E-05  0.307E-02    3.06       1.0  T
   3   -155.2736583  0.188187E-05  0.681E-03    3.06       1.7  T
   4   -155.2736601 -0.178374E-05  0.288E-03    3.06       3.9  T
   5   -155.2736608 -0.667156E-06  0.715E-04    3.06      15.8  T
   6   -155.2736608 -0.164459E-07  0.368E-04    3.06      30.8  T
     SCC iter.                  ...        0 min,  0.175 sec
     gradient                   ...        0 min,  0.143 sec
 * total energy  :  -153.3951283 Eh     change       -0.8743935E-04 Eh
   gradient norm :     0.0056808 Eh/α   predicted    -0.7928108E-04 (  -9.33%)
   displ. norm   :     0.4177687 α      lambda       -0.7941559E-04
   maximum displ.:     0.2390112 α      in ANC's #5, #4, #3, ...

........................................................................
.............................. CYCLE   62 ..............................
........................................................................
   1   -155.2730018 -0.155273E+03  0.681E-02    3.06       0.0  T
   2   -155.2730028 -0.100526E-05  0.400E-02    3.06       1.0  T
   3   -155.2730017  0.111185E-05  0.430E-03    3.06       2.6  T
   4   -155.2730032 -0.152497E-05  0.120E-03    3.06       9.5  T
   5   -155.2730033 -0.297889E-07  0.645E-04    3.06      17.6  T
   6   -155.2730033 -0.553865E-08  0.289E-04    3.06      39.2  T
     SCC iter.                  ...        0 min,  0.176 sec
     gradient                   ...        0 min,  0.143 sec
 * total energy  :  -153.3951879 Eh     change       -0.5957734E-04 Eh
   gradient norm :     0.0054994 Eh/α   predicted    -0.4664938E-04 ( -21.70%)
   displ. norm   :     0.3475854 α      lambda       -0.1177613E-03
   maximum displ.:     0.1935632 α      in ANC's #5, #4, #3, ...

........................................................................
.............................. CYCLE   63 ..............................
........................................................................
   1   -155.2760579 -0.155276E+03  0.608E-02    3.06       0.0  T
   2   -155.2760593 -0.133792E-05  0.357E-02    3.06       1.0  T
   3   -155.2760577  0.152990E-05  0.479E-03    3.06       2.4  T
   4   -155.2760596 -0.188562E-05  0.129E-03    3.06       8.8  T
   5   -155.2760597 -0.786664E-07  0.650E-04    3.06      17.4  T
   6   -155.2760597 -0.602091E-08  0.325E-04    3.06      34.8  T
     SCC iter.                  ...        0 min,  0.176 sec
     gradient                   ...        0 min,  0.133 sec
 * total energy  :  -153.3952675 Eh     change       -0.7959688E-04 Eh
   gradient norm :     0.0033571 Eh/α   predicted    -0.6599485E-04 ( -17.09%)
   displ. norm   :     0.4858589 α      lambda       -0.9931841E-04
   maximum displ.:     0.2769485 α      in ANC's #5, #4, #3, ...

........................................................................
.............................. CYCLE   64 ..............................
........................................................................
[...]
       140                         -0.2396597              -6.5215
       141                         -0.2334670              -6.3530
       142                         -0.2322577              -6.3201
       143                         -0.2200493              -5.9878
       144                         -0.2184595              -5.9446
       ...                                ...                  ...
       234                          0.7051192              19.1873
      -------------------------------------------------------------
                  HL-Gap            0.1125878 Eh            3.0637 eV
             Fermi-level           -0.3385239 Eh           -9.2117 eV

     #   Z          covCN         q      C6AA      α(0)
     1   6 C        2.976    -0.022    28.560     8.766
     2   6 C        3.336     0.486    17.294     6.587
     3   9 F        0.792    -0.201    11.248     3.962
     4   9 F        0.791    -0.205    11.282     3.968
     5   9 F        0.791    -0.223    11.470     4.001
     6   6 C        2.923    -0.019    28.472     8.750
     7   6 C        2.920    -0.020    28.514     8.757
     8   6 C        2.919    -0.015    28.392     8.738
     9   6 C        2.928    -0.022    28.545     8.762
    10   6 C        2.972     0.028    27.364     8.581
    11   6 C        3.832     0.049    19.734     6.320
    12   6 C        3.827     0.047    19.774     6.327
    13   6 C        2.971     0.027    27.390     8.585
    14   6 C        2.976    -0.025    28.622     8.776
    15   6 C        3.336     0.485    17.306     6.589
    16   9 F        0.791    -0.205    11.287     3.969
    17   9 F        0.792    -0.202    11.252     3.962
    18   9 F        0.791    -0.227    11.513     4.008
    19   6 C        2.924    -0.020    28.512     8.757
    20   6 C        2.920    -0.021    28.542     8.761
    21   6 C        2.919    -0.015    28.388     8.737
    22   6 C        2.926    -0.026    28.656     8.779
    23   7 N        2.764    -0.105    23.295     7.168
    24   6 C        2.758     0.265    22.532     7.773
    25   6 C        3.074     0.077    26.215     8.395
    26   6 C        3.024     0.006    27.861     8.658
    27   6 C        3.754    -0.117    22.794     6.808
    28   6 C        3.080    -0.019    28.395     8.736
    29   6 C        2.912    -0.031    28.767     8.795
    30   6 C        2.920    -0.037    28.909     8.817
    31   6 C        2.928    -0.031    28.774     8.797
    32   6 C        2.907    -0.053    29.314     8.878
    33   6 C        3.087     0.131    25.053     8.205
    34   8 O        1.718    -0.241    17.996     5.728
    35   8 O        0.860    -0.431    22.300     6.331
    36   6 C        3.758     0.086    19.209     6.249
    37   6 C        2.688     0.360    20.884     7.479
    38   8 O        1.659    -0.361    20.105     6.053
    39   8 O        0.856    -0.389    21.461     6.211
    40   7 N        2.766    -0.115    23.509     7.201
    41   6 C        2.757     0.264    22.556     7.777
    42   6 C        3.087     0.077    26.182     8.388
    43   6 C        3.025     0.002    27.958     8.673
    44   6 C        3.754    -0.114    22.743     6.800
    45   6 C        3.084    -0.020    28.421     8.739
    46   6 C        3.096     0.130    25.041     8.201
    47   6 C        2.907    -0.052    29.279     8.873
    48   6 C        2.927    -0.031    28.784     8.798
    49   6 C        2.921    -0.037    28.930     8.820
    50   6 C        2.912    -0.032    28.798     8.800
    51   8 O        1.719    -0.222    17.678     5.677
    52   8 O        0.860    -0.426    22.204     6.318
    53   1 H        0.926     0.068     2.106     2.270
    54   1 H        0.926     0.058     2.225     2.333
    55   1 H        0.926     0.056     2.243     2.342
    56   1 H        0.926     0.051     2.310     2.377
    57   1 H        0.924     0.063     2.162     2.300
    58   1 H        0.924     0.067     2.117     2.275
    59   1 H        0.926     0.065     2.139     2.287
    60   1 H        0.926     0.055     2.257     2.349
    61   1 H        0.926     0.056     2.241     2.341
    62   1 H        0.926     0.073     2.048     2.238
    63   1 H        0.925     0.084     1.934     2.175
    64   1 H        0.925     0.059     2.213     2.326
    65   1 H        0.925     0.060     2.199     2.319
    66   1 H        0.926     0.047     2.360     2.402
    67   1 H        0.926     0.042     2.416     2.431
    68   1 H        0.926     0.044     2.399     2.422
    69   1 H        0.926     0.046     2.370     2.407
    70   1 H        0.924     0.103     1.761     2.075
    71   1 H        0.804     0.343     0.605     1.222
    72   1 H        0.925     0.077     2.011     2.218
    73   1 H        0.925     0.055     2.262     2.352
    74   1 H        0.925     0.063     2.167     2.302
    75   1 H        0.926     0.048     2.349     2.397
    76   1 H        0.926     0.044     2.402     2.424
    77   1 H        0.926     0.041     2.433     2.439
    78   1 H        0.926     0.045     2.388     2.417

 Mol. C6AA /au·bohr⁶  :      82591.873732
 Mol. C8AA /au·bohr⁸  :    2012923.431233
 Mol. α(0) /au        :        446.026406


Wiberg/Mayer (AO) data.
largest (>0.10) Wiberg bond orders for each atom

 ---------------------------------------------------------------------------
     #   Z sym  total        # sym  WBO       # sym  WBO       # sym  WBO
 ---------------------------------------------------------------------------
     1   6 C    3.970 --     6 C    1.411    10 C    1.387     2 C    0.952
                             8 C    0.104
     2   6 C    3.821 --     3 F    0.955     1 C    0.952     4 F    0.946
                             5 F    0.929
     3   9 F    1.077 --     2 C    0.955
     4   9 F    1.076 --     2 C    0.946
     5   9 F    1.056 --     2 C    0.929
     6   6 C    3.987 --     7 C    1.445     1 C    1.411    53 H    0.966
                             9 C    0.109
     7   6 C    3.989 --     6 C    1.445     8 C    1.431    54 H    0.969
                            10 C    0.108
     8   6 C    3.990 --     9 C    1.451     7 C    1.431    55 H    0.969
                             1 C    0.104
     9   6 C    3.990 --     8 C    1.451    10 C    1.406    56 H    0.966
                             6 C    0.109
    10   6 C    3.986 --     9 C    1.406     1 C    1.387    11 C    0.996
                             7 C    0.108
    11   6 C    3.966 --    10 C    0.996    40 N    0.958    57 H    0.952
                            12 C    0.951
    12   6 C    3.965 --    13 C    0.994    23 N    0.957    58 H    0.951
                            11 C    0.951
    13   6 C    3.986 --    22 C    1.408    14 C    1.384    12 C    0.994
                            20 C    0.108
    14   6 C    3.968 --    19 C    1.412    13 C    1.384    15 C    0.953
                            21 C    0.105
    15   6 C    3.819 --    17 F    0.955    14 C    0.953    16 F    0.946
                            18 F    0.926
    16   9 F    1.076 --    15 C    0.946
    17   9 F    1.077 --    15 C    0.955
    18   9 F    1.052 --    15 C    0.926
    19   6 C    3.987 --    20 C    1.444    14 C    1.412    59 H    0.966
                            22 C    0.109
    20   6 C    3.989 --    19 C    1.444    21 C    1.433    60 H    0.969
                            13 C    0.108
    21   6 C    3.990 --    22 C    1.448    20 C    1.433    61 H    0.969
                            14 C    0.105
    22   6 C    3.986 --    21 C    1.448    13 C    1.408    62 H    0.958
                            19 C    0.109
    23   7 N    3.460 --    24 C    1.193    36 C    0.995    12 C    0.957
                            35 O    0.184
    24   6 C    3.955 --    35 O    1.636    23 N    1.193    25 C    1.036
    25   6 C    3.901 --    26 C    1.549    34 O    1.041    24 C    1.036
    26   6 C    3.982 --    25 C    1.549    28 C    1.186    27 C    1.042
    27   6 C    3.989 --    26 C    1.042    63 H    0.973    64 H    0.965
                            65 H    0.964
    28   6 C    3.985 --    29 C    1.330    33 C    1.274    26 C    1.186
    29   6 C    3.983 --    30 C    1.503    28 C    1.330    66 H    0.968
                            32 C    0.115
    30   6 C    3.990 --    29 C    1.503    31 C    1.380    67 H    0.971
    31   6 C    3.980 --    32 C    1.482    30 C    1.380    68 H    0.971
    32   6 C    3.987 --    31 C    1.482    33 C    1.353    69 H    0.967
                            29 C    0.115
    33   6 C    3.918 --    32 C    1.353    28 C    1.274    34 O    1.078
    34   8 O    2.369 --    33 C    1.078    25 C    1.041
    35   8 O    1.996 --    24 C    1.636    23 N    0.184
    36   6 C    3.963 --    23 N    0.995    40 N    0.977    70 H    0.930
                            37 C    0.904
    37   6 C    3.915 --    39 O    1.773    38 O    1.157    36 C    0.904
    38   8 O    2.220 --    37 C    1.157    71 H    0.856    39 O    0.178
    39   8 O    2.063 --    37 C    1.773    38 O    0.178
    40   7 N    3.442 --    41 C    1.181    36 C    0.977    11 C    0.958
                            52 O    0.179
    41   6 C    3.953 --    52 O    1.649    40 N    1.181    42 C    1.029
    42   6 C    3.907 --    43 C    1.546    51 O    1.054    41 C    1.029
    43   6 C    3.982 --    42 C    1.546    45 C    1.188    44 C    1.041
    44   6 C    3.991 --    43 C    1.041    72 H    0.976    73 H    0.969
                            74 H    0.962
    45   6 C    3.985 --    50 C    1.330    46 C    1.272    43 C    1.188
    46   6 C    3.921 --    47 C    1.352    45 C    1.272    51 O    1.086
    47   6 C    3.987 --    48 C    1.483    46 C    1.352    75 H    0.967
                            50 C    0.115
    48   6 C    3.980 --    47 C    1.483    49 C    1.379    76 H    0.971
    49   6 C    3.991 --    50 C    1.503    48 C    1.379    77 H    0.971
    50   6 C    3.984 --    49 C    1.503    45 C    1.330    78 H    0.968
                            47 C    0.115
    51   8 O    2.381 --    46 C    1.086    42 C    1.054
    52   8 O    2.003 --    41 C    1.649    40 N    0.179
    53   1 H    0.995 --     6 C    0.966
    54   1 H    0.996 --     7 C    0.969
    55   1 H    0.996 --     8 C    0.969
    56   1 H    0.997 --     9 C    0.966
    57   1 H    0.995 --    11 C    0.952
    58   1 H    0.993 --    12 C    0.951
    59   1 H    0.995 --    19 C    0.966
    60   1 H    0.996 --    20 C    0.969
    61   1 H    0.996 --    21 C    0.969
    62   1 H    0.994 --    22 C    0.958
    63   1 H    0.993 --    27 C    0.973
    64   1 H    0.996 --    27 C    0.965
    65   1 H    0.996 --    27 C    0.964
    66   1 H    0.998 --    29 C    0.968
    67   1 H    0.998 --    30 C    0.971
    68   1 H    0.998 --    31 C    0.971
    69   1 H    0.997 --    32 C    0.967
    70   1 H    0.988 --    36 C    0.930
    71   1 H    0.882 --    38 O    0.856
    72   1 H    0.994 --    44 C    0.976
    73   1 H    0.997 --    44 C    0.969
    74   1 H    0.996 --    44 C    0.962
    75   1 H    0.997 --    47 C    0.967
    76   1 H    0.998 --    48 C    0.971
    77   1 H    0.998 --    49 C    0.971
    78   1 H    0.998 --    50 C    0.968
 ---------------------------------------------------------------------------

Topologies differ in total number of bonds
Writing topology from bond orders to xtbtopo.mol

molecular dipole:
                 x           y           z       tot (Debye)
 q only:       -0.366      -2.600      -1.088
   full:       -0.398      -3.021      -1.361       8.483
molecular quadrupole (traceless):
                xx          xy          yy          xz          yz          zz
 q only:       14.550      -5.636       0.598       6.968       9.088     -15.148
  q+dip:       13.157      -4.453       1.664       1.589      10.260     -14.821
   full:       14.193      -5.158      -0.369       0.944       8.783     -13.825

           -------------------------------------------------
          |                Geometry Summary                 |
           -------------------------------------------------

      molecular mass/u    :      720.6146786
   center of mass at/Å    :        0.0318124       0.4934106       0.1631101
  moments of inertia/u·Å² :        0.6562535E+04   0.9935777E+04   0.1410606E+05
rotational constants/cm⁻¹ :        0.2568768E-02   0.1696660E-02   0.1195064E-02

 * 77 selected distances

     #   Z          #   Z                                           value/Å
     2   6 C        3   9 F                                       1.3395772
     2   6 C        4   9 F                                       1.3444794
     2   6 C        5   9 F                                       1.3534437
     1   6 C        6   6 C                                       1.3896577
     6   6 C        7   6 C                                       1.3811229
     7   6 C        8   6 C                                       1.3837114
     8   6 C        9   6 C                                       1.3805125
     1   6 C       10   6 C                                       1.3943395
     9   6 C       10   6 C                                       1.3904871
    11   6 C       12   6 C                                       1.5443670 (max)
    13   6 C       14   6 C                                       1.3958040
    15   6 C       16   9 F                                       1.3445030
    15   6 C       17   9 F                                       1.3395975
    15   6 C       18   9 F                                       1.3556609
    14   6 C       19   6 C                                       1.3897874
    19   6 C       20   6 C                                       1.3811839
    20   6 C       21   6 C                                       1.3833835
    13   6 C       22   6 C                                       1.3902971
    21   6 C       22   6 C                                       1.3812622
    12   6 C       23   7 N                                       1.4599772
    23   7 N       24   6 C                                       1.3626819
    25   6 C       26   6 C                                       1.3717226
    26   6 C       27   6 C                                       1.4828657
    26   6 C       28   6 C                                       1.4331102
    28   6 C       29   6 C                                       1.3944539
    29   6 C       30   6 C                                       1.3773709
    30   6 C       31   6 C                                       1.3973349
    31   6 C       32   6 C                                       1.3805260
    28   6 C       33   6 C                                       1.4069215
    32   6 C       33   6 C                                       1.3862834
    25   6 C       34   8 O                                       1.3769169
    33   6 C       34   8 O                                       1.3514662
    24   6 C       35   8 O                                       1.2190448
    23   7 N       36   6 C                                       1.4377365
    37   6 C       38   8 O                                       1.3274964
    37   6 C       39   8 O                                       1.1989240
    11   6 C       40   7 N                                       1.4594134
    36   6 C       40   7 N                                       1.4441697
    40   7 N       41   6 C                                       1.3673501
    42   6 C       43   6 C                                       1.3712208
    43   6 C       44   6 C                                       1.4831158
    43   6 C       45   6 C                                       1.4324946
    45   6 C       46   6 C                                       1.4078609
    46   6 C       47   6 C                                       1.3864191
    47   6 C       48   6 C                                       1.3802682
    48   6 C       49   6 C                                       1.3972737
    45   6 C       50   6 C                                       1.3944154
    49   6 C       50   6 C                                       1.3770924
    42   6 C       51   8 O                                       1.3716159
    46   6 C       51   8 O                                       1.3492295
    41   6 C       52   8 O                                       1.2185103
     6   6 C       53   1 H                                       1.0787578
     7   6 C       54   1 H                                       1.0787027
     8   6 C       55   1 H                                       1.0793578
     9   6 C       56   1 H                                       1.0799986
    11   6 C       57   1 H                                       1.0955649
    12   6 C       58   1 H                                       1.0951328
    19   6 C       59   1 H                                       1.0788191
    20   6 C       60   1 H                                       1.0788905
    21   6 C       61   1 H                                       1.0792802
    22   6 C       62   1 H                                       1.0792102
    27   6 C       63   1 H                                       1.0849159
    27   6 C       64   1 H                                       1.0893674
    27   6 C       65   1 H                                       1.0894483
    29   6 C       66   1 H                                       1.0788707
    30   6 C       67   1 H                                       1.0797240
    31   6 C       68   1 H                                       1.0795131
    32   6 C       69   1 H                                       1.0789218
    36   6 C       70   1 H                                       1.0957824
    38   8 O       71   1 H                                       0.9720074 (min)
    44   6 C       72   1 H                                       1.0854712
    44   6 C       73   1 H                                       1.0893230
    44   6 C       74   1 H                                       1.0894833
    47   6 C       75   1 H                                       1.0783965
    48   6 C       76   1 H                                       1.0794947
    49   6 C       77   1 H                                       1.0796905
    50   6 C       78   1 H                                       1.0789268

 * 6 distinct bonds (by element types)

   Z      Z             #   av. dist./Å        max./Å        min./Å
   1 H    6 C          25     1.0832418     1.0957824     1.0783965
   6 C    6 C          31     1.4015054     1.5443670     1.3712208
   6 C    7 N           6     1.4218881     1.4599772     1.3626819
   1 H    8 O           1     0.9720074     0.9720074     0.9720074
   6 C    8 O           8     1.3016505     1.3769169     1.1989240
   6 C    9 F           6     1.3462103     1.3556609     1.3395772


optimized geometry written to: xtbopt.xyz


           -------------------------------------------------
          | TOTAL ENERGY             -153.395958680756 Eh   |
          | GRADIENT NORM               0.000496361673 Eh/α |
          | HOMO-LUMO GAP               3.063670897255 eV   |
           -------------------------------------------------

------------------------------------------------------------------------
 * finished run on 2022/03/17 at 02:04:14.867     
------------------------------------------------------------------------
 total:
 * wall-time:     0 d,  0 h,  0 min, 48.721 sec
 *  cpu-time:     0 d,  0 h, 15 min, 53.696 sec
 * ratio c/w:    19.575 speedup
 SCF:
 * wall-time:     0 d,  0 h,  0 min,  0.633 sec
 *  cpu-time:     0 d,  0 h,  0 min,  8.995 sec
 * ratio c/w:    14.219 speedup
 ANC optimizer:
 * wall-time:     0 d,  0 h,  0 min, 47.951 sec
 *  cpu-time:     0 d,  0 h, 15 min, 40.557 sec
 * ratio c/w:    19.615 speedup

