      -----------------------------------------------------------      
     |                   =====================                   |     
     |                           x T B                           |     
     |                   =====================                   |     
     |                         S. Grimme                         |     
     |          Mulliken Center for Theoretical Chemistry        |     
     |                    University of Bonn                     |     
      -----------------------------------------------------------      

   * xtb version 6.3.3 (4ae9cef) compiled by 'conda@95abc7406d43' on 2020-10-14

   xtb is free software: you can redistribute it and/or modify it under
   the terms of the GNU Lesser General Public License as published by
   the Free Software Foundation, either version 3 of the License, or
   (at your option) any later version.
   
   xtb is distributed in the hope that it will be useful,
   but WITHOUT ANY WARRANTY; without even the implied warranty of
   MERCHANTABILITY or FITNESS FOR A PARTICULAR PURPOSE.  See the
   GNU Lesser General Public License for more details.
   
   Cite this work as:
   * C. Bannwarth, E. Caldeweyher, S. Ehlert, A. Hansen, P. Pracht,
     J. Seibert, S. Spicher, S. Grimme, WIREs Comput. Mol. Sci., 2020,
     e01493. DOI: 10.1002/wcms.1493
   
   for GFN2-xTB:
   * S. Grimme, C. Bannwarth, P. Shushkov, J. Chem. Theory Comput., 2017,
     13, 1989-2009. DOI: 10.1021/acs.jctc.7b00118
   for GFN1-xTB:
   * C. Bannwarth, S. Ehlert and S. Grimme., J. Chem. Theory Comput., 2019,
     15, 1652-1671. DOI: 10.1021/acs.jctc.8b01176
   for GFN0-xTB:
   * P. Pracht, E. Caldeweyher, S. Ehlert, S. Grimme, ChemRxiv, 2019, preprint.
     DOI: 10.26434/chemrxiv.8326202.v1
   for GFN-FF:
   * S. Spicher and S. Grimme, Angew. Chem. Int. Ed., 2020, 59, 15665-15673.
     DOI: 10.1002/anie.202004239
   
   for DFT-D4:
   * E. Caldeweyher, C. Bannwarth and S. Grimme, J. Chem. Phys., 2017,
     147, 034112. DOI: 10.1063/1.4993215
   * E. Caldeweyher, S. Ehlert, A. Hansen, H. Neugebauer, S. Spicher,
     C. Bannwarth and S. Grimme, J. Chem. Phys., 2019, 150, 154122.
     DOI: 10.1063/1.5090222
   * E. Caldeweyher, J.-M. Mewes, S. Ehlert and S. Grimme, Phys. Chem. Chem. Phys.
     2020, 22, 8499-8512. DOI: 10.1039/D0CP00502A
   
   for sTDA-xTB:
   * S. Grimme and C. Bannwarth, J. Chem. Phys., 2016, 145, 054103.
     DOI: 10.1063/1.4959605
   
   in the mass-spec context:
   * V. Asgeirsson, C. Bauer and S. Grimme, Chem. Sci., 2017, 8, 4879.
     DOI: 10.1039/c7sc00601b
   * J. Koopman and S. Grimme, ACS Omega 2019, 4, 12, 15120-15133.
     DOI: 10.1021/acsomega.9b02011
   
   for metadynamics refer to:
   * S. Grimme, J. Chem. Theory Comput., 2019, 155, 2847-2862
     DOI: 10.1021/acs.jctc.9b00143
   
   with help from (in alphabetical order)
   C. Bannwarth, F. Bohle, G. Brandenburg, E. Caldeweyher, M. Checinski,
   S. Dohm, S. Ehlert, S. Ehrlich, F. März, H. Neugebauer, J. Pisarek,
   P. Pracht, P. Shushkov, and S. Spicher.
   
 * started run on 2022/03/16 at 23:24:29.028     

           -------------------------------------------------
          |                Calculation Setup                |
           -------------------------------------------------

          program call               : xtb acid_288.xyz --opt --chrg 0 --uhf 0 --gfn 2
          coordinate file            : acid_288.xyz
          omp threads                :                    64
          number of atoms            :                    60
          number of electrons        :                   190
          charge                     :                     0
          spin                       :                   0.0
          first test random number   :      0.89103451884715

   ID    Z sym.   atoms
    1    8 O      1, 13, 14, 24
    2    6 C      2-7, 9, 11, 12, 16-19, 21-23, 25-38
    3   35 Br     8, 20
    4    7 N      10, 15
    5    1 H      39-60

           -------------------------------------------------
          |                 G F N 2 - x T B                 |
           -------------------------------------------------

        Reference                      10.1021/acs.jctc.8b01176
      * Hamiltonian:
        H0-scaling (s, p, d)           1.850000    2.230000    2.230000
        zeta-weighting                 0.500000
      * Dispersion:
        s8                             2.700000
        a1                             0.520000
        a2                             5.000000
        s9                             5.000000
      * Repulsion:
        kExp                           1.500000    1.000000
        rExp                           1.000000
      * Coulomb:
        alpha                          2.000000
        third order                    shell-resolved
        anisotropic                    true
        a3                             3.000000
        a5                             4.000000
        cn-shift                       1.200000
        cn-exp                         4.000000
        max-rad                        5.000000


          ...................................................
          :                      SETUP                      :
          :.................................................:
          :  # basis functions                 186          :
          :  # atomic orbitals                 184          :
          :  # shells                          100          :
          :  # electrons                       190          :
          :  max. iterations                   250          :
          :  Hamiltonian                  GFN2-xTB          :
          :  restarted?                      false          :
          :  GBSA solvation                  false          :
          :  PC potential                    false          :
          :  electronic temp.          300.0000000     K    :
          :  accuracy                    1.0000000          :
          :  -> integral cutoff          0.2500000E+02      :
          :  -> integral neglect         0.1000000E-07      :
          :  -> SCF convergence          0.1000000E-05 Eh   :
          :  -> wf. convergence          0.1000000E-03 e    :
          :  Broyden damping             0.4000000          :
          ...................................................

 iter      E             dE          RMSdq      gap      omega  full diag
   1   -107.0033030 -0.107003E+03  0.485E+00    3.25       0.0  T
   2   -107.1568815 -0.153578E+00  0.292E+00    3.07       1.0  T
   3   -107.1476332  0.924824E-02  0.139E+00    3.47       1.0  T
   4   -107.1824410 -0.348078E-01  0.427E-01    3.08       1.0  T
   5   -107.1874234 -0.498245E-02  0.251E-01    2.99       1.0  T
   6   -107.1883038 -0.880402E-03  0.123E-01    3.06       1.0  T
   7   -107.1884771 -0.173246E-03  0.858E-02    3.03       1.0  T
   8   -107.1885093 -0.322798E-04  0.539E-02    3.04       1.0  T
   9   -107.1885450 -0.357003E-04  0.222E-02    3.04       1.0  T
  10   -107.1885589 -0.139011E-04  0.985E-03    3.04       1.3  T
  11   -107.1885595 -0.553499E-06  0.473E-03    3.04       2.7  T
  12   -107.1885598 -0.321016E-06  0.216E-03    3.04       6.0  T
  13   -107.1885599 -0.408935E-07  0.135E-03    3.04       9.6  T
  14   -107.1885599 -0.440720E-08  0.861E-04    3.04      15.0  T
  15   -107.1885599 -0.129710E-07  0.404E-04    3.04      31.9  T

   *** convergence criteria satisfied after 15 iterations ***

         #    Occupation            Energy/Eh            Energy/eV
      -------------------------------------------------------------
         1        2.0000           -0.8456842             -23.0122
       ...           ...                  ...                  ...
        89        2.0000           -0.4147810             -11.2868
        90        2.0000           -0.4142366             -11.2720
        91        2.0000           -0.4103744             -11.1669
        92        2.0000           -0.4094049             -11.1405
        93        2.0000           -0.4085876             -11.1182
        94        2.0000           -0.4070003             -11.0750
        95        2.0000           -0.4039024             -10.9907 (HOMO)
        96                         -0.2922592              -7.9528 (LUMO)
        97                         -0.2774333              -7.5493
        98                         -0.2649008              -7.2083
        99                         -0.2608955              -7.0993
       100                         -0.2584088              -7.0317
       ...                                ...                  ...
       184                          0.6165258              16.7765
      -------------------------------------------------------------
                  HL-Gap            0.1116432 Eh            3.0380 eV
             Fermi-level           -0.3480808 Eh           -9.4718 eV

 SCC (total)                   0 d,  0 h,  0 min,  0.534 sec
 SCC setup                      ...        0 min,  0.040 sec (  7.436%)
 Dispersion                     ...        0 min,  0.012 sec (  2.258%)
 classical contributions        ...        0 min,  0.015 sec (  2.821%)
 integral evaluation            ...        0 min,  0.092 sec ( 17.228%)
 iterations                     ...        0 min,  0.235 sec ( 44.094%)
 molecular gradient             ...        0 min,  0.123 sec ( 22.986%)
 printout                       ...        0 min,  0.017 sec (  3.161%)

         :::::::::::::::::::::::::::::::::::::::::::::::::::::
         ::                     SUMMARY                     ::
         :::::::::::::::::::::::::::::::::::::::::::::::::::::
         :: total energy            -105.753537264690 Eh    ::
         :: gradient norm              0.090203447816 Eh/a0 ::
         :: HOMO-LUMO gap              3.037965354066 eV    ::
         ::.................................................::
         :: SCC energy              -107.188559871862 Eh    ::
         :: -> isotropic ES            0.124906823412 Eh    ::
         :: -> anisotropic ES          0.004629757986 Eh    ::
         :: -> anisotropic XC          0.041926527292 Eh    ::
         :: -> dispersion             -0.086372445701 Eh    ::
         :: repulsion energy           1.432004637683 Eh    ::
         :: add. restraining           0.000000000000 Eh    ::
         :: total charge              -0.000000000000 e     ::
         :::::::::::::::::::::::::::::::::::::::::::::::::::::

      ----------------------------------------------------------- 
     |                   =====================                   |
     |                        A N C O P T                        |
     |                   =====================                   |
     |               Approximate Normal Coordinate               |
     |                Rational Function Optimizer                |
      ----------------------------------------------------------- 

          ...................................................
          :                      SETUP                      :
          :.................................................:
          :   optimization level            normal          :
          :   max. optcycles                   200          :
          :   ANC micro-cycles                  20          :
          :   degrees of freedom               174          :
          :.................................................:
          :   RF solver                   davidson          :
          :   write xtbopt.log                true          :
          :   linear?                        false          :
          :   energy convergence         0.5000000E-05 Eh   :
          :   grad. convergence          0.1000000E-02 Eh/α :
          :   maximium RF displ.         1.0000000          :
          :   Hlow (freq-cutoff)         0.1000000E-01      :
          :   Hmax (freq-cutoff)         5.0000000          :
          :   S6 in model hess.         20.0000000          :
          ...................................................

generating ANC from model Hessian ...
Using Lindh-Hessian (1995)
 Shifting diagonal of input Hessian by    9.8175737928517040E-003
 Lowest  eigenvalues of input Hessian
    0.000000    0.000000    0.000000    0.000000    0.000000    0.000000
    0.010000    0.010185    0.010285    0.010478    0.010532    0.010654
    0.010868    0.010938    0.011127    0.011246    0.011704    0.011877
 Highest eigenvalues
    1.939773    1.973341    1.983997    2.202994    2.252866    2.256798


........................................................................
.............................. CYCLE    1 ..............................
........................................................................
   1   -107.1885599 -0.107189E+03  0.235E-04    3.04       0.0  T
   2   -107.1885599 -0.622123E-09  0.178E-04    3.04      72.3  T
   3   -107.1885599 -0.544446E-09  0.140E-04    3.04      92.0  T
     SCC iter.                  ...        0 min,  0.049 sec
     gradient                   ...        0 min,  0.158 sec
 * total energy  :  -105.7535373 Eh     change       -0.2164555E-08 Eh
   gradient norm :     0.0902002 Eh/α   predicted     0.0000000E+00 (-100.00%)
   displ. norm   :     0.3434714 α      lambda       -0.1729602E-01
   maximum displ.:     0.1269663 α      in ANC's #56, #57, #21, ...

........................................................................
.............................. CYCLE    2 ..............................
........................................................................
   1   -107.2716274 -0.107272E+03  0.173E-01    3.33       0.0  T
   2   -107.2717373 -0.109949E-03  0.107E-01    3.26       1.0  T
   3   -107.2716853  0.520323E-04  0.478E-02    3.26       1.0  T
   4   -107.2717735 -0.881984E-04  0.980E-03    3.24       1.3  T
   5   -107.2717775 -0.402153E-05  0.469E-03    3.24       2.8  T
   6   -107.2717778 -0.348672E-06  0.265E-03    3.24       4.9  T
   7   -107.2717779 -0.278211E-07  0.169E-03    3.24       7.7  T
   8   -107.2717779 -0.270905E-07  0.110E-03    3.24      11.8  T
   9   -107.2717779 -0.140273E-07  0.676E-04    3.24      19.1  T
  10   -107.2717779 -0.374496E-08  0.265E-04    3.24      48.7  T
     SCC iter.                  ...        0 min,  0.160 sec
     gradient                   ...        0 min,  0.134 sec
 * total energy  :  -105.7653017 Eh     change       -0.1176439E-01 Eh
   gradient norm :     0.0319705 Eh/α   predicted    -0.9668242E-02 ( -17.82%)
   displ. norm   :     0.3468363 α      lambda       -0.5217705E-02
   maximum displ.:     0.1494747 α      in ANC's #21, #22, #20, ...

........................................................................
.............................. CYCLE    3 ..............................
........................................................................
   1   -107.3084716 -0.107308E+03  0.120E-01    3.38       0.0  T
   2   -107.3085220 -0.504427E-04  0.739E-02    3.34       1.0  T
   3   -107.3084980  0.240486E-04  0.322E-02    3.34       1.0  T
   4   -107.3085400 -0.420445E-04  0.839E-03    3.33       1.5  T
   5   -107.3085420 -0.202844E-05  0.460E-03    3.33       2.8  T
   6   -107.3085422 -0.190623E-06  0.268E-03    3.33       4.8  T
   7   -107.3085423 -0.439422E-07  0.187E-03    3.33       6.9  T
   8   -107.3085423 -0.236912E-07  0.113E-03    3.33      11.4  T
   9   -107.3085423 -0.193409E-07  0.518E-04    3.33      24.9  T
  10   -107.3085423 -0.377337E-08  0.230E-04    3.33      56.1  T
     SCC iter.                  ...        0 min,  0.157 sec
     gradient                   ...        0 min,  0.135 sec
 * total energy  :  -105.7685385 Eh     change       -0.3236861E-02 Eh
   gradient norm :     0.0121452 Eh/α   predicted    -0.2922688E-02 (  -9.71%)
   displ. norm   :     0.2378028 α      lambda       -0.1090429E-02
   maximum displ.:     0.1079722 α      in ANC's #21, #22, #20, ...

........................................................................
.............................. CYCLE    4 ..............................
........................................................................
   1   -107.3111484 -0.107311E+03  0.625E-02    3.35       0.0  T
   2   -107.3111569 -0.852006E-05  0.380E-02    3.34       1.0  T
   3   -107.3111494  0.752760E-05  0.143E-02    3.34       1.0  T
   4   -107.3111596 -0.101746E-04  0.338E-03    3.33       3.8  T
   5   -107.3111600 -0.412649E-06  0.186E-03    3.33       7.0  T
   6   -107.3111600 -0.191651E-07  0.120E-03    3.33      10.8  T
   7   -107.3111600 -0.123992E-07  0.694E-04    3.33      18.6  T
   8   -107.3111600 -0.406206E-08  0.428E-04    3.33      30.2  T
     SCC iter.                  ...        0 min,  0.126 sec
     gradient                   ...        0 min,  0.144 sec
 * total energy  :  -105.7692855 Eh     change       -0.7470300E-03 Eh
   gradient norm :     0.0077943 Eh/α   predicted    -0.5760613E-03 ( -22.89%)
   displ. norm   :     0.2182461 α      lambda       -0.4909208E-03
   maximum displ.:     0.0769774 α      in ANC's #20, #4, #21, ...

........................................................................
.............................. CYCLE    5 ..............................
........................................................................
   1   -107.3094357 -0.107309E+03  0.535E-02    3.34       0.0  T
   2   -107.3094373 -0.163148E-05  0.313E-02    3.34       1.0  T
   3   -107.3094351  0.225656E-05  0.723E-03    3.33       1.8  T
   4   -107.3094381 -0.296823E-05  0.204E-03    3.34       6.3  T
   5   -107.3094381 -0.492582E-07  0.115E-03    3.34      11.2  T
   6   -107.3094381 -0.117456E-07  0.592E-04    3.34      21.8  T
   7   -107.3094381 -0.238015E-08  0.417E-04    3.34      30.9  T
     SCC iter.                  ...        0 min,  0.111 sec
     gradient                   ...        0 min,  0.137 sec
 * total energy  :  -105.7696151 Eh     change       -0.3295966E-03 Eh
   gradient norm :     0.0050213 Eh/α   predicted    -0.2571716E-03 ( -21.97%)
   displ. norm   :     0.1910937 α      lambda       -0.2318219E-03
   maximum displ.:     0.0872120 α      in ANC's #4, #5, #9, ...

........................................................................
.............................. CYCLE    6 ..............................
........................................................................
   1   -107.3083134 -0.107308E+03  0.487E-02    3.33       0.0  T
   2   -107.3083148 -0.138053E-05  0.276E-02    3.33       1.0  T
   3   -107.3083132  0.156635E-05  0.649E-03    3.33       2.0  T
   4   -107.3083153 -0.210663E-05  0.242E-03    3.33       5.3  T
   5   -107.3083154 -0.630798E-07  0.115E-03    3.33      11.2  T
   6   -107.3083154 -0.264412E-07  0.571E-04    3.33      22.6  T
   7   -107.3083154 -0.205824E-08  0.402E-04    3.33      32.1  T
     SCC iter.                  ...        0 min,  0.117 sec
     gradient                   ...        0 min,  0.134 sec
 * total energy  :  -105.7697866 Eh     change       -0.1714127E-03 Eh
   gradient norm :     0.0039128 Eh/α   predicted    -0.1201446E-03 ( -29.91%)
   displ. norm   :     0.2532291 α      lambda       -0.2262302E-03
   maximum displ.:     0.1242916 α      in ANC's #4, #5, #8, ...

........................................................................
.............................. CYCLE    7 ..............................
........................................................................
   1   -107.3080858 -0.107308E+03  0.640E-02    3.32       0.0  T
   2   -107.3080882 -0.240235E-05  0.363E-02    3.33       1.0  T
   3   -107.3080854  0.271474E-05  0.829E-03    3.33       1.6  T
   4   -107.3080890 -0.358347E-05  0.313E-03    3.33       4.1  T
   5   -107.3080892 -0.137871E-06  0.158E-03    3.33       8.2  T
   6   -107.3080892 -0.483207E-07  0.807E-04    3.33      16.0  T
   7   -107.3080892 -0.426635E-08  0.561E-04    3.33      23.0  T
     SCC iter.                  ...        0 min,  0.111 sec
     gradient                   ...        0 min,  0.130 sec
 * total energy  :  -105.7699605 Eh     change       -0.1739237E-03 Eh
   gradient norm :     0.0042031 Eh/α   predicted    -0.1203769E-03 ( -30.79%)
   displ. norm   :     0.3298568 α      lambda       -0.2497830E-03
   maximum displ.:     0.1638280 α      in ANC's #4, #5, #8, ...

........................................................................
.............................. CYCLE    8 ..............................
........................................................................
   1   -107.3080460 -0.107308E+03  0.866E-02    3.31       0.0  T
   2   -107.3080486 -0.256006E-05  0.496E-02    3.32       1.0  T
   3   -107.3080440  0.462907E-05  0.100E-02    3.32       1.3  T
   4   -107.3080499 -0.594233E-05  0.365E-03    3.32       3.5  T
   5   -107.3080501 -0.133256E-06  0.174E-03    3.32       7.4  T
   6   -107.3080501 -0.513087E-07  0.102E-03    3.32      12.7  T
   7   -107.3080501 -0.546873E-08  0.697E-04    3.32      18.5  T
   8   -107.3080501 -0.489258E-08  0.341E-04    3.32      37.8  T
     SCC iter.                  ...        0 min,  0.127 sec
     gradient                   ...        0 min,  0.122 sec
 * total energy  :  -105.7701573 Eh     change       -0.1968031E-03 Eh
   gradient norm :     0.0060788 Eh/α   predicted    -0.1385343E-03 ( -29.61%)
   displ. norm   :     0.3930340 α      lambda       -0.2805933E-03
   maximum displ.:     0.1959745 α      in ANC's #4, #8, #5, ...

........................................................................
.............................. CYCLE    9 ..............................
........................................................................
   1   -107.3085998 -0.107309E+03  0.993E-02    3.31       0.0  T
   2   -107.3086033 -0.350493E-05  0.572E-02    3.31       1.0  T
   3   -107.3085968  0.646053E-05  0.113E-02    3.31       1.1  T
   4   -107.3086049 -0.809642E-05  0.379E-03    3.31       3.4  T
   5   -107.3086051 -0.186038E-06  0.195E-03    3.31       6.6  T
   6   -107.3086051 -0.387460E-07  0.121E-03    3.31      10.7  T
   7   -107.3086052 -0.117566E-07  0.862E-04    3.31      15.0  T
   8   -107.3086052 -0.563141E-08  0.423E-04    3.31      30.5  T
     SCC iter.                  ...        0 min,  0.127 sec
     gradient                   ...        0 min,  0.139 sec
 * total energy  :  -105.7703752 Eh     change       -0.2178791E-03 Eh
   gradient norm :     0.0063787 Eh/α   predicted    -0.1619699E-03 ( -25.66%)
   displ. norm   :     0.4074479 α      lambda       -0.2640028E-03
   maximum displ.:     0.2028150 α      in ANC's #4, #8, #5, ...

........................................................................
.............................. CYCLE   10 ..............................
........................................................................
   1   -107.3089414 -0.107309E+03  0.102E-01    3.30       0.0  T
   2   -107.3089450 -0.355483E-05  0.593E-02    3.30       1.0  T
   3   -107.3089368  0.819487E-05  0.123E-02    3.31       1.1  T
   4   -107.3089468 -0.100674E-04  0.351E-03    3.31       3.7  T
   5   -107.3089470 -0.132449E-06  0.203E-03    3.31       6.3  T
   6   -107.3089470 -0.439739E-07  0.128E-03    3.31      10.1  T
   7   -107.3089470 -0.131455E-07  0.916E-04    3.31      14.1  T
   8   -107.3089470 -0.627084E-08  0.467E-04    3.31      27.6  T
     SCC iter.                  ...        0 min,  0.131 sec
     gradient                   ...        0 min,  0.148 sec
 * total energy  :  -105.7705746 Eh     change       -0.1994139E-03 Eh
   gradient norm :     0.0058711 Eh/α   predicted    -0.1539195E-03 ( -22.81%)
   displ. norm   :     0.3895878 α      lambda       -0.2316999E-03
   maximum displ.:     0.1902971 α      in ANC's #4, #8, #1, ...

........................................................................
.............................. CYCLE   11 ..............................
........................................................................
   1   -107.3103291 -0.107310E+03  0.904E-02    3.32       0.0  T
   2   -107.3103322 -0.308365E-05  0.523E-02    3.32       1.0  T
   3   -107.3103256  0.666336E-05  0.115E-02    3.32       1.1  T
   4   -107.3103338 -0.826605E-05  0.330E-03    3.32       3.9  T
   5   -107.3103339 -0.842882E-07  0.199E-03    3.32       6.5  T
   6   -107.3103340 -0.654445E-07  0.124E-03    3.32      10.4  T
   7   -107.3103340 -0.685861E-08  0.900E-04    3.32      14.3  T
   8   -107.3103340 -0.975972E-08  0.410E-04    3.32      31.5  T
     SCC iter.                  ...        0 min,  0.129 sec
     gradient                   ...        0 min,  0.143 sec
 * total energy  :  -105.7707435 Eh     change       -0.1689328E-03 Eh
   gradient norm :     0.0053071 Eh/α   predicted    -0.1334366E-03 ( -21.01%)
   displ. norm   :     0.4514117 α      lambda       -0.2124058E-03
   maximum displ.:     0.2145366 α      in ANC's #4, #1, #8, ...

........................................................................
.............................. CYCLE   12 ..............................
........................................................................
   1   -107.3084908 -0.107308E+03  0.111E-01    3.25       0.0  T
   2   -107.3084978 -0.696644E-05  0.643E-02    3.27       1.0  T
   3   -107.3084871  0.106985E-04  0.144E-02    3.26       1.0  T
   4   -107.3085002 -0.131531E-04  0.429E-03    3.27       3.0  T
   5   -107.3085005 -0.297927E-06  0.239E-03    3.27       5.4  T
   6   -107.3085006 -0.601149E-07  0.154E-03    3.27       8.4  T
   7   -107.3085006 -0.229600E-07  0.110E-03    3.27      11.7  T
   8   -107.3085006 -0.604126E-08  0.645E-04    3.27      20.0  T
   9   -107.3085006 -0.828487E-08  0.310E-04    3.27      41.6  T
     SCC iter.                  ...        0 min,  0.142 sec
     gradient                   ...        0 min,  0.129 sec
 * total energy  :  -105.7708752 Eh     change       -0.1317119E-03 Eh
   gradient norm :     0.0085478 Eh/α   predicted    -0.1278461E-03 (  -2.94%)
   displ. norm   :     0.3146381 α      lambda       -0.2662782E-03
   maximum displ.:     0.1568785 α      in ANC's #1, #4, #8, ...

........................................................................
.............................. CYCLE   13 ..............................
........................................................................
   1   -107.3119431 -0.107312E+03  0.779E-02    3.33       0.0  T
   2   -107.3119566 -0.134985E-04  0.445E-02    3.32       1.0  T
   3   -107.3119514  0.516756E-05  0.152E-02    3.32       1.0  T
   4   -107.3119592 -0.776837E-05  0.397E-03    3.32       3.3  T
   5   -107.3119596 -0.388943E-06  0.231E-03    3.32       5.6  T
   6   -107.3119597 -0.124450E-06  0.122E-03    3.32      10.5  T
   7   -107.3119597 -0.127878E-07  0.880E-04    3.32      14.7  T
   8   -107.3119597 -0.296933E-08  0.597E-04    3.32      21.6  T
     SCC iter.                  ...        0 min,  0.126 sec
     gradient                   ...        0 min,  0.114 sec
 * total energy  :  -105.7710258 Eh     change       -0.1505657E-03 Eh
   gradient norm :     0.0053767 Eh/α   predicted    -0.1463308E-03 (  -2.81%)
   displ. norm   :     0.3377021 α      lambda       -0.1797577E-03
   maximum displ.:     0.1665409 α      in ANC's #1, #4, #8, ...

........................................................................
.............................. CYCLE   14 ..............................
........................................................................
   1   -107.3104399 -0.107310E+03  0.845E-02    3.29       0.0  T
   2   -107.3104459 -0.597511E-05  0.485E-02    3.29       1.0  T
   3   -107.3104417  0.416553E-05  0.110E-02    3.29       1.2  T
   4   -107.3104472 -0.548976E-05  0.358E-03    3.29       3.6  T
   5   -107.3104474 -0.219418E-06  0.210E-03    3.29       6.2  T
   6   -107.3104475 -0.756683E-07  0.129E-03    3.29      10.0  T
   7   -107.3104475 -0.143165E-07  0.936E-04    3.29      13.8  T
   8   -107.3104475 -0.370314E-08  0.547E-04    3.29      23.6  T
     SCC iter.                  ...        0 min,  0.126 sec
     gradient                   ...        0 min,  0.124 sec
 * total energy  :  -105.7711575 Eh     change       -0.1317157E-03 Eh
   gradient norm :     0.0044314 Eh/α   predicted    -0.1001343E-03 ( -23.98%)
   displ. norm   :     0.3025564 α      lambda       -0.1888016E-03
   maximum displ.:     0.1639405 α      in ANC's #1, #2, #4, ...

........................................................................
.............................. CYCLE   15 ..............................
........................................................................
   1   -107.3097992 -0.107310E+03  0.855E-02    3.27       0.0  T
   2   -107.3098016 -0.244488E-05  0.492E-02    3.28       1.0  T
   3   -107.3097970  0.468477E-05  0.101E-02    3.28       1.3  T
   4   -107.3098027 -0.575101E-05  0.360E-03    3.28       3.6  T
   5   -107.3098029 -0.146980E-06  0.205E-03    3.28       6.3  T
   6   -107.3098029 -0.473149E-07  0.141E-03    3.28       9.1  T
   7   -107.3098029 -0.126566E-07  0.103E-03    3.28      12.5  T
   8   -107.3098029 -0.113844E-07  0.398E-04    3.28      32.5  T
   9   -107.3098029 -0.300615E-08  0.203E-04    3.28      63.7  T
     SCC iter.                  ...        0 min,  0.142 sec
     gradient                   ...        0 min,  0.140 sec
 * total energy  :  -105.7712990 Eh     change       -0.1414526E-03 Eh
   gradient norm :     0.0042707 Eh/α   predicted    -0.1030430E-03 ( -27.15%)
   displ. norm   :     0.2756909 α      lambda       -0.1500860E-03
   maximum displ.:     0.1552322 α      in ANC's #1, #9, #2, ...

........................................................................
.............................. CYCLE   16 ..............................
........................................................................
   1   -107.3103557 -0.107310E+03  0.800E-02    3.29       0.0  T
   2   -107.3103576 -0.192975E-05  0.461E-02    3.29       1.0  T
   3   -107.3103519  0.577930E-05  0.107E-02    3.29       1.2  T
   4   -107.3103588 -0.693481E-05  0.342E-03    3.29       3.8  T
   5   -107.3103589 -0.103229E-06  0.200E-03    3.29       6.4  T
   6   -107.3103589 -0.379749E-07  0.144E-03    3.29       9.0  T
   7   -107.3103589 -0.131628E-07  0.101E-03    3.29      12.8  T
   8   -107.3103590 -0.131813E-07  0.335E-04    3.29      38.5  T
   9   -107.3103590 -0.198396E-08  0.182E-04    3.29      70.8  T
     SCC iter.                  ...        0 min,  0.146 sec
     gradient                   ...        0 min,  0.136 sec
 * total energy  :  -105.7714106 Eh     change       -0.1116779E-03 Eh
   gradient norm :     0.0038706 Eh/α   predicted    -0.8074689E-04 ( -27.70%)
   displ. norm   :     0.3302589 α      lambda       -0.1220615E-03
   maximum displ.:     0.1889700 α      in ANC's #1, #4, #8, ...

........................................................................
.............................. CYCLE   17 ..............................
........................................................................
   1   -107.3096154 -0.107310E+03  0.934E-02    3.27       0.0  T
   2   -107.3096182 -0.279007E-05  0.538E-02    3.27       1.0  T
   3   -107.3096098  0.838581E-05  0.124E-02    3.27       1.0  T
   4   -107.3096198 -0.100460E-04  0.385E-03    3.27       3.4  T
   5   -107.3096199 -0.121003E-06  0.221E-03    3.27       5.9  T
   6   -107.3096200 -0.562251E-07  0.157E-03    3.27       8.2  T
   7   -107.3096200 -0.169442E-07  0.114E-03    3.27      11.3  T
   8   -107.3096200 -0.141404E-07  0.469E-04    3.27      27.5  T
   9   -107.3096200 -0.458442E-08  0.231E-04    3.27      55.8  T
     SCC iter.                  ...        0 min,  0.142 sec
     gradient                   ...        0 min,  0.153 sec
 * total energy  :  -105.7715032 Eh     change       -0.9261230E-04 Eh
   gradient norm :     0.0051514 Eh/α   predicted    -0.6768956E-04 ( -26.91%)
   displ. norm   :     0.2898090 α      lambda       -0.1319408E-03
   maximum displ.:     0.1723161 α      in ANC's #1, #9, #3, ...

........................................................................
.............................. CYCLE   18 ..............................
........................................................................
   1   -107.3119641 -0.107312E+03  0.823E-02    3.31       0.0  T
   2   -107.3119669 -0.279992E-05  0.475E-02    3.30       1.0  T
   3   -107.3119592  0.771052E-05  0.123E-02    3.30       1.1  T
   4   -107.3119684 -0.921099E-05  0.334E-03    3.30       3.9  T
   5   -107.3119685 -0.100206E-06  0.207E-03    3.30       6.2  T
   6   -107.3119686 -0.617605E-07  0.134E-03    3.30       9.6  T
   7   -107.3119686 -0.109434E-07  0.970E-04    3.30      13.3  T
   8   -107.3119686 -0.970556E-08  0.440E-04    3.30      29.4  T
     SCC iter.                  ...        0 min,  0.125 sec
     gradient                   ...        0 min,  0.136 sec
 * total energy  :  -105.7715929 Eh     change       -0.8961723E-04 Eh
   gradient norm :     0.0030493 Eh/α   predicted    -0.7151305E-04 ( -20.20%)
   displ. norm   :     0.3560819 α      lambda       -0.1047379E-03
   maximum displ.:     0.2082330 α      in ANC's #1, #4, #8, ...

........................................................................
.............................. CYCLE   19 ..............................
........................................................................
   1   -107.3109394 -0.107311E+03  0.959E-02    3.28       0.0  T
   2   -107.3109418 -0.233166E-05  0.553E-02    3.28       1.0  T
   3   -107.3109342  0.757184E-05  0.118E-02    3.28       1.1  T
   4   -107.3109433 -0.911282E-05  0.345E-03    3.28       3.7  T
   5   -107.3109433 -0.430757E-07  0.180E-03    3.28       7.2  T
   6   -107.3109434 -0.744208E-07  0.116E-03    3.28      11.1  T
   7   -107.3109434 -0.706378E-08  0.784E-04    3.28      16.5  T
   8   -107.3109434 -0.871229E-08  0.385E-04    3.28      33.5  T
     SCC iter.                  ...        0 min,  0.130 sec
     gradient                   ...        0 min,  0.132 sec
 * total energy  :  -105.7716743 Eh     change       -0.8140153E-04 Eh
   gradient norm :     0.0033572 Eh/α   predicted    -0.5901102E-04 ( -27.51%)
   displ. norm   :     0.3396857 α      lambda       -0.1111994E-03
   maximum displ.:     0.2036403 α      in ANC's #1, #3, #4, ...

........................................................................
.............................. CYCLE   20 ..............................
........................................................................
   1   -107.3116616 -0.107312E+03  0.879E-02    3.28       0.0  T
   2   -107.3116635 -0.192699E-05  0.507E-02    3.28       1.0  T
   3   -107.3116572  0.633189E-05  0.107E-02    3.28       1.2  T
   4   -107.3116647 -0.753627E-05  0.288E-03    3.28       4.5  T
   5   -107.3116647 -0.435451E-07  0.145E-03    3.28       8.9  T
   6   -107.3116648 -0.493664E-07  0.806E-04    3.28      16.0  T
   7   -107.3116648 -0.365493E-08  0.605E-04    3.28      21.3  T
     SCC iter.                  ...        0 min,  0.115 sec
     gradient                   ...        0 min,  0.157 sec
 * total energy  :  -105.7717671 Eh     change       -0.9286234E-04 Eh
   gradient norm :     0.0042313 Eh/α   predicted    -0.6201770E-04 ( -33.22%)
   displ. norm   :     0.4511869 α      lambda       -0.1497923E-03
   maximum displ.:     0.2694711 α      in ANC's #1, #3, #4, ...
 * RMSD in coord.:     0.6568280 α      energy gain  -0.1822986E-01 Eh

generating ANC from model Hessian ...
Using Lindh-Hessian (1995)
 Shifting diagonal of input Hessian by    9.8071163589673743E-003
 Lowest  eigenvalues of input Hessian
    0.000000    0.000000    0.000000    0.000000    0.000000    0.000000
    0.010000    0.010190    0.010379    0.010543    0.010622    0.010718
    0.010935    0.011084    0.011295    0.011462    0.011903    0.012047
 Highest eigenvalues
    2.023416    2.029915    2.031891    2.340679    2.350410    2.399631


........................................................................
.............................. CYCLE   21 ..............................
........................................................................
   1   -107.3117771 -0.107312E+03  0.112E-01    3.28       0.0  T
   2   -107.3117802 -0.308957E-05  0.647E-02    3.28       1.0  T
   3   -107.3117705  0.966414E-05  0.132E-02    3.27       1.0  T
   4   -107.3117820 -0.115224E-04  0.336E-03    3.28       3.8  T
   5   -107.3117821 -0.562404E-07  0.172E-03    3.28       7.5  T
   6   -107.3117822 -0.733884E-07  0.885E-04    3.28      14.6  T
   7   -107.3117822 -0.456518E-08  0.660E-04    3.28      19.6  T
     SCC iter.                  ...        0 min,  0.111 sec
     gradient                   ...        0 min,  0.122 sec
 * total energy  :  -105.7718912 Eh     change       -0.1241026E-03 Eh
   gradient norm :     0.0036958 Eh/α   predicted     0.0000000E+00 (-100.00%)
   displ. norm   :     0.0420775 α      lambda       -0.4647237E-04
   maximum displ.:     0.0166196 α      in ANC's #1, #16, #3, ...

........................................................................
.............................. CYCLE   22 ..............................
........................................................................
   1   -107.3124726 -0.107312E+03  0.130E-02    3.28       0.0  T
   2   -107.3124727 -0.179336E-06  0.760E-03    3.28       1.7  T
   3   -107.3124724  0.285083E-06  0.234E-03    3.28       5.5  T
   4   -107.3124728 -0.354655E-06  0.645E-04    3.28      20.0  T
   5   -107.3124728 -0.759854E-08  0.392E-04    3.28      33.0  T
     SCC iter.                  ...        0 min,  0.080 sec
     gradient                   ...        0 min,  0.176 sec
 * total energy  :  -105.7719292 Eh     change       -0.3800650E-04 Eh
   gradient norm :     0.0018437 Eh/α   predicted    -0.2330597E-04 ( -38.68%)
   displ. norm   :     0.1781183 α      lambda       -0.7929435E-04
   maximum displ.:     0.0760807 α      in ANC's #1, #3, #16, ...

........................................................................
.............................. CYCLE   23 ..............................
........................................................................
   1   -107.3134629 -0.107313E+03  0.486E-02    3.27       0.0  T
   2   -107.3134646 -0.178894E-05  0.285E-02    3.28       1.0  T
   3   -107.3134606  0.400985E-05  0.820E-03    3.28       1.6  T
   4   -107.3134655 -0.488012E-05  0.174E-03    3.28       7.4  T
   5   -107.3134656 -0.636295E-07  0.106E-03    3.28      12.2  T
   6   -107.3134656 -0.144632E-07  0.570E-04    3.28      22.7  T
   7   -107.3134656 -0.173588E-08  0.393E-04    3.28      32.9  T
     SCC iter.                  ...        0 min,  0.120 sec
     gradient                   ...        0 min,  0.146 sec
 * total energy  :  -105.7719836 Eh     change       -0.5440008E-04 Eh
   gradient norm :     0.0037975 Eh/α   predicted    -0.4023045E-04 ( -26.05%)
   displ. norm   :     0.0430932 α      lambda       -0.2479675E-04
   maximum displ.:     0.0225455 α      in ANC's #1, #3, #2, ...

........................................................................
.............................. CYCLE   24 ..............................
........................................................................
   1   -107.3132386 -0.107313E+03  0.100E-02    3.28       0.0  T
   2   -107.3132387 -0.810787E-07  0.582E-03    3.28       2.2  T
   3   -107.3132386  0.687917E-07  0.132E-03    3.28       9.8  T
   4   -107.3132387 -0.878710E-07  0.457E-04    3.28      28.3  T
   5   -107.3132387 -0.446745E-08  0.270E-04    3.28      47.8  T
     SCC iter.                  ...        0 min,  0.080 sec
     gradient                   ...        0 min,  0.119 sec
 * total energy  :  -105.7720065 Eh     change       -0.2291760E-04 Eh
   gradient norm :     0.0029096 Eh/α   predicted    -0.1242906E-04 ( -45.77%)
   displ. norm   :     0.2395951 α      lambda       -0.1142862E-03
   maximum displ.:     0.1221570 α      in ANC's #1, #3, #2, ...

........................................................................
.............................. CYCLE   25 ..............................
........................................................................
   1   -107.3120468 -0.107312E+03  0.540E-02    3.28       0.0  T
   2   -107.3120489 -0.209599E-05  0.313E-02    3.28       1.0  T
   3   -107.3120469  0.204772E-05  0.693E-03    3.28       1.9  T
   4   -107.3120494 -0.255173E-05  0.211E-03    3.28       6.1  T
   5   -107.3120496 -0.120385E-06  0.116E-03    3.28      11.2  T
   6   -107.3120496 -0.118286E-07  0.670E-04    3.28      19.3  T
   7   -107.3120496 -0.384151E-08  0.495E-04    3.28      26.1  T
     SCC iter.                  ...        0 min,  0.116 sec
     gradient                   ...        0 min,  0.133 sec
 * total energy  :  -105.7720862 Eh     change       -0.7969062E-04 Eh
   gradient norm :     0.0018207 Eh/α   predicted    -0.6042437E-04 ( -24.18%)
   displ. norm   :     0.3521506 α      lambda       -0.5721651E-04
   maximum displ.:     0.1838935 α      in ANC's #1, #3, #2, ...

........................................................................
.............................. CYCLE   26 ..............................
........................................................................
   1   -107.3107021 -0.107311E+03  0.750E-02    3.28       0.0  T
   2   -107.3107054 -0.325740E-05  0.434E-02    3.28       1.0  T
   3   -107.3107003  0.502580E-05  0.100E-02    3.27       1.3  T
   4   -107.3107065 -0.616352E-05  0.293E-03    3.28       4.4  T
   5   -107.3107067 -0.180796E-06  0.175E-03    3.28       7.4  T
   6   -107.3107067 -0.305010E-07  0.106E-03    3.28      12.2  T
   7   -107.3107067 -0.723279E-08  0.798E-04    3.28      16.2  T
   8   -107.3107067 -0.535940E-08  0.356E-04    3.28      36.2  T
     SCC iter.                  ...        0 min,  0.130 sec
     gradient                   ...        0 min,  0.144 sec
 * total energy  :  -105.7721433 Eh     change       -0.5709058E-04 Eh
   gradient norm :     0.0040788 Eh/α   predicted    -0.3018529E-04 ( -47.13%)
   displ. norm   :     0.1693639 α      lambda       -0.4657259E-04
   maximum displ.:     0.0916522 α      in ANC's #1, #3, #2, ...

........................................................................
.............................. CYCLE   27 ..............................
........................................................................
   1   -107.3110881 -0.107311E+03  0.340E-02    3.28       0.0  T
   2   -107.3110886 -0.576507E-06  0.196E-02    3.28       1.0  T
   3   -107.3110873  0.134632E-05  0.501E-03    3.28       2.6  T
   4   -107.3110889 -0.163276E-05  0.141E-03    3.28       9.2  T
   5   -107.3110889 -0.204993E-07  0.905E-04    3.28      14.3  T
   6   -107.3110890 -0.993059E-08  0.583E-04    3.28      22.1  T
     SCC iter.                  ...        0 min,  0.099 sec
     gradient                   ...        0 min,  0.110 sec
 * total energy  :  -105.7721863 Eh     change       -0.4298968E-04 Eh
   gradient norm :     0.0032877 Eh/α   predicted    -0.2395460E-04 ( -44.28%)
   displ. norm   :     0.3838807 α      lambda       -0.1232118E-03
   maximum displ.:     0.2067955 α      in ANC's #1, #3, #2, ...

........................................................................
.............................. CYCLE   28 ..............................
........................................................................
   1   -107.3119944 -0.107312E+03  0.764E-02    3.29       0.0  T
   2   -107.3119971 -0.264180E-05  0.441E-02    3.29       1.0  T
   3   -107.3119893  0.778102E-05  0.121E-02    3.29       1.1  T
   4   -107.3119987 -0.939761E-05  0.336E-03    3.29       3.8  T
   5   -107.3119988 -0.604901E-07  0.216E-03    3.29       6.0  T
   6   -107.3119988 -0.582666E-07  0.147E-03    3.29       8.8  T
   7   -107.3119988 -0.119434E-07  0.102E-03    3.29      12.6  T
   8   -107.3119988 -0.130809E-07  0.381E-04    3.29      33.9  T
   9   -107.3119989 -0.263650E-08  0.213E-04    3.29      60.7  T
     SCC iter.                  ...        0 min,  0.148 sec
     gradient                   ...        0 min,  0.138 sec
 * total energy  :  -105.7722930 Eh     change       -0.1066800E-03 Eh
   gradient norm :     0.0015579 Eh/α   predicted    -0.7069490E-04 ( -33.73%)
   displ. norm   :     0.8753724 α      lambda       -0.1630809E-03
   maximum displ.:     0.4708191 α      in ANC's #1, #3, #2, ...

........................................................................
.............................. CYCLE   29 ..............................
........................................................................
   1   -107.3103856 -0.107310E+03  0.175E-01    3.29       0.0  T
   2   -107.3103996 -0.139855E-04  0.101E-01    3.30       1.0  T
   3   -107.3103532  0.464272E-04  0.295E-02    3.29       1.0  T
   4   -107.3104090 -0.558266E-04  0.752E-03    3.29       1.7  T
   5   -107.3104092 -0.219208E-06  0.472E-03    3.29       2.7  T
   6   -107.3104095 -0.322907E-06  0.308E-03    3.29       4.2  T
   7   -107.3104096 -0.523719E-07  0.219E-03    3.29       5.9  T
   8   -107.3104096 -0.565568E-07  0.828E-04    3.29      15.6  T
   9   -107.3104096 -0.122251E-07  0.474E-04    3.29      27.3  T
     SCC iter.                  ...        0 min,  0.143 sec
     gradient                   ...        0 min,  0.128 sec
 * total energy  :  -105.7724891 Eh     change       -0.1961399E-03 Eh
   gradient norm :     0.0046283 Eh/α   predicted    -0.1093116E-03 ( -44.27%)
   displ. norm   :     0.5375934 α      lambda       -0.1602596E-03
   maximum displ.:     0.2902312 α      in ANC's #1, #2, #3, ...

........................................................................
.............................. CYCLE   30 ..............................
........................................................................
   1   -107.3104149 -0.107310E+03  0.106E-01    3.30       0.0  T
   2   -107.3104204 -0.546672E-05  0.610E-02    3.30       1.0  T
   3   -107.3103992  0.211975E-04  0.199E-02    3.30       1.0  T
   4   -107.3104246 -0.253899E-04  0.477E-03    3.30       2.7  T
   5   -107.3104246 -0.609896E-07  0.298E-03    3.30       4.3  T
   6   -107.3104248 -0.131848E-06  0.196E-03    3.30       6.6  T
   7   -107.3104248 -0.220406E-07  0.138E-03    3.30       9.4  T
   8   -107.3104248 -0.237700E-07  0.503E-04    3.30      25.7  T
   9   -107.3104248 -0.456048E-08  0.289E-04    3.30      44.6  T
     SCC iter.                  ...        0 min,  0.142 sec
     gradient                   ...        0 min,  0.162 sec
 * total energy  :  -105.7726348 Eh     change       -0.1456218E-03 Eh
   gradient norm :     0.0055845 Eh/α   predicted    -0.1033112E-03 ( -29.06%)
   displ. norm   :     0.6376981 α      lambda       -0.2587485E-03
   maximum displ.:     0.3409984 α      in ANC's #1, #2, #3, ...

........................................................................
.............................. CYCLE   31 ..............................
........................................................................
   1   -107.3119383 -0.107312E+03  0.126E-01    3.31       0.0  T
   2   -107.3119465 -0.821276E-05  0.726E-02    3.31       1.0  T
   3   -107.3119120  0.344660E-04  0.253E-02    3.31       1.0  T
   4   -107.3119533 -0.413140E-04  0.587E-03    3.31       2.2  T
   5   -107.3119534 -0.593030E-07  0.356E-03    3.31       3.6  T
   6   -107.3119536 -0.192449E-06  0.234E-03    3.31       5.5  T
   7   -107.3119536 -0.339213E-07  0.162E-03    3.31       7.9  T
   8   -107.3119536 -0.292465E-07  0.657E-04    3.31      19.6  T
   9   -107.3119536 -0.890968E-08  0.346E-04    3.31      37.4  T
     SCC iter.                  ...        0 min,  0.140 sec
     gradient                   ...        0 min,  0.138 sec
 * total energy  :  -105.7728606 Eh     change       -0.2258322E-03 Eh
   gradient norm :     0.0053210 Eh/α   predicted    -0.1819850E-03 ( -19.42%)
   displ. norm   :     0.6729969 α      lambda       -0.2930267E-03
   maximum displ.:     0.3526912 α      in ANC's #1, #2, #3, ...

........................................................................
.............................. CYCLE   32 ..............................
........................................................................
   1   -107.3120296 -0.107312E+03  0.133E-01    3.30       0.0  T
   2   -107.3120389 -0.933780E-05  0.767E-02    3.31       1.0  T
   3   -107.3119995  0.394479E-04  0.272E-02    3.30       1.0  T
   4   -107.3120469 -0.473876E-04  0.605E-03    3.31       2.1  T
   5   -107.3120469 -0.383327E-07  0.360E-03    3.31       3.6  T
   6   -107.3120471 -0.228218E-06  0.222E-03    3.31       5.8  T
   7   -107.3120472 -0.286287E-07  0.154E-03    3.31       8.4  T
   8   -107.3120472 -0.266087E-07  0.667E-04    3.31      19.4  T
   9   -107.3120472 -0.868054E-08  0.360E-04    3.31      35.8  T
     SCC iter.                  ...        0 min,  0.142 sec
     gradient                   ...        0 min,  0.137 sec
 * total energy  :  -105.7731059 Eh     change       -0.2452868E-03 Eh
   gradient norm :     0.0042245 Eh/α   predicted    -0.2128778E-03 ( -13.21%)
   displ. norm   :     0.5420970 α      lambda       -0.2668068E-03
   maximum displ.:     0.2544463 α      in ANC's #1, #2, #8, ...

........................................................................
.............................. CYCLE   33 ..............................
........................................................................
   1   -107.3148700 -0.107315E+03  0.110E-01    3.31       0.0  T
   2   -107.3148777 -0.775469E-05  0.630E-02    3.31       1.0  T
   3   -107.3148513  0.264477E-04  0.226E-02    3.31       1.0  T
   4   -107.3148835 -0.321539E-04  0.528E-03    3.31       2.4  T
   5   -107.3148835 -0.904004E-07  0.307E-03    3.31       4.2  T
   6   -107.3148837 -0.152594E-06  0.180E-03    3.31       7.2  T
   7   -107.3148837 -0.184784E-07  0.136E-03    3.31       9.5  T
   8   -107.3148837 -0.175652E-07  0.623E-04    3.31      20.7  T
   9   -107.3148837 -0.723125E-08  0.321E-04    3.31      40.2  T
     SCC iter.                  ...        0 min,  0.141 sec
     gradient                   ...        0 min,  0.142 sec
 * total energy  :  -105.7732897 Eh     change       -0.1838295E-03 Eh
   gradient norm :     0.0044236 Eh/α   predicted    -0.1726070E-03 (  -6.10%)
   displ. norm   :     0.6794383 α      lambda       -0.2162203E-03
   maximum displ.:     0.3513309 α      in ANC's #1, #2, #14, ...

........................................................................
.............................. CYCLE   34 ..............................
........................................................................
   1   -107.3057419 -0.107306E+03  0.139E-01    3.28       0.0  T
   2   -107.3057555 -0.136605E-04  0.797E-02    3.29       1.0  T
   3   -107.3057160  0.395379E-04  0.289E-02    3.28       1.0  T
   4   -107.3057645 -0.485318E-04  0.599E-03    3.29       2.2  T
   5   -107.3057647 -0.159520E-06  0.368E-03    3.29       3.5  T
   6   -107.3057650 -0.279951E-06  0.180E-03    3.29       7.2  T
   7   -107.3057650 -0.153868E-07  0.138E-03    3.29       9.4  T
   8   -107.3057650 -0.154101E-07  0.607E-04    3.29      21.3  T
   9   -107.3057650 -0.551536E-08  0.322E-04    3.29      40.1  T
     SCC iter.                  ...        0 min,  0.178 sec
     gradient                   ...        0 min,  0.144 sec
 * total energy  :  -105.7733514 Eh     change       -0.6167616E-04 Eh
   gradient norm :     0.0085527 Eh/α   predicted    -0.1580203E-03 ( 156.21%)
   displ. norm   :     0.1693200 α      lambda       -0.1850518E-03
   maximum displ.:     0.0833972 α      in ANC's #13, #3, #6, ...

........................................................................
.............................. CYCLE   35 ..............................
........................................................................
   1   -107.3109528 -0.107311E+03  0.405E-02    3.30       0.0  T
   2   -107.3109545 -0.167208E-05  0.230E-02    3.30       1.0  T
   3   -107.3109523  0.219944E-05  0.751E-03    3.30       1.7  T
   4   -107.3109551 -0.280880E-05  0.223E-03    3.30       5.8  T
   5   -107.3109551 -0.449582E-07  0.124E-03    3.30      10.4  T
   6   -107.3109552 -0.289647E-07  0.661E-04    3.30      19.5  T
   7   -107.3109552 -0.277683E-08  0.484E-04    3.30      26.7  T
     SCC iter.                  ...        0 min,  0.150 sec
     gradient                   ...        0 min,  0.136 sec
 * total energy  :  -105.7734721 Eh     change       -0.1207232E-03 Eh
   gradient norm :     0.0039467 Eh/α   predicted    -0.9518024E-04 ( -21.16%)
   displ. norm   :     0.2375165 α      lambda       -0.9919333E-04
   maximum displ.:     0.1018968 α      in ANC's #2, #13, #5, ...

........................................................................
.............................. CYCLE   36 ..............................
........................................................................
   1   -107.3119271 -0.107312E+03  0.537E-02    3.30       0.0  T
   2   -107.3119286 -0.154798E-05  0.304E-02    3.30       1.0  T
   3   -107.3119248  0.380278E-05  0.897E-03    3.30       1.4  T
   4   -107.3119295 -0.466564E-05  0.254E-03    3.31       5.1  T
   5   -107.3119295 -0.210718E-07  0.121E-03    3.30      10.7  T
   6   -107.3119296 -0.338520E-07  0.582E-04    3.30      22.2  T
   7   -107.3119296 -0.175697E-08  0.410E-04    3.30      31.5  T
     SCC iter.                  ...        0 min,  0.112 sec
     gradient                   ...        0 min,  0.116 sec
 * total energy  :  -105.7735497 Eh     change       -0.7754928E-04 Eh
   gradient norm :     0.0030495 Eh/α   predicted    -0.5239491E-04 ( -32.44%)
   displ. norm   :     0.3303244 α      lambda       -0.1278320E-03
   maximum displ.:     0.1559267 α      in ANC's #2, #5, #14, ...

........................................................................
.............................. CYCLE   37 ..............................
........................................................................
   1   -107.3117918 -0.107312E+03  0.778E-02    3.30       0.0  T
   2   -107.3117949 -0.313082E-05  0.439E-02    3.31       1.0  T
   3   -107.3117875  0.738211E-05  0.126E-02    3.31       1.0  T
   4   -107.3117967 -0.914405E-05  0.372E-03    3.31       3.5  T
   5   -107.3117967 -0.353577E-07  0.186E-03    3.31       6.9  T
   6   -107.3117968 -0.791231E-07  0.986E-04    3.31      13.1  T
   7   -107.3117968 -0.438220E-08  0.707E-04    3.31      18.3  T
     SCC iter.                  ...        0 min,  0.110 sec
     gradient                   ...        0 min,  0.152 sec
 * total energy  :  -105.7736435 Eh     change       -0.9380609E-04 Eh
   gradient norm :     0.0028622 Eh/α   predicted    -0.7089268E-04 ( -24.43%)
   displ. norm   :     0.2761989 α      lambda       -0.8629176E-04
   maximum displ.:     0.1352821 α      in ANC's #2, #5, #14, ...

........................................................................
.............................. CYCLE   38 ..............................
........................................................................
   1   -107.3110578 -0.107311E+03  0.672E-02    3.31       0.0  T
   2   -107.3110603 -0.240622E-05  0.383E-02    3.31       1.0  T
   3   -107.3110545  0.578325E-05  0.109E-02    3.31       1.2  T
   4   -107.3110616 -0.707953E-05  0.300E-03    3.31       4.3  T
   5   -107.3110616 -0.404968E-07  0.156E-03    3.31       8.3  T
   6   -107.3110616 -0.457208E-07  0.831E-04    3.31      15.5  T
   7   -107.3110616 -0.426537E-08  0.601E-04    3.31      21.5  T
     SCC iter.                  ...        0 min,  0.115 sec
     gradient                   ...        0 min,  0.144 sec
 * total energy  :  -105.7737055 Eh     change       -0.6205111E-04 Eh
   gradient norm :     0.0029442 Eh/α   predicted    -0.4644231E-04 ( -25.15%)
   displ. norm   :     0.2082811 α      lambda       -0.6670678E-04
   maximum displ.:     0.0962728 α      in ANC's #2, #5, #9, ...

........................................................................
.............................. CYCLE   39 ..............................
........................................................................
   1   -107.3113036 -0.107311E+03  0.536E-02    3.31       0.0  T
   2   -107.3113049 -0.129836E-05  0.304E-02    3.31       1.0  T
   3   -107.3113020  0.284667E-05  0.793E-03    3.31       1.6  T
   4   -107.3113056 -0.354476E-05  0.243E-03    3.31       5.3  T
   5   -107.3113056 -0.124961E-07  0.119E-03    3.31      10.8  T
   6   -107.3113056 -0.330135E-07  0.692E-04    3.31      18.7  T
   7   -107.3113056 -0.208846E-08  0.483E-04    3.31      26.7  T
     SCC iter.                  ...        0 min,  0.115 sec
     gradient                   ...        0 min,  0.125 sec
 * total energy  :  -105.7737522 Eh     change       -0.4664850E-04 Eh
   gradient norm :     0.0026504 Eh/α   predicted    -0.3480276E-04 ( -25.39%)
   displ. norm   :     0.2096299 α      lambda       -0.6011458E-04
   maximum displ.:     0.0977203 α      in ANC's #2, #9, #5, ...

........................................................................
.............................. CYCLE   40 ..............................
........................................................................
   1   -107.3111087 -0.107311E+03  0.546E-02    3.32       0.0  T
   2   -107.3111098 -0.114232E-05  0.316E-02    3.32       1.0  T
   3   -107.3111066  0.327191E-05  0.796E-03    3.32       1.6  T
   4   -107.3111105 -0.393271E-05  0.209E-03    3.32       6.2  T
   5   -107.3111105 -0.244825E-07  0.113E-03    3.32      11.4  T
   6   -107.3111105 -0.150680E-07  0.736E-04    3.32      17.6  T
   7   -107.3111106 -0.474309E-08  0.522E-04    3.32      24.7  T
     SCC iter.                  ...        0 min,  0.123 sec
     gradient                   ...        0 min,  0.132 sec
 * total energy  :  -105.7737922 Eh     change       -0.4001998E-04 Eh
   gradient norm :     0.0026002 Eh/α   predicted    -0.3138204E-04 ( -21.58%)
   displ. norm   :     0.1519189 α      lambda       -0.5180174E-04
   maximum displ.:     0.0678329 α      in ANC's #9, #2, #5, ...

........................................................................
.............................. CYCLE   41 ..............................
........................................................................
   1   -107.3119820 -0.107312E+03  0.423E-02    3.32       0.0  T
   2   -107.3119830 -0.961385E-06  0.240E-02    3.32       1.0  T
   3   -107.3119819  0.113778E-05  0.540E-03    3.32       2.4  T
   4   -107.3119833 -0.144730E-05  0.197E-03    3.32       6.6  T
   5   -107.3119833 -0.404875E-07  0.999E-04    3.32      12.9  T
   6   -107.3119834 -0.135546E-07  0.613E-04    3.32      21.1  T
     SCC iter.                  ...        0 min,  0.100 sec
     gradient                   ...        0 min,  0.043 sec
 * total energy  :  -105.7738272 Eh     change       -0.3499748E-04 Eh
   gradient norm :     0.0023239 Eh/α   predicted    -0.2650311E-04 ( -24.27%)
   displ. norm   :     0.1574531 α      lambda       -0.4786903E-04
   maximum displ.:     0.0759574 α      in ANC's #9, #2, #5, ...

........................................................................
.............................. CYCLE   42 ..............................
........................................................................
   1   -107.3123074 -0.107312E+03  0.445E-02    3.31       0.0  T
   2   -107.3123081 -0.705480E-06  0.256E-02    3.31       1.0  T
   3   -107.3123072  0.936976E-06  0.484E-03    3.31       2.7  T
   4   -107.3123084 -0.119658E-05  0.183E-03    3.31       7.1  T
   5   -107.3123084 -0.376804E-07  0.988E-04    3.31      13.1  T
   6   -107.3123084 -0.818675E-08  0.671E-04    3.31      19.3  T
     SCC iter.                  ...        0 min,  0.105 sec
     gradient                   ...        0 min,  0.145 sec
 * total energy  :  -105.7738619 Eh     change       -0.3470481E-04 Eh
   gradient norm :     0.0032188 Eh/α   predicted    -0.2453108E-04 ( -29.32%)
   displ. norm   :     0.2228965 α      lambda       -0.6617391E-04
   maximum displ.:     0.1020972 α      in ANC's #9, #2, #3, ...
 * RMSD in coord.:     0.7735847 α      energy gain  -0.2094764E-02 Eh

generating ANC from model Hessian ...
Using Lindh-Hessian (1995)
 Shifting diagonal of input Hessian by    9.7997505557117122E-003
 Lowest  eigenvalues of input Hessian
    0.000000    0.000000    0.000000    0.000000    0.000000    0.000000
    0.010000    0.010210    0.010421    0.010535    0.010729    0.010776
    0.010865    0.011133    0.011197    0.011630    0.011964    0.012205
 Highest eigenvalues
    2.023261    2.029113    2.031495    2.328338    2.358384    2.404158


........................................................................
.............................. CYCLE   43 ..............................
........................................................................
   1   -107.3124117 -0.107312E+03  0.608E-02    3.32       0.0  T
   2   -107.3124137 -0.199233E-05  0.347E-02    3.32       1.0  T
   3   -107.3124120  0.166683E-05  0.692E-03    3.32       1.9  T
   4   -107.3124142 -0.218839E-05  0.266E-03    3.32       4.9  T
   5   -107.3124143 -0.946089E-07  0.146E-03    3.32       8.8  T
   6   -107.3124143 -0.339703E-07  0.873E-04    3.32      14.8  T
   7   -107.3124143 -0.411602E-08  0.642E-04    3.32      20.1  T
     SCC iter.                  ...        0 min,  0.111 sec
     gradient                   ...        0 min,  0.134 sec
 * total energy  :  -105.7739079 Eh     change       -0.4601304E-04 Eh
   gradient norm :     0.0035538 Eh/α   predicted     0.0000000E+00 (-100.00%)
   displ. norm   :     0.0376992 α      lambda       -0.4173168E-04
   maximum displ.:     0.0163118 α      in ANC's #11, #14, #15, ...

........................................................................
.............................. CYCLE   44 ..............................
........................................................................
   1   -107.3128009 -0.107313E+03  0.135E-02    3.32       0.0  T
   2   -107.3128011 -0.266510E-06  0.780E-03    3.32       1.7  T
   3   -107.3128009  0.233912E-06  0.251E-03    3.32       5.1  T
   4   -107.3128012 -0.297515E-06  0.943E-04    3.32      13.7  T
   5   -107.3128012 -0.164751E-07  0.540E-04    3.32      23.9  T
     SCC iter.                  ...        0 min,  0.081 sec
     gradient                   ...        0 min,  0.157 sec
 * total energy  :  -105.7739400 Eh     change       -0.3205384E-04 Eh
   gradient norm :     0.0016977 Eh/α   predicted    -0.2091130E-04 ( -34.76%)
   displ. norm   :     0.1200045 α      lambda       -0.4523052E-04
   maximum displ.:     0.0577114 α      in ANC's #11, #14, #8, ...

........................................................................
.............................. CYCLE   45 ..............................
........................................................................
   1   -107.3128849 -0.107313E+03  0.350E-02    3.32       0.0  T
   2   -107.3128859 -0.104184E-05  0.202E-02    3.32       1.0  T
   3   -107.3128847  0.120217E-05  0.547E-03    3.32       2.4  T
   4   -107.3128863 -0.153162E-05  0.218E-03    3.32       5.9  T
   5   -107.3128863 -0.642661E-07  0.130E-03    3.32      10.0  T
   6   -107.3128863 -0.999205E-08  0.885E-04    3.32      14.6  T
   7   -107.3128863 -0.634401E-08  0.605E-04    3.32      21.3  T
     SCC iter.                  ...        0 min,  0.130 sec
     gradient                   ...        0 min,  0.148 sec
 * total energy  :  -105.7739689 Eh     change       -0.2895682E-04 Eh
   gradient norm :     0.0025956 Eh/α   predicted    -0.2279321E-04 ( -21.29%)
   displ. norm   :     0.0258757 α      lambda       -0.1251104E-04
   maximum displ.:     0.0112511 α      in ANC's #11, #8, #1, ...

........................................................................
.............................. CYCLE   46 ..............................
........................................................................
   1   -107.3127001 -0.107313E+03  0.731E-03    3.32       0.0  T
   2   -107.3127002 -0.982888E-07  0.420E-03    3.32       3.1  T
   3   -107.3127002  0.420783E-07  0.115E-03    3.32      11.2  T
   4   -107.3127002 -0.532749E-07  0.408E-04    3.32      31.6  T
   5   -107.3127002 -0.587575E-08  0.196E-04    3.32      65.8  T
     SCC iter.                  ...        0 min,  0.080 sec
     gradient                   ...        0 min,  0.131 sec
 * total energy  :  -105.7739798 Eh     change       -0.1084996E-04 Eh
   gradient norm :     0.0017243 Eh/α   predicted    -0.6268819E-05 ( -42.22%)
   displ. norm   :     0.1762234 α      lambda       -0.3747849E-04
   maximum displ.:     0.0758463 α      in ANC's #8, #11, #7, ...

........................................................................
.............................. CYCLE   47 ..............................
........................................................................
   1   -107.3119614 -0.107312E+03  0.481E-02    3.32       0.0  T
   2   -107.3119643 -0.287955E-05  0.271E-02    3.32       1.0  T
   3   -107.3119632  0.113724E-05  0.639E-03    3.32       2.0  T
   4   -107.3119647 -0.154164E-05  0.264E-03    3.32       4.9  T
   5   -107.3119649 -0.144736E-06  0.144E-03    3.32       8.9  T
   6   -107.3119649 -0.277751E-07  0.855E-04    3.32      15.1  T
   7   -107.3119649 -0.486773E-08  0.646E-04    3.32      20.0  T
     SCC iter.                  ...        0 min,  0.111 sec
     gradient                   ...        0 min,  0.136 sec
 * total energy  :  -105.7740049 Eh     change       -0.2515488E-04 Eh
   gradient norm :     0.0024328 Eh/α   predicted    -0.1899817E-04 ( -24.48%)
   displ. norm   :     0.0391767 α      lambda       -0.1079170E-04
   maximum displ.:     0.0172484 α      in ANC's #8, #7, #1, ...

........................................................................
.............................. CYCLE   48 ..............................
........................................................................
   1   -107.3121461 -0.107312E+03  0.106E-02    3.32       0.0  T
   2   -107.3121461 -0.549139E-07  0.590E-03    3.32       2.2  T
   3   -107.3121461  0.606143E-07  0.136E-03    3.32       9.5  T
   4   -107.3121462 -0.822900E-07  0.623E-04    3.32      20.7  T
   5   -107.3121462 -0.308631E-08  0.346E-04    3.32      37.3  T
     SCC iter.                  ...        0 min,  0.084 sec
     gradient                   ...        0 min,  0.127 sec
 * total energy  :  -105.7740146 Eh     change       -0.9726713E-05 Eh
   gradient norm :     0.0017677 Eh/α   predicted    -0.5404554E-05 ( -44.44%)
   displ. norm   :     0.2408800 α      lambda       -0.3631902E-04
   maximum displ.:     0.1050869 α      in ANC's #8, #2, #1, ...

........................................................................
.............................. CYCLE   49 ..............................
........................................................................
   1   -107.3128652 -0.107313E+03  0.645E-02    3.32       0.0  T
   2   -107.3128670 -0.180382E-05  0.358E-02    3.32       1.0  T
   3   -107.3128654  0.160719E-05  0.756E-03    3.32       1.7  T
   4   -107.3128676 -0.222528E-05  0.363E-03    3.32       3.6  T
   5   -107.3128678 -0.122864E-06  0.187E-03    3.32       6.9  T
   6   -107.3128678 -0.424812E-07  0.134E-03    3.32       9.7  T
   7   -107.3128678 -0.806415E-08  0.859E-04    3.32      15.0  T
   8   -107.3128678 -0.898078E-08  0.252E-04    3.32      51.3  T
     SCC iter.                  ...        0 min,  0.127 sec
     gradient                   ...        0 min,  0.140 sec
 * total energy  :  -105.7740418 Eh     change       -0.2714232E-04 Eh
   gradient norm :     0.0017694 Eh/α   predicted    -0.1863040E-04 ( -31.36%)
   displ. norm   :     0.0929366 α      lambda       -0.8505633E-05
   maximum displ.:     0.0397765 α      in ANC's #8, #3, #2, ...

........................................................................
.............................. CYCLE   50 ..............................
........................................................................
   1   -107.3127535 -0.107313E+03  0.242E-02    3.32       0.0  T
   2   -107.3127538 -0.247273E-06  0.136E-02    3.32       1.0  T
   3   -107.3127536  0.198339E-06  0.261E-03    3.32       4.9  T
   4   -107.3127539 -0.261575E-06  0.124E-03    3.32      10.4  T
   5   -107.3127539 -0.216179E-07  0.631E-04    3.32      20.5  T
   6   -107.3127539 -0.451890E-08  0.423E-04    3.32      30.5  T
     SCC iter.                  ...        0 min,  0.095 sec
     gradient                   ...        0 min,  0.130 sec
 * total energy  :  -105.7740523 Eh     change       -0.1052963E-04 Eh
   gradient norm :     0.0010690 Eh/α   predicted    -0.4269758E-05 ( -59.45%)
   displ. norm   :     0.1553711 α      lambda       -0.1415743E-04
   maximum displ.:     0.0663556 α      in ANC's #3, #2, #8, ...

........................................................................
.............................. CYCLE   51 ..............................
........................................................................
   1   -107.3128605 -0.107313E+03  0.410E-02    3.32       0.0  T
   2   -107.3128610 -0.546636E-06  0.230E-02    3.32       1.0  T
   3   -107.3128604  0.632431E-06  0.459E-03    3.32       2.8  T
   4   -107.3128612 -0.835833E-06  0.216E-03    3.32       6.0  T
   5   -107.3128613 -0.503631E-07  0.106E-03    3.32      12.1  T
   6   -107.3128613 -0.112454E-07  0.773E-04    3.32      16.7  T
   7   -107.3128613 -0.220970E-08  0.515E-04    3.32      25.0  T
     SCC iter.                  ...        0 min,  0.113 sec
     gradient                   ...        0 min,  0.121 sec
 * total energy  :  -105.7740668 Eh     change       -0.1453367E-04 Eh
   gradient norm :     0.0007604 Eh/α   predicted    -0.7155640E-05 ( -50.77%)
   displ. norm   :     0.1556744 α      lambda        0.3846026E-07
   maximum displ.:     0.0663556 α      in ANC's #3, #2, #8, ...

........................................................................
.............................. CYCLE   52 ..............................
........................................................................
   1   -107.3126819 -0.107313E+03  0.410E-02    3.32       0.0  T
   2   -107.3126825 -0.543578E-06  0.230E-02    3.32       1.0  T
   3   -107.3126819  0.582785E-06  0.447E-03    3.32       2.9  T
   4   -107.3126827 -0.775416E-06  0.210E-03    3.32       6.2  T
   5   -107.3126827 -0.486031E-07  0.998E-04    3.32      12.9  T
   6   -107.3126827 -0.106964E-07  0.718E-04    3.32      18.0  T
     SCC iter.                  ...        0 min,  0.099 sec
     gradient                   ...        0 min,  0.130 sec
 * total energy  :  -105.7740675 Eh     change       -0.6351633E-06 Eh
   gradient norm :     0.0021636 Eh/α   predicted     0.1796491E-07 (-102.83%)
   displ. norm   :     0.0119081 α      lambda       -0.8028237E-05
   maximum displ.:     0.0071463 α      in ANC's #13, #11, #15, ...

........................................................................
.............................. CYCLE   53 ..............................
........................................................................
   1   -107.3126342 -0.107313E+03  0.439E-03    3.32       0.0  T
   2   -107.3126343 -0.431007E-07  0.260E-03    3.32       5.0  T
   3   -107.3126342  0.247231E-07  0.916E-04    3.32      14.1  T
   4   -107.3126343 -0.325304E-07  0.309E-04    3.32      41.8  T
     SCC iter.                  ...        0 min,  0.065 sec
     gradient                   ...        0 min,  0.054 sec
 * total energy  :  -105.7740738 Eh     change       -0.6358657E-05 Eh
   gradient norm :     0.0013524 Eh/α   predicted    -0.4015083E-05 ( -36.86%)
   displ. norm   :     0.0638497 α      lambda       -0.1121619E-04
   maximum displ.:     0.0286535 α      in ANC's #3, #2, #13, ...

........................................................................
.............................. CYCLE   54 ..............................
........................................................................
   1   -107.3126605 -0.107313E+03  0.173E-02    3.32       0.0  T
   2   -107.3126609 -0.398119E-06  0.999E-03    3.32       1.3  T
   3   -107.3126605  0.400545E-06  0.305E-03    3.32       4.2  T
   4   -107.3126610 -0.498315E-06  0.956E-04    3.32      13.5  T
   5   -107.3126610 -0.240410E-07  0.574E-04    3.32      22.5  T
     SCC iter.                  ...        0 min,  0.080 sec
     gradient                   ...        0 min,  0.133 sec
 * total energy  :  -105.7740813 Eh     change       -0.7473089E-05 Eh
   gradient norm :     0.0010573 Eh/α   predicted    -0.5628537E-05 ( -24.68%)
   displ. norm   :     0.0496462 α      lambda       -0.2902586E-05
   maximum displ.:     0.0241809 α      in ANC's #3, #2, #1, ...

........................................................................
.............................. CYCLE   55 ..............................
........................................................................
   1   -107.3126916 -0.107313E+03  0.127E-02    3.32       0.0  T
   2   -107.3126917 -0.537553E-07  0.724E-03    3.32       1.8  T
   3   -107.3126916  0.983338E-07  0.161E-03    3.32       8.0  T
   4   -107.3126917 -0.124973E-06  0.655E-04    3.32      19.7  T
   5   -107.3126917 -0.289388E-08  0.369E-04    3.32      35.0  T
     SCC iter.                  ...        0 min,  0.079 sec
     gradient                   ...        0 min,  0.142 sec
 * total energy  :  -105.7740847 Eh     change       -0.3385129E-05 Eh
   gradient norm :     0.0004984 Eh/α   predicted    -0.1453961E-05 ( -57.05%)
   displ. norm   :     0.0494929 α      lambda       -0.1563651E-05
   maximum displ.:     0.0241815 α      in ANC's #3, #2, #1, ...

   *** GEOMETRY OPTIMIZATION CONVERGED AFTER 55 ITERATIONS ***

------------------------------------------------------------------------
 total energy gain   :        -0.0205474 Eh      -12.8937 kcal/mol
 total RMSD          :         1.2563196 a0        0.6648 Å
 total power (kW/mol):        -0.9808597 (step)   -2.4672 (real)
------------------------------------------------------------------------

 ANCopt (total)                0 d,  0 h,  0 min, 21.866 sec
 optimizer setup                ...        0 min,  0.000 sec (  0.001%)
 model hessian                  ...        0 min,  0.116 sec (  0.530%)
 ANC generation                 ...        0 min,  0.029 sec (  0.134%)
 coordinate transformation      ...        0 min,  0.003 sec (  0.015%)
 single point calculation       ...        0 min, 20.999 sec ( 96.036%)
 optimization log               ...        0 min,  0.034 sec (  0.155%)
 hessian update                 ...        0 min,  0.639 sec (  2.921%)
 rational function              ...        0 min,  0.021 sec (  0.095%)

================
 final structure:
================
60
 xtb: 6.3.3 (4ae9cef)
O        -2.69354109842914    1.09479288213074   -1.49636849056037
C        -2.09066900333143    0.19727691240456   -0.95274833536357
C        -2.24124760588821   -1.23482574852519   -1.34817128997907
C        -2.53054162007498   -2.24823627432234   -0.43853655859648
C        -2.65119908830764   -3.55514331958492   -0.88095917985599
C        -2.48013115549894   -3.86716576828262   -2.21866706156716
C        -2.21005415547782   -2.84762227881433   -3.11674754370336
Br       -1.97719081915873   -3.25877222532439   -4.95899922783891
C        -2.09972839977577   -1.53369983194122   -2.69929567588234
N        -1.20574011281094    0.44587117768512    0.06447045467319
C        -0.20452112556962   -0.46627027928439    0.54644114008939
C        -0.40853206817768   -0.73295546419343    2.05557429254871
O         0.46176231510888   -0.07743082592841    2.80959681065020
O        -1.25643450789972   -1.46468934388545    2.48469485277177
N         1.03359669101826    0.22204481544875    0.28284982114914
C         2.27937926208365   -0.31277191198403    0.33265092496543
C         2.28057484889324   -1.81179674445508    0.40969419174273
C         1.77068795699826   -2.55566160941330   -0.64835240566852
C         1.75003358270727   -3.93495386171400   -0.55366743790028
Br        0.99257372116899   -4.94380087637549   -1.97780106771805
C         2.24356814899437   -4.58874088884886    0.56325887025825
C         2.77722035423239   -3.83958048431792    1.59725068499231
C         2.79645403408378   -2.45644241352183    1.52527267241061
O         3.28553653728396    0.35791660482494    0.29893877144794
C         0.81533341209805    1.66164099532772    0.17534292518500
C         1.32597177874717    2.17835853011500   -1.14553407099947
C         1.01523968404549    1.50917922151523   -2.32292912093402
C         1.46238117657819    1.98905018240376   -3.53980063995337
C         2.22387218308598    3.14423570711944   -3.59138849034350
C         2.53839003719003    3.81400854049169   -2.42194834239050
C         2.09199276801251    3.33273602819393   -1.20391167861583
C        -0.72604675861522    1.80059849489742    0.30088043537352
C        -1.17899735478955    2.35739013042855    1.62988123030098
C        -2.19041737481201    1.74829281935051    2.36002825130908
C        -2.58973727067281    2.27285592749605    3.57772995425594
C        -1.99217478133945    3.41824770079796    4.07282514108098
C        -1.00479222838801    4.04877598579178    3.33420897879723
C        -0.60316865168436    3.52407856767784    2.11936180667771
H        -2.66355609732110   -2.01854367461150    0.60730019359989
H        -2.87388639204954   -4.34037110103833   -0.17543911377380
H        -2.55368598134069   -4.88693010680589   -2.56226702402014
H        -1.90416972913971   -0.74176661911673   -3.40665768300420
H        -0.27514817863878   -1.43395071326435    0.03743446403643
H         0.29907033117427   -0.23459018127524    3.75446883262952
H         1.40709694020315   -2.06528719282827   -1.54002428561660
H         2.21505306353845   -5.66600340467844    0.61806439287056
H         3.17679125883220   -4.34080888581395    2.46537248406756
H         3.21019724198153   -1.86880892651889    2.33008269546206
H         1.33342278280203    2.16380466312490    0.99867059952452
H         0.42111609630080    0.60638320840349   -2.28822459806886
H         1.21698278745010    1.46080379770686   -4.44908078445712
H         2.57413784662053    3.51839152467557   -4.54166738265736
H         3.13696811964381    4.71196077325826   -2.45680083870964
H         2.34862283968934    3.85101295664960   -0.29173294812379
H        -1.12690867919118    2.43359191338155   -0.50114122863493
H        -2.67915576932424    0.86642008833674    1.97407566939509
H        -3.37430216997935    1.78427291276359    4.13610674084734
H        -2.30327817062959    3.82593887535163    5.02300041649907
H        -0.54811901207291    4.95490260831027    3.70334266882329
H         0.15305155981155    4.03278341060562    1.53998913650635

 Bond Distances (Angstroems)
 ---------------------------
O1-C2=1.2102         C2-O1=1.2102         C2-C3=1.4933         C2-N10=1.3710        C3-C2=1.4933         C3-C4=1.3922         
C3-C9=1.3910         C4-C3=1.3922         C4-C5=1.3850         C4-H39=1.0790        C5-C4=1.3850         C5-C6=1.3842         
C5-H40=1.0789        C6-C5=1.3842         C6-C7=1.3853         C6-H41=1.0786        C7-C6=1.3853         C7-Br8=1.9019        
[...]
                  HL-Gap            0.1219771 Eh            3.3192 eV
             Fermi-level           -0.3441708 Eh           -9.3654 eV

 SCC (total)                   0 d,  0 h,  0 min,  0.310 sec
 SCC setup                      ...        0 min,  0.009 sec (  3.008%)
 Dispersion                     ...        0 min,  0.017 sec (  5.329%)
 classical contributions        ...        0 min,  0.014 sec (  4.474%)
 integral evaluation            ...        0 min,  0.081 sec ( 26.000%)
 iterations                     ...        0 min,  0.048 sec ( 15.638%)
 molecular gradient             ...        0 min,  0.139 sec ( 44.878%)
 printout                       ...        0 min,  0.002 sec (  0.642%)

         :::::::::::::::::::::::::::::::::::::::::::::::::::::
         ::                     SUMMARY                     ::
         :::::::::::::::::::::::::::::::::::::::::::::::::::::
         :: total energy            -105.774084701302 Eh    ::
         :: gradient norm              0.000498861563 Eh/a0 ::
         :: HOMO-LUMO gap              3.319165961516 eV    ::
         ::.................................................::
         :: SCC energy              -107.312691734670 Eh    ::
         :: -> isotropic ES            0.122756057517 Eh    ::
         :: -> anisotropic ES          0.003350362520 Eh    ::
         :: -> anisotropic XC          0.037891772392 Eh    ::
         :: -> dispersion             -0.092007686169 Eh    ::
         :: repulsion energy           1.535206947800 Eh    ::
         :: add. restraining           0.000000000000 Eh    ::
         :: total charge              -0.000000000000 e     ::
         :::::::::::::::::::::::::::::::::::::::::::::::::::::

           -------------------------------------------------
          |                Property Printout                |
           -------------------------------------------------

    * Orbital Energies and Occupations

         #    Occupation            Energy/Eh            Energy/eV
      -------------------------------------------------------------
         1        2.0000           -0.8505696             -23.1452
       ...           ...                  ...                  ...
        83        2.0000           -0.4329438             -11.7810
        84        2.0000           -0.4304316             -11.7126
        85        2.0000           -0.4259807             -11.5915
        86        2.0000           -0.4226683             -11.5014
        87        2.0000           -0.4212906             -11.4639
        88        2.0000           -0.4167565             -11.3405
        89        2.0000           -0.4163001             -11.3281
        90        2.0000           -0.4150285             -11.2935
        91        2.0000           -0.4143236             -11.2743
        92        2.0000           -0.4116010             -11.2002
        93        2.0000           -0.4111042             -11.1867
        94        2.0000           -0.4058784             -11.0445
        95        2.0000           -0.4051593             -11.0249 (HOMO)
        96                         -0.2831822              -7.7058 (LUMO)
        97                         -0.2739070              -7.4534
        98                         -0.2737550              -7.4493
        99                         -0.2672133              -7.2712
       100                         -0.2583234              -7.0293
       101                         -0.2434494              -6.6246
       102                         -0.2402435              -6.5374
       103                         -0.2349387              -6.3930
       104                         -0.2323071              -6.3214
       105                         -0.2290593              -6.2330
       106                         -0.2242093              -6.1010
       ...                                ...                  ...
       184                          0.6561463              17.8546
      -------------------------------------------------------------
                  HL-Gap            0.1219771 Eh            3.3192 eV
             Fermi-level           -0.3441708 Eh           -9.3654 eV

     #   Z          covCN         q      C6AA      α(0)
     1   8 O        0.859    -0.403    21.734     6.251
     2   6 C        2.764     0.273    22.378     7.747
     3   6 C        2.977    -0.018    28.448     8.749
     4   6 C        2.918    -0.037    28.928     8.820
     5   6 C        2.922    -0.024    28.592     8.769
     6   6 C        2.991    -0.029    28.707     8.789
     7   6 C        2.916     0.088    26.035     8.367
     8  35 Br       1.071    -0.150   189.193    22.178
     9   6 C        3.001    -0.028    28.686     8.786
    10   7 N        2.766    -0.116    23.534     7.205
    11   6 C        3.776     0.088    19.152     6.235
    12   6 C        2.688     0.351    21.032     7.505
    13   8 O        1.659    -0.352    19.942     6.028
    14   8 O        0.856    -0.388    21.451     6.210
    15   7 N        2.769    -0.116    23.518     7.203
    16   6 C        2.761     0.273    22.381     7.747
    17   6 C        2.980    -0.017    28.416     8.744
    18   6 C        3.000    -0.038    28.941     8.825
    19   6 C        2.917     0.082    26.164     8.388
    20  35 Br       1.072    -0.153   189.279    22.183
    21   6 C        2.989    -0.033    28.805     8.804
    22   6 C        2.923    -0.024    28.604     8.771
    23   6 C        2.921    -0.026    28.640     8.776
    24   8 O        0.859    -0.406    21.802     6.260
    25   6 C        3.824     0.040    19.888     6.346
    26   6 C        2.974     0.007    27.856     8.657
    27   6 C        2.925    -0.027    28.686     8.783
    28   6 C        2.919    -0.025    28.631     8.775
    29   6 C        2.921    -0.027    28.669     8.780
    30   6 C        2.920    -0.025    28.617     8.772
    31   6 C        2.924    -0.029    28.716     8.788
    32   6 C        3.841     0.036    19.944     6.353
    33   6 C        2.970     0.002    27.968     8.675
    34   6 C        2.923    -0.034    28.850     8.808
    35   6 C        2.920    -0.028    28.701     8.785
    36   6 C        2.920    -0.030    28.760     8.794
    37   6 C        2.920    -0.027    28.673     8.781
    38   6 C        2.924    -0.036    28.907     8.817
    39   1 H        0.926     0.060     2.197     2.318
    40   1 H        0.926     0.054     2.266     2.354
    41   1 H        0.926     0.067     2.118     2.276
    42   1 H        0.926     0.067     2.118     2.276
    43   1 H        0.924     0.069     2.094     2.263
    44   1 H        0.804     0.346     0.598     1.215
    45   1 H        0.926     0.049     2.327     2.386
    46   1 H        0.926     0.062     2.172     2.305
    47   1 H        0.926     0.055     2.258     2.350
    48   1 H        0.926     0.055     2.257     2.349
    49   1 H        0.924     0.067     2.118     2.276
    50   1 H        0.925     0.019     2.747     2.592
    51   1 H        0.926     0.040     2.450     2.448
    52   1 H        0.926     0.040     2.453     2.449
    53   1 H        0.926     0.040     2.447     2.446
    54   1 H        0.926     0.036     2.502     2.473
    55   1 H        0.924     0.088     1.895     2.153
    56   1 H        0.926     0.035     2.518     2.482
    57   1 H        0.926     0.039     2.459     2.452
    58   1 H        0.926     0.038     2.474     2.459
    59   1 H        0.926     0.040     2.453     2.449
    60   1 H        0.926     0.036     2.504     2.475

 Mol. C6AA /au·bohr⁶  :      59187.223650
 Mol. C8AA /au·bohr⁸  :    1674903.039504
 Mol. α(0) /au        :        386.498512


Wiberg/Mayer (AO) data.
largest (>0.10) Wiberg bond orders for each atom

 ---------------------------------------------------------------------------
     #   Z sym  total        # sym  WBO       # sym  WBO       # sym  WBO
 ---------------------------------------------------------------------------
     1   8 O    2.040 --     2 C    1.712    10 N    0.183
     2   6 C    3.942 --     1 O    1.712    10 N    1.173     3 C    0.975
     3   6 C    3.987 --     9 C    1.398     4 C    1.393     2 C    0.975
                             6 C    0.105
     4   6 C    3.989 --     5 C    1.439     3 C    1.393    39 H    0.964
     5   6 C    3.990 --     4 C    1.439     6 C    1.438    40 H    0.967
                             9 C    0.107
     6   6 C    3.988 --     5 C    1.438     7 C    1.405    41 H    0.967
                             3 C    0.105
     7   6 C    3.943 --     9 C    1.416     6 C    1.405     8 Br   0.990
     8  35 Br   1.124 --     7 C    0.990
     9   6 C    3.988 --     7 C    1.416     3 C    1.398    42 H    0.965
                             5 C    0.107
    10   7 N    3.449 --     2 C    1.173    11 C    0.990    32 C    0.964
                             1 O    0.183
    11   6 C    3.974 --    10 N    0.990    15 N    0.986    43 H    0.930
                            12 C    0.907
    12   6 C    3.919 --    14 O    1.771    13 O    1.169    11 C    0.907
    13   8 O    2.234 --    12 C    1.169    44 H    0.854    14 O    0.184
    14   8 O    2.058 --    12 C    1.771    13 O    0.184
    15   7 N    3.466 --    16 C    1.209    11 C    0.986    25 C    0.953
                            24 O    0.195
    16   6 C    3.948 --    24 O    1.705    15 N    1.209    17 C    0.954
    17   6 C    3.987 --    23 C    1.411    18 C    1.398    16 C    0.954
                            21 C    0.108
    18   6 C    3.990 --    19 C    1.417    17 C    1.398    45 H    0.966
                            22 C    0.109
    19   6 C    3.943 --    18 C    1.417    21 C    1.405    20 Br   0.986
    20  35 Br   1.120 --    19 C    0.986
    21   6 C    3.989 --    22 C    1.442    19 C    1.405    46 H    0.967
                            17 C    0.108
    22   6 C    3.990 --    21 C    1.442    23 C    1.435    47 H    0.967
                            18 C    0.109
    23   6 C    3.990 --    22 C    1.435    17 C    1.411    48 H    0.968
    24   8 O    2.032 --    16 C    1.705    15 N    0.195
    25   6 C    3.959 --    26 C    0.989    15 N    0.953    49 H    0.952
                            32 C    0.951
    26   6 C    3.985 --    31 C    1.416    27 C    1.410    25 C    0.989
                            29 C    0.110
    27   6 C    3.992 --    28 C    1.448    26 C    1.410    50 H    0.969
                            30 C    0.112
    28   6 C    3.992 --    27 C    1.448    29 C    1.436    51 H    0.971
                            31 C    0.111
    29   6 C    3.990 --    30 C    1.442    28 C    1.436    52 H    0.971
                            26 C    0.110
    30   6 C    3.992 --    29 C    1.442    31 C    1.441    53 H    0.970
                            27 C    0.112
    31   6 C    3.990 --    30 C    1.441    26 C    1.416    54 H    0.968
                            28 C    0.111
    32   6 C    3.958 --    33 C    0.989    10 N    0.964    25 C    0.951
                            55 H    0.939
    33   6 C    3.985 --    34 C    1.417    38 C    1.406    32 C    0.989
                            36 C    0.109
    34   6 C    3.991 --    35 C    1.438    33 C    1.417    56 H    0.967
                            37 C    0.110
    35   6 C    3.992 --    36 C    1.444    34 C    1.438    57 H    0.971
                            38 C    0.112
    36   6 C    3.992 --    35 C    1.444    37 C    1.434    58 H    0.971
                            33 C    0.109
    37   6 C    3.991 --    38 C    1.450    36 C    1.434    59 H    0.970
                            34 C    0.110
    38   6 C    3.991 --    37 C    1.450    33 C    1.406    60 H    0.967
                            35 C    0.112
    39   1 H    0.996 --     4 C    0.964
    40   1 H    0.996 --     5 C    0.967
    41   1 H    0.995 --     6 C    0.967
    42   1 H    0.995 --     9 C    0.965
    43   1 H    0.995 --    11 C    0.930
    44   1 H    0.880 --    13 O    0.854
    45   1 H    0.998 --    18 C    0.966
    46   1 H    0.996 --    21 C    0.967
    47   1 H    0.997 --    22 C    0.967
    48   1 H    0.996 --    23 C    0.968
    49   1 H    0.995 --    25 C    0.952
    50   1 H    1.000 --    27 C    0.969
    51   1 H    0.998 --    28 C    0.971
    52   1 H    0.998 --    29 C    0.971
    53   1 H    0.998 --    30 C    0.970
    54   1 H    0.999 --    31 C    0.968
    55   1 H    0.992 --    32 C    0.939
    56   1 H    0.999 --    34 C    0.967
    57   1 H    0.998 --    35 C    0.971
    58   1 H    0.998 --    36 C    0.971
    59   1 H    0.998 --    37 C    0.970
    60   1 H    0.999 --    38 C    0.967
 ---------------------------------------------------------------------------

Topologies differ in total number of bonds
Writing topology from bond orders to xtbtopo.mol

molecular dipole:
                 x           y           z       tot (Debye)
 q only:        0.323       0.274       2.102
   full:        0.507       0.265       3.048       7.883
molecular quadrupole (traceless):
                xx          xy          yy          xz          yz          zz
 q only:      -15.698       1.308      12.514      -4.674      -9.578       3.184
  q+dip:      -16.496       2.793      14.931      -7.715     -19.326       1.565
   full:      -10.772      -1.252      11.404      -7.366     -19.397      -0.632

           -------------------------------------------------
          |                Geometry Summary                 |
           -------------------------------------------------

      molecular mass/u    :      634.3148552
   center of mass at/Å    :       -0.1278497      -0.9911211      -0.8019078
  moments of inertia/u·Å² :        0.4727473E+04   0.8515521E+04   0.9119961E+04
rotational constants/cm⁻¹ :        0.3565886E-02   0.1979636E-02   0.1848433E-02

 * 58 selected distances

     #   Z          #   Z                                           value/Å
     1   8 O        2   6 C                                       1.2101705
     3   6 C        4   6 C                                       1.3921664
     4   6 C        5   6 C                                       1.3850278
     5   6 C        6   6 C                                       1.3842271
     6   6 C        7   6 C                                       1.3852650
     7   6 C        8  35 Br                                      1.9018835
     3   6 C        9   6 C                                       1.3910034
     7   6 C        9   6 C                                       1.3830510
     2   6 C       10   7 N                                       1.3709968
    10   7 N       11   6 C                                       1.4376151
    12   6 C       13   8 O                                       1.3250188
    12   6 C       14   8 O                                       1.1993821
    11   6 C       15   7 N                                       1.4409003
    15   7 N       16   6 C                                       1.3566441
    17   6 C       18   6 C                                       1.3902454
    18   6 C       19   6 C                                       1.3826926
    19   6 C       20  35 Br                                      1.9025442 (max)
    19   6 C       21   6 C                                       1.3851131
    21   6 C       22   6 C                                       1.3838949
    17   6 C       23   6 C                                       1.3878814
    22   6 C       23   6 C                                       1.3851432
    16   6 C       24   8 O                                       1.2096744
    15   7 N       25   6 C                                       1.4600116
    26   6 C       27   6 C                                       1.3894655
    27   6 C       28   6 C                                       1.3823849
    28   6 C       29   6 C                                       1.3845517
    29   6 C       30   6 C                                       1.3838741
    26   6 C       31   6 C                                       1.3866447
    30   6 C       31   6 C                                       1.3836571
    10   7 N       32   6 C                                       1.4564620
    33   6 C       34   6 C                                       1.3881947
    34   6 C       35   6 C                                       1.3847095
    35   6 C       36   6 C                                       1.3835182
    36   6 C       37   6 C                                       1.3849347
    33   6 C       38   6 C                                       1.3900834
    37   6 C       38   6 C                                       1.3829181
     4   6 C       39   1 H                                       1.0789931
     5   6 C       40   1 H                                       1.0788563
     6   6 C       41   1 H                                       1.0786058
     9   6 C       42   1 H                                       1.0797048
    11   6 C       43   1 H                                       1.0956648
    13   8 O       44   1 H                                       0.9715713 (min)
    18   6 C       45   1 H                                       1.0806222
    21   6 C       46   1 H                                       1.0790326
    22   6 C       47   1 H                                       1.0791303
    23   6 C       48   1 H                                       1.0789883
    25   6 C       49   1 H                                       1.0947390
    27   6 C       50   1 H                                       1.0813084
    28   6 C       51   1 H                                       1.0798403
    29   6 C       52   1 H                                       1.0796799
    30   6 C       53   1 H                                       1.0797354
    31   6 C       54   1 H                                       1.0800648
    32   6 C       55   1 H                                       1.0975471
    34   6 C       56   1 H                                       1.0795944
    35   6 C       57   1 H                                       1.0798334
    36   6 C       58   1 H                                       1.0797363
    37   6 C       59   1 H                                       1.0797572
    38   6 C       60   1 H                                       1.0799640

 * 6 distinct bonds (by element types)

   Z      Z             #   av. dist./Å        max./Å        min./Å
   1 H    6 C          21     1.0819713     1.0975471     1.0786058
   6 C    6 C          24     1.3858603     1.3921664     1.3823849
   6 C    7 N           6     1.4204383     1.4600116     1.3566441
   1 H    8 O           1     0.9715713     0.9715713     0.9715713
   6 C    8 O           4     1.2360614     1.3250188     1.1993821
   6 C   35 Br          2     1.9022138     1.9025442     1.9018835


optimized geometry written to: xtbopt.xyz


           -------------------------------------------------
          | TOTAL ENERGY             -105.774084701302 Eh   |
          | GRADIENT NORM               0.000498861563 Eh/α |
          | HOMO-LUMO GAP               3.319165961516 eV   |
           -------------------------------------------------

------------------------------------------------------------------------
 * finished run on 2022/03/16 at 23:24:51.860     
------------------------------------------------------------------------
 total:
 * wall-time:     0 d,  0 h,  0 min, 22.831 sec
 *  cpu-time:     0 d,  0 h,  8 min, 37.692 sec
 * ratio c/w:    22.675 speedup
 SCF:
 * wall-time:     0 d,  0 h,  0 min,  0.534 sec
 *  cpu-time:     0 d,  0 h,  0 min,  8.941 sec
 * ratio c/w:    16.741 speedup
 ANC optimizer:
 * wall-time:     0 d,  0 h,  0 min, 22.177 sec
 *  cpu-time:     0 d,  0 h,  8 min, 24.858 sec
 * ratio c/w:    22.765 speedup

