      -----------------------------------------------------------      
     |                   =====================                   |     
     |                           x T B                           |     
     |                   =====================                   |     
     |                         S. Grimme                         |     
     |          Mulliken Center for Theoretical Chemistry        |     
     |                    University of Bonn                     |     
      -----------------------------------------------------------      

   * xtb version 6.3.3 (4ae9cef) compiled by 'conda@95abc7406d43' on 2020-10-14

   xtb is free software: you can redistribute it and/or modify it under
   the terms of the GNU Lesser General Public License as published by
   the Free Software Foundation, either version 3 of the License, or
   (at your option) any later version.
   
   xtb is distributed in the hope that it will be useful,
   but WITHOUT ANY WARRANTY; without even the implied warranty of
   MERCHANTABILITY or FITNESS FOR A PARTICULAR PURPOSE.  See the
   GNU Lesser General Public License for more details.
   
   Cite this work as:
   * C. Bannwarth, E. Caldeweyher, S. Ehlert, A. Hansen, P. Pracht,
     J. Seibert, S. Spicher, S. Grimme, WIREs Comput. Mol. Sci., 2020,
     e01493. DOI: 10.1002/wcms.1493
   
   for GFN2-xTB:
   * S. Grimme, C. Bannwarth, P. Shushkov, J. Chem. Theory Comput., 2017,
     13, 1989-2009. DOI: 10.1021/acs.jctc.7b00118
   for GFN1-xTB:
   * C. Bannwarth, S. Ehlert and S. Grimme., J. Chem. Theory Comput., 2019,
     15, 1652-1671. DOI: 10.1021/acs.jctc.8b01176
   for GFN0-xTB:
   * P. Pracht, E. Caldeweyher, S. Ehlert, S. Grimme, ChemRxiv, 2019, preprint.
     DOI: 10.26434/chemrxiv.8326202.v1
   for GFN-FF:
   * S. Spicher and S. Grimme, Angew. Chem. Int. Ed., 2020, 59, 15665-15673.
     DOI: 10.1002/anie.202004239
   
   for DFT-D4:
   * E. Caldeweyher, C. Bannwarth and S. Grimme, J. Chem. Phys., 2017,
     147, 034112. DOI: 10.1063/1.4993215
   * E. Caldeweyher, S. Ehlert, A. Hansen, H. Neugebauer, S. Spicher,
     C. Bannwarth and S. Grimme, J. Chem. Phys., 2019, 150, 154122.
     DOI: 10.1063/1.5090222
   * E. Caldeweyher, J.-M. Mewes, S. Ehlert and S. Grimme, Phys. Chem. Chem. Phys.
     2020, 22, 8499-8512. DOI: 10.1039/D0CP00502A
   
   for sTDA-xTB:
   * S. Grimme and C. Bannwarth, J. Chem. Phys., 2016, 145, 054103.
     DOI: 10.1063/1.4959605
   
   in the mass-spec context:
   * V. Asgeirsson, C. Bauer and S. Grimme, Chem. Sci., 2017, 8, 4879.
     DOI: 10.1039/c7sc00601b
   * J. Koopman and S. Grimme, ACS Omega 2019, 4, 12, 15120-15133.
     DOI: 10.1021/acsomega.9b02011
   
   for metadynamics refer to:
   * S. Grimme, J. Chem. Theory Comput., 2019, 155, 2847-2862
     DOI: 10.1021/acs.jctc.9b00143
   
   with help from (in alphabetical order)
   C. Bannwarth, F. Bohle, G. Brandenburg, E. Caldeweyher, M. Checinski,
   S. Dohm, S. Ehlert, S. Ehrlich, F. März, H. Neugebauer, J. Pisarek,
   P. Pracht, P. Shushkov, and S. Spicher.
   
 * started run on 2022/03/16 at 22:52:22.966     

           -------------------------------------------------
          |                Calculation Setup                |
           -------------------------------------------------

          program call               : xtb acid_243.xyz --opt --chrg 0 --uhf 0 --gfn 2
          coordinate file            : acid_243.xyz
          omp threads                :                    64
          number of atoms            :                    86
          number of electrons        :                   238
          charge                     :                     0
          spin                       :                   0.0
          first test random number   :      0.33304555297901

   ID    Z sym.   atoms
    1    6 C      1, 3-16, 18, 20-29, 31, 32, 36-45
    2    8 O      2, 17, 30, 33, 34, 46
    3    7 N      19, 35
    4    1 H      47-86

           -------------------------------------------------
          |                 G F N 2 - x T B                 |
           -------------------------------------------------

        Reference                      10.1021/acs.jctc.8b01176
      * Hamiltonian:
        H0-scaling (s, p, d)           1.850000    2.230000    2.230000
        zeta-weighting                 0.500000
      * Dispersion:
        s8                             2.700000
        a1                             0.520000
        a2                             5.000000
        s9                             5.000000
      * Repulsion:
        kExp                           1.500000    1.000000
        rExp                           1.000000
      * Coulomb:
        alpha                          2.000000
        third order                    shell-resolved
        anisotropic                    true
        a3                             3.000000
        a5                             4.000000
        cn-shift                       1.200000
        cn-exp                         4.000000
        max-rad                        5.000000


          ...................................................
          :                      SETUP                      :
          :.................................................:
          :  # basis functions                 224          :
          :  # atomic orbitals                 224          :
          :  # shells                          132          :
          :  # electrons                       238          :
          :  max. iterations                   250          :
          :  Hamiltonian                  GFN2-xTB          :
          :  restarted?                      false          :
          :  GBSA solvation                  false          :
          :  PC potential                    false          :
          :  electronic temp.          300.0000000     K    :
          :  accuracy                    1.0000000          :
          :  -> integral cutoff          0.2500000E+02      :
          :  -> integral neglect         0.1000000E-07      :
          :  -> SCF convergence          0.1000000E-05 Eh   :
          :  -> wf. convergence          0.1000000E-03 e    :
          :  Broyden damping             0.4000000          :
          ...................................................

 iter      E             dE          RMSdq      gap      omega  full diag
   1   -133.6317895 -0.133632E+03  0.429E+00    3.45       0.0  T
   2   -133.8240501 -0.192261E+00  0.243E+00    3.12       1.0  T
   3   -133.8219871  0.206294E-02  0.116E+00    3.62       1.0  T
   4   -133.8447946 -0.228075E-01  0.259E-01    3.01       1.0  T
   5   -133.8479409 -0.314630E-02  0.963E-02    3.07       1.0  T
   6   -133.8482398 -0.298858E-03  0.469E-02    3.10       1.0  T
   7   -133.8482739 -0.341453E-04  0.194E-02    3.09       1.0  T
   8   -133.8482782 -0.429551E-05  0.622E-03    3.11       1.7  T
   9   -133.8482793 -0.104223E-05  0.289E-03    3.11       3.7  T
  10   -133.8482796 -0.363639E-06  0.111E-03    3.10       9.7  T
  11   -133.8482796 -0.302697E-07  0.544E-04    3.10      19.8  T
  12   -133.8482797 -0.504349E-08  0.241E-04    3.10      44.7  T

   *** convergence criteria satisfied after 12 iterations ***

         #    Occupation            Energy/Eh            Energy/eV
      -------------------------------------------------------------
         1        2.0000           -0.7600768             -20.6827
       ...           ...                  ...                  ...
       113        2.0000           -0.3990016             -10.8574
       114        2.0000           -0.3985552             -10.8452
       115        2.0000           -0.3919339             -10.6651
       116        2.0000           -0.3903869             -10.6230
       117        2.0000           -0.3861196             -10.5068
       118        2.0000           -0.3837282             -10.4418
       119        2.0000           -0.3825320             -10.4092 (HOMO)
       120                         -0.2684659              -7.3053 (LUMO)
       121                         -0.2386582              -6.4942
       122                         -0.2368260              -6.4444
       123                         -0.2331343              -6.3439
       124                         -0.2327364              -6.3331
       ...                                ...                  ...
       224                          0.6204993              16.8846
      -------------------------------------------------------------
                  HL-Gap            0.1140662 Eh            3.1039 eV
             Fermi-level           -0.3254990 Eh           -8.8573 eV

 SCC (total)                   0 d,  0 h,  0 min,  0.649 sec
 SCC setup                      ...        0 min,  0.016 sec (  2.420%)
 Dispersion                     ...        0 min,  0.020 sec (  3.116%)
 classical contributions        ...        0 min,  0.017 sec (  2.627%)
 integral evaluation            ...        0 min,  0.123 sec ( 18.926%)
 iterations                     ...        0 min,  0.328 sec ( 50.452%)
 molecular gradient             ...        0 min,  0.142 sec ( 21.924%)
 printout                       ...        0 min,  0.003 sec (  0.522%)

         :::::::::::::::::::::::::::::::::::::::::::::::::::::
         ::                     SUMMARY                     ::
         :::::::::::::::::::::::::::::::::::::::::::::::::::::
         :: total energy            -132.047797314905 Eh    ::
         :: gradient norm              0.102965308322 Eh/a0 ::
         :: HOMO-LUMO gap              3.103898220569 eV    ::
         ::.................................................::
         :: SCC energy              -133.848279653016 Eh    ::
         :: -> isotropic ES            0.155983058604 Eh    ::
         :: -> anisotropic ES          0.012249919111 Eh    ::
         :: -> anisotropic XC          0.053438074452 Eh    ::
         :: -> dispersion             -0.110049257525 Eh    ::
         :: repulsion energy           1.795418929162 Eh    ::
         :: add. restraining           0.000000000000 Eh    ::
         :: total charge              -0.000000000000 e     ::
         :::::::::::::::::::::::::::::::::::::::::::::::::::::

      ----------------------------------------------------------- 
     |                   =====================                   |
     |                        A N C O P T                        |
     |                   =====================                   |
     |               Approximate Normal Coordinate               |
     |                Rational Function Optimizer                |
      ----------------------------------------------------------- 

          ...................................................
          :                      SETUP                      :
          :.................................................:
          :   optimization level            normal          :
          :   max. optcycles                   258          :
          :   ANC micro-cycles                  20          :
          :   degrees of freedom               252          :
          :.................................................:
          :   RF solver                   davidson          :
          :   write xtbopt.log                true          :
          :   linear?                        false          :
          :   energy convergence         0.5000000E-05 Eh   :
          :   grad. convergence          0.1000000E-02 Eh/α :
          :   maximium RF displ.         1.0000000          :
          :   Hlow (freq-cutoff)         0.1000000E-01      :
          :   Hmax (freq-cutoff)         5.0000000          :
          :   S6 in model hess.         20.0000000          :
          ...................................................

generating ANC from model Hessian ...
Using Lindh-Hessian (1995)
 Shifting diagonal of input Hessian by    9.9145716954508762E-003
 Lowest  eigenvalues of input Hessian
    0.000000    0.000000    0.000000    0.000000    0.000000    0.000000
    0.010000    0.010037    0.010127    0.010148    0.010231    0.010265
    0.010309    0.010442    0.010478    0.010645    0.010888    0.011188
 Highest eigenvalues
    1.970058    1.999100    1.999535    2.184560    2.236740    2.240972


........................................................................
.............................. CYCLE    1 ..............................
........................................................................
   1   -133.8482797 -0.133848E+03  0.891E-05    3.10       0.0  T
   2   -133.8482797 -0.141057E-09  0.585E-05    3.10     184.3  T
   3   -133.8482797 -0.148447E-09  0.340E-05    3.10     317.2  T
     SCC iter.                  ...        0 min,  0.083 sec
     gradient                   ...        0 min,  0.132 sec
 * total energy  :  -132.0477973 Eh     change       -0.2343313E-08 Eh
   gradient norm :     0.1029718 Eh/α   predicted     0.0000000E+00 (-100.00%)
   displ. norm   :     0.4055296 α      lambda       -0.2330718E-01
   maximum displ.:     0.1227829 α      in ANC's #53, #42, #89, ...

........................................................................
.............................. CYCLE    2 ..............................
........................................................................
   1   -133.9511810 -0.133951E+03  0.163E-01    3.38       0.0  T
   2   -133.9512976 -0.116589E-03  0.999E-02    3.33       1.0  T
   3   -133.9512185  0.790692E-04  0.421E-02    3.34       1.0  T
   4   -133.9513353 -0.116729E-03  0.761E-03    3.33       1.4  T
   5   -133.9513390 -0.372019E-05  0.287E-03    3.32       3.8  T
   6   -133.9513392 -0.220796E-06  0.142E-03    3.33       7.6  T
   7   -133.9513392 -0.187222E-07  0.456E-04    3.33      23.7  T
   8   -133.9513392 -0.560368E-08  0.205E-04    3.33      52.7  T
     SCC iter.                  ...        0 min,  0.222 sec
     gradient                   ...        0 min,  0.137 sec
 * total energy  :  -132.0642420 Eh     change       -0.1644468E-01 Eh
   gradient norm :     0.0382994 Eh/α   predicted    -0.1357009E-01 ( -17.48%)
   displ. norm   :     0.4282237 α      lambda       -0.8471248E-02
   maximum displ.:     0.1338812 α      in ANC's #53, #42, #27, ...

........................................................................
.............................. CYCLE    3 ..............................
........................................................................
   1   -134.0035083 -0.134004E+03  0.120E-01    3.47       0.0  T
   2   -134.0035829 -0.745655E-04  0.745E-02    3.44       1.0  T
   3   -134.0035384  0.444520E-04  0.325E-02    3.45       1.0  T
   4   -134.0036087 -0.703470E-04  0.628E-03    3.44       1.7  T
   5   -134.0036121 -0.335896E-05  0.196E-03    3.43       5.5  T
   6   -134.0036122 -0.695120E-07  0.989E-04    3.44      10.9  T
   7   -134.0036122 -0.103673E-07  0.381E-04    3.44      28.3  T
     SCC iter.                  ...        0 min,  0.188 sec
     gradient                   ...        0 min,  0.156 sec
 * total energy  :  -132.0696897 Eh     change       -0.5447702E-02 Eh
   gradient norm :     0.0133723 Eh/α   predicted    -0.5012336E-02 (  -7.99%)
   displ. norm   :     0.3633442 α      lambda       -0.2330513E-02
   maximum displ.:     0.1085664 α      in ANC's #27, #11, #42, ...

........................................................................
.............................. CYCLE    4 ..............................
........................................................................
   1   -134.0123674 -0.134012E+03  0.809E-02    3.46       0.0  T
   2   -134.0124026 -0.352074E-04  0.493E-02    3.45       1.0  T
   3   -134.0123840  0.186447E-04  0.207E-02    3.46       1.0  T
   4   -134.0124120 -0.280581E-04  0.474E-03    3.45       2.3  T
   5   -134.0124143 -0.222465E-05  0.128E-03    3.45       8.4  T
   6   -134.0124143 -0.242068E-07  0.697E-04    3.45      15.5  T
   7   -134.0124143 -0.716690E-08  0.265E-04    3.45      40.8  T
     SCC iter.                  ...        0 min,  0.192 sec
     gradient                   ...        0 min,  0.140 sec
 * total energy  :  -132.0714001 Eh     change       -0.1710405E-02 Eh
   gradient norm :     0.0104613 Eh/α   predicted    -0.1319100E-02 ( -22.88%)
   displ. norm   :     0.4282887 α      lambda       -0.1584611E-02
   maximum displ.:     0.1665277 α      in ANC's #11, #9, #27, ...

........................................................................
.............................. CYCLE    5 ..............................
........................................................................
   1   -134.0130432 -0.134013E+03  0.873E-02    3.46       0.0  T
   2   -134.0130709 -0.277637E-04  0.522E-02    3.45       1.0  T
   3   -134.0130487  0.221701E-04  0.200E-02    3.46       1.0  T
   4   -134.0130784 -0.296136E-04  0.425E-03    3.45       2.5  T
   5   -134.0130801 -0.168961E-05  0.137E-03    3.45       7.9  T
   6   -134.0130801 -0.175766E-07  0.747E-04    3.45      14.4  T
   7   -134.0130801 -0.122101E-07  0.264E-04    3.45      40.9  T
     SCC iter.                  ...        0 min,  0.193 sec
     gradient                   ...        0 min,  0.140 sec
 * total energy  :  -132.0725540 Eh     change       -0.1153890E-02 Eh
   gradient norm :     0.0093201 Eh/α   predicted    -0.9376561E-03 ( -18.74%)
   displ. norm   :     0.4255778 α      lambda       -0.1018676E-02
   maximum displ.:     0.2011236 α      in ANC's #11, #9, #21, ...

........................................................................
.............................. CYCLE    6 ..............................
........................................................................
   1   -134.0123028 -0.134012E+03  0.788E-02    3.45       0.0  T
   2   -134.0123151 -0.123628E-04  0.467E-02    3.44       1.0  T
   3   -134.0122977  0.173857E-04  0.157E-02    3.45       1.0  T
   4   -134.0123195 -0.217403E-04  0.276E-03    3.45       3.9  T
   5   -134.0123200 -0.546456E-06  0.121E-03    3.45       8.9  T
   6   -134.0123200 -0.973415E-08  0.609E-04    3.45      17.7  T
   7   -134.0123201 -0.106333E-07  0.216E-04    3.45      49.9  T
     SCC iter.                  ...        0 min,  0.187 sec
     gradient                   ...        0 min,  0.135 sec
 * total energy  :  -132.0733269 Eh     change       -0.7729369E-03 Eh
   gradient norm :     0.0084227 Eh/α   predicted    -0.6015887E-03 ( -22.17%)
   displ. norm   :     0.4378277 α      lambda       -0.8312724E-03
   maximum displ.:     0.2259055 α      in ANC's #11, #9, #21, ...

........................................................................
.............................. CYCLE    7 ..............................
........................................................................
   1   -134.0124478 -0.134012E+03  0.773E-02    3.44       0.0  T
   2   -134.0124566 -0.881823E-05  0.455E-02    3.44       1.0  T
   3   -134.0124438  0.128577E-04  0.133E-02    3.45       1.0  T
   4   -134.0124596 -0.158169E-04  0.229E-03    3.45       4.7  T
   5   -134.0124599 -0.316671E-06  0.110E-03    3.45       9.8  T
   6   -134.0124599 -0.135788E-07  0.560E-04    3.45      19.2  T
   7   -134.0124599 -0.596705E-08  0.209E-04    3.45      51.7  T
     SCC iter.                  ...        0 min,  0.186 sec
     gradient                   ...        0 min,  0.161 sec
 * total energy  :  -132.0739844 Eh     change       -0.6574709E-03 Eh
   gradient norm :     0.0072971 Eh/α   predicted    -0.4953219E-03 ( -24.66%)
   displ. norm   :     0.4826930 α      lambda       -0.7941239E-03
   maximum displ.:     0.2566138 α      in ANC's #11, #9, #8, ...

........................................................................
.............................. CYCLE    8 ..............................
........................................................................
   1   -134.0133707 -0.134013E+03  0.849E-02    3.43       0.0  T
   2   -134.0133764 -0.575217E-05  0.499E-02    3.43       1.0  T
   3   -134.0133635  0.128922E-04  0.128E-02    3.44       1.0  T
   4   -134.0133792 -0.156853E-04  0.193E-03    3.44       5.6  T
   5   -134.0133793 -0.106331E-06  0.108E-03    3.44      10.0  T
   6   -134.0133793 -0.165946E-07  0.458E-04    3.44      23.6  T
   7   -134.0133793 -0.450328E-08  0.192E-04    3.44      56.1  T
     SCC iter.                  ...        0 min,  0.187 sec
     gradient                   ...        0 min,  0.137 sec
 * total energy  :  -132.0746211 Eh     change       -0.6367142E-03 Eh
   gradient norm :     0.0070699 Eh/α   predicted    -0.4895998E-03 ( -23.11%)
   displ. norm   :     0.5298327 α      lambda       -0.7651027E-03
   maximum displ.:     0.2767241 α      in ANC's #11, #9, #5, ...

........................................................................
.............................. CYCLE    9 ..............................
........................................................................
   1   -134.0144844 -0.134014E+03  0.930E-02    3.42       0.0  T
   2   -134.0144920 -0.763101E-05  0.547E-02    3.42       1.0  T
   3   -134.0144786  0.133733E-04  0.135E-02    3.44       1.0  T
   4   -134.0144950 -0.163443E-04  0.219E-03    3.43       4.9  T
   5   -134.0144952 -0.196279E-06  0.114E-03    3.43       9.4  T
   6   -134.0144952 -0.189288E-07  0.477E-04    3.43      22.6  T
   7   -134.0144952 -0.497494E-08  0.203E-04    3.43      53.1  T
     SCC iter.                  ...        0 min,  0.187 sec
     gradient                   ...        0 min,  0.124 sec
 * total energy  :  -132.0752337 Eh     change       -0.6125602E-03 Eh
   gradient norm :     0.0085176 Eh/α   predicted    -0.4899428E-03 ( -20.02%)
   displ. norm   :     0.5620555 α      lambda       -0.7368113E-03
   maximum displ.:     0.2802903 α      in ANC's #11, #9, #5, ...

........................................................................
.............................. CYCLE   10 ..............................
........................................................................
   1   -134.0155426 -0.134016E+03  0.948E-02    3.38       0.0  T
   2   -134.0155516 -0.902909E-05  0.556E-02    3.40       1.0  T
   3   -134.0155370  0.146203E-04  0.141E-02    3.40       1.0  T
   4   -134.0155548 -0.177766E-04  0.232E-03    3.40       4.6  T
   5   -134.0155550 -0.210947E-06  0.108E-03    3.40      10.0  T
   6   -134.0155550 -0.146746E-07  0.513E-04    3.40      21.0  T
   7   -134.0155550 -0.638124E-08  0.197E-04    3.40      54.8  T
     SCC iter.                  ...        0 min,  0.188 sec
     gradient                   ...        0 min,  0.138 sec
 * total energy  :  -132.0758017 Eh     change       -0.5679993E-03 Eh
   gradient norm :     0.0078901 Eh/α   predicted    -0.4847931E-03 ( -14.65%)
   displ. norm   :     0.5900481 α      lambda       -0.6718957E-03
   maximum displ.:     0.2733056 α      in ANC's #11, #9, #5, ...

........................................................................
.............................. CYCLE   11 ..............................
........................................................................
   1   -134.0137710 -0.134014E+03  0.100E-01    3.37       0.0  T
   2   -134.0138004 -0.294063E-04  0.592E-02    3.36       1.0  T
   3   -134.0137827  0.177389E-04  0.188E-02    3.37       1.0  T
   4   -134.0138058 -0.231609E-04  0.382E-03    3.37       2.8  T
   5   -134.0138071 -0.128017E-05  0.136E-03    3.37       8.0  T
   6   -134.0138072 -0.453038E-07  0.664E-04    3.37      16.2  T
   7   -134.0138072 -0.863102E-08  0.284E-04    3.37      38.0  T
     SCC iter.                  ...        0 min,  0.186 sec
     gradient                   ...        0 min,  0.129 sec
 * total energy  :  -132.0762501 Eh     change       -0.4483748E-03 Eh
   gradient norm :     0.0098462 Eh/α   predicted    -0.4529152E-03 (   1.01%)
   displ. norm   :     0.4868215 α      lambda       -0.6121742E-03
   maximum displ.:     0.1743197 α      in ANC's #11, #5, #9, ...

........................................................................
.............................. CYCLE   12 ..............................
........................................................................
   1   -134.0172548 -0.134017E+03  0.779E-02    3.34       0.0  T
   2   -134.0172775 -0.227450E-04  0.458E-02    3.36       1.0  T
   3   -134.0172696  0.790693E-05  0.145E-02    3.36       1.0  T
   4   -134.0172805 -0.108134E-04  0.334E-03    3.36       3.2  T
   5   -134.0172812 -0.755452E-06  0.115E-03    3.36       9.4  T
   6   -134.0172812 -0.353701E-07  0.549E-04    3.36      19.6  T
   7   -134.0172812 -0.384131E-08  0.231E-04    3.36      46.8  T
     SCC iter.                  ...        0 min,  0.189 sec
     gradient                   ...        0 min,  0.145 sec
 * total energy  :  -132.0765808 Eh     change       -0.3307349E-03 Eh
   gradient norm :     0.0121999 Eh/α   predicted    -0.3786904E-03 (  14.50%)
   displ. norm   :     0.4058034 α      lambda       -0.4095936E-03
   maximum displ.:     0.1541693 α      in ANC's #11, #5, #9, ...

........................................................................
.............................. CYCLE   13 ..............................
........................................................................
   1   -134.0144947 -0.134014E+03  0.621E-02    3.31       0.0  T
   2   -134.0145018 -0.714770E-05  0.367E-02    3.32       1.0  T
   3   -134.0144928  0.897201E-05  0.116E-02    3.32       1.0  T
   4   -134.0145039 -0.110530E-04  0.184E-03    3.32       5.9  T
   5   -134.0145041 -0.197215E-06  0.789E-04    3.32      13.7  T
   6   -134.0145041 -0.106749E-07  0.409E-04    3.32      26.4  T
     SCC iter.                  ...        0 min,  0.170 sec
     gradient                   ...        0 min,  0.156 sec
 * total energy  :  -132.0768805 Eh     change       -0.2996826E-03 Eh
   gradient norm :     0.0078715 Eh/α   predicted    -0.2385434E-03 ( -20.40%)
   displ. norm   :     0.3903164 α      lambda       -0.4011033E-03
   maximum displ.:     0.1603614 α      in ANC's #5, #4, #8, ...

........................................................................
.............................. CYCLE   14 ..............................
........................................................................
   1   -134.0169021 -0.134017E+03  0.531E-02    3.32       0.0  T
   2   -134.0169086 -0.648476E-05  0.313E-02    3.31       1.0  T
   3   -134.0169032  0.531915E-05  0.106E-02    3.31       1.0  T
   4   -134.0169101 -0.686691E-05  0.181E-03    3.31       6.0  T
   5   -134.0169103 -0.182410E-06  0.744E-04    3.31      14.5  T
   6   -134.0169103 -0.601293E-08  0.353E-04    3.31      30.5  T
     SCC iter.                  ...        0 min,  0.162 sec
     gradient                   ...        0 min,  0.136 sec
 * total energy  :  -132.0771924 Eh     change       -0.3119519E-03 Eh
   gradient norm :     0.0057248 Eh/α   predicted    -0.2311102E-03 ( -25.91%)
   displ. norm   :     0.5025693 α      lambda       -0.4207712E-03
   maximum displ.:     0.2065478 α      in ANC's #5, #4, #2, ...

........................................................................
.............................. CYCLE   15 ..............................
........................................................................
   1   -134.0162064 -0.134016E+03  0.682E-02    3.32       0.0  T
   2   -134.0162145 -0.814953E-05  0.403E-02    3.32       1.0  T
   3   -134.0162027  0.118282E-04  0.140E-02    3.31       1.0  T
   4   -134.0162173 -0.146507E-04  0.180E-03    3.32       6.0  T
   5   -134.0162174 -0.108480E-06  0.857E-04    3.32      12.6  T
   6   -134.0162174 -0.105784E-07  0.457E-04    3.32      23.6  T
     SCC iter.                  ...        0 min,  0.164 sec
     gradient                   ...        0 min,  0.131 sec
 * total energy  :  -132.0775265 Eh     change       -0.3341150E-03 Eh
   gradient norm :     0.0061290 Eh/α   predicted    -0.2635256E-03 ( -21.13%)
   displ. norm   :     0.5251339 α      lambda       -0.4466685E-03
   maximum displ.:     0.2132789 α      in ANC's #5, #4, #16, ...

........................................................................
.............................. CYCLE   16 ..............................
........................................................................
   1   -134.0187097 -0.134019E+03  0.688E-02    3.32       0.0  T
   2   -134.0187181 -0.842804E-05  0.406E-02    3.33       1.0  T
   3   -134.0187065  0.115857E-04  0.144E-02    3.32       1.0  T
   4   -134.0187211 -0.146178E-04  0.198E-03    3.33       5.4  T
   5   -134.0187212 -0.994505E-07  0.100E-03    3.33      10.8  T
   6   -134.0187212 -0.177549E-07  0.512E-04    3.32      21.1  T
   7   -134.0187212 -0.472835E-08  0.150E-04    3.33      72.0  T
     SCC iter.                  ...        0 min,  0.188 sec
     gradient                   ...        0 min,  0.158 sec
 * total energy  :  -132.0778607 Eh     change       -0.3341383E-03 Eh
   gradient norm :     0.0080120 Eh/α   predicted    -0.2849281E-03 ( -14.73%)
   displ. norm   :     0.5312494 α      lambda       -0.4210243E-03
   maximum displ.:     0.2186473 α      in ANC's #4, #5, #16, ...

........................................................................
.............................. CYCLE   17 ..............................
........................................................................
   1   -134.0150659 -0.134015E+03  0.742E-02    3.32       0.0  T
   2   -134.0150755 -0.960389E-05  0.438E-02    3.32       1.0  T
   3   -134.0150604  0.150959E-04  0.153E-02    3.32       1.0  T
   4   -134.0150790 -0.185260E-04  0.194E-03    3.32       5.6  T
   5   -134.0150791 -0.154862E-06  0.880E-04    3.32      12.3  T
   6   -134.0150791 -0.890782E-08  0.458E-04    3.32      23.5  T
     SCC iter.                  ...        0 min,  0.162 sec
     gradient                   ...        0 min,  0.147 sec
 * total energy  :  -132.0781843 Eh     change       -0.3235836E-03 Eh
   gradient norm :     0.0080742 Eh/α   predicted    -0.2699250E-03 ( -16.58%)
   displ. norm   :     0.4255421 α      lambda       -0.4619344E-03
   maximum displ.:     0.1870298 α      in ANC's #4, #16, #2, ...

........................................................................
.............................. CYCLE   18 ..............................
........................................................................
   1   -134.0172717 -0.134017E+03  0.650E-02    3.32       0.0  T
   2   -134.0172787 -0.694227E-05  0.383E-02    3.32       1.0  T
   3   -134.0172673  0.114082E-04  0.130E-02    3.33       1.0  T
   4   -134.0172812 -0.139043E-04  0.171E-03    3.33       6.3  T
   5   -134.0172813 -0.143149E-06  0.800E-04    3.33      13.5  T
   6   -134.0172813 -0.100035E-07  0.423E-04    3.33      25.5  T
     SCC iter.                  ...        0 min,  0.162 sec
     gradient                   ...        0 min,  0.127 sec
 * total energy  :  -132.0785223 Eh     change       -0.3380183E-03 Eh
   gradient norm :     0.0061737 Eh/α   predicted    -0.2727926E-03 ( -19.30%)
   displ. norm   :     0.5040630 α      lambda       -0.4017071E-03
   maximum displ.:     0.2236823 α      in ANC's #4, #16, #2, ...

........................................................................
.............................. CYCLE   19 ..............................
........................................................................
   1   -134.0147194 -0.134015E+03  0.773E-02    3.30       0.0  T
   2   -134.0147290 -0.967908E-05  0.458E-02    3.31       1.0  T
   3   -134.0147087  0.203352E-04  0.165E-02    3.31       1.0  T
   4   -134.0147334 -0.247003E-04  0.201E-03    3.31       5.4  T
   5   -134.0147335 -0.128638E-06  0.102E-03    3.31      10.5  T
   6   -134.0147336 -0.226911E-07  0.560E-04    3.31      19.3  T
   7   -134.0147336 -0.739286E-08  0.175E-04    3.31      61.6  T
     SCC iter.                  ...        0 min,  0.191 sec
     gradient                   ...        0 min,  0.135 sec
 * total energy  :  -132.0788223 Eh     change       -0.3000655E-03 Eh
   gradient norm :     0.0089693 Eh/α   predicted    -0.2518884E-03 ( -16.06%)
   displ. norm   :     0.4233737 α      lambda       -0.5834821E-03
   maximum displ.:     0.1883664 α      in ANC's #4, #2, #16, ...

........................................................................
.............................. CYCLE   20 ..............................
........................................................................
   1   -134.0179645 -0.134018E+03  0.767E-02    3.28       0.0  T
   2   -134.0179743 -0.987474E-05  0.452E-02    3.28       1.0  T
   3   -134.0179570  0.173181E-04  0.152E-02    3.29       1.0  T
   4   -134.0179779 -0.209097E-04  0.218E-03    3.29       4.9  T
   5   -134.0179782 -0.234914E-06  0.104E-03    3.29      10.3  T
   6   -134.0179782 -0.186190E-07  0.579E-04    3.29      18.6  T
   7   -134.0179782 -0.861121E-08  0.157E-04    3.29      68.7  T
     SCC iter.                  ...        0 min,  0.186 sec
     gradient                   ...        0 min,  0.131 sec
 * total energy  :  -132.0791181 Eh     change       -0.2957515E-03 Eh
   gradient norm :     0.0100696 Eh/α   predicted    -0.3440364E-03 (  16.33%)
   displ. norm   :     0.5123665 α      lambda       -0.5117096E-03
   maximum displ.:     0.2223465 α      in ANC's #4, #16, #2, ...
 * RMSD in coord.:     0.7439601 α      energy gain  -0.3132078E-01 Eh

generating ANC from model Hessian ...
Using Lindh-Hessian (1995)
 Shifting diagonal of input Hessian by    9.9301742050985180E-003
 Lowest  eigenvalues of input Hessian
    0.000000    0.000000    0.000000    0.000000    0.000000    0.000000
    0.010000    0.010109    0.010150    0.010225    0.010292    0.010325
    0.010443    0.010578    0.010739    0.010790    0.011124    0.011404
 Highest eigenvalues
    2.041034    2.097710    2.098607    2.318024    2.341077    2.382086


........................................................................
.............................. CYCLE   21 ..............................
........................................................................
   1   -134.0159033 -0.134016E+03  0.836E-02    3.28       0.0  T
   2   -134.0159152 -0.119240E-04  0.494E-02    3.28       1.0  T
   3   -134.0159005  0.147248E-04  0.156E-02    3.28       1.0  T
   4   -134.0159188 -0.183211E-04  0.260E-03    3.28       4.1  T
   5   -134.0159190 -0.229918E-06  0.128E-03    3.28       8.4  T
   6   -134.0159191 -0.226603E-07  0.638E-04    3.28      16.9  T
   7   -134.0159191 -0.118758E-07  0.197E-04    3.28      54.9  T
     SCC iter.                  ...        0 min,  0.190 sec
     gradient                   ...        0 min,  0.159 sec
 * total energy  :  -132.0793480 Eh     change       -0.2298725E-03 Eh
   gradient norm :     0.0124867 Eh/α   predicted     0.0000000E+00 (-100.00%)
   displ. norm   :     0.0907308 α      lambda       -0.4326401E-03
   maximum displ.:     0.0284054 α      in ANC's #23, #9, #5, ...

........................................................................
.............................. CYCLE   22 ..............................
........................................................................
   1   -134.0189921 -0.134019E+03  0.269E-02    3.28       0.0  T
   2   -134.0189941 -0.198188E-05  0.160E-02    3.28       1.0  T
   3   -134.0189925  0.158194E-05  0.609E-03    3.28       1.8  T
   4   -134.0189946 -0.216513E-05  0.116E-03    3.28       9.3  T
   5   -134.0189947 -0.345689E-07  0.561E-04    3.28      19.2  T
   6   -134.0189947 -0.186341E-08  0.286E-04    3.28      37.7  T
     SCC iter.                  ...        0 min,  0.161 sec
     gradient                   ...        0 min,  0.132 sec
 * total energy  :  -132.0796570 Eh     change       -0.3090176E-03 Eh
   gradient norm :     0.0047288 Eh/α   predicted    -0.2181929E-03 ( -29.39%)
   displ. norm   :     0.1462926 α      lambda       -0.2486270E-03
   maximum displ.:     0.0467512 α      in ANC's #5, #9, #23, ...

........................................................................
.............................. CYCLE   23 ..............................
........................................................................
   1   -134.0207518 -0.134021E+03  0.353E-02    3.28       0.0  T
   2   -134.0207550 -0.315860E-05  0.210E-02    3.28       1.0  T
   3   -134.0207521  0.288575E-05  0.816E-03    3.28       1.3  T
   4   -134.0207559 -0.381809E-05  0.128E-03    3.28       8.4  T
   5   -134.0207560 -0.404728E-07  0.585E-04    3.28      18.4  T
   6   -134.0207560 -0.240243E-08  0.309E-04    3.28      34.9  T
     SCC iter.                  ...        0 min,  0.163 sec
     gradient                   ...        0 min,  0.131 sec
 * total energy  :  -132.0798313 Eh     change       -0.1742810E-03 Eh
   gradient norm :     0.0027849 Eh/α   predicted    -0.1270159E-03 ( -27.12%)
   displ. norm   :     0.2016444 α      lambda       -0.1782608E-03
   maximum displ.:     0.0732124 α      in ANC's #5, #17, #9, ...

........................................................................
.............................. CYCLE   24 ..............................
........................................................................
   1   -134.0211142 -0.134021E+03  0.443E-02    3.27       0.0  T
   2   -134.0211179 -0.375574E-05  0.263E-02    3.28       1.0  T
   3   -134.0211136  0.433907E-05  0.933E-03    3.28       1.2  T
   4   -134.0211191 -0.551518E-05  0.137E-03    3.28       7.9  T
   5   -134.0211192 -0.431567E-07  0.628E-04    3.28      17.2  T
   6   -134.0211192 -0.287352E-08  0.311E-04    3.28      34.7  T
     SCC iter.                  ...        0 min,  0.161 sec
     gradient                   ...        0 min,  0.132 sec
 * total energy  :  -132.0799716 Eh     change       -0.1403073E-03 Eh
   gradient norm :     0.0039669 Eh/α   predicted    -0.9275686E-04 ( -33.89%)
   displ. norm   :     0.3349995 α      lambda       -0.2201823E-03
   maximum displ.:     0.1298818 α      in ANC's #5, #17, #9, ...

........................................................................
.............................. CYCLE   25 ..............................
........................................................................
   1   -134.0201456 -0.134020E+03  0.694E-02    3.27       0.0  T
   2   -134.0201526 -0.699452E-05  0.414E-02    3.27       1.0  T
   3   -134.0201423  0.103248E-04  0.134E-02    3.27       1.0  T
   4   -134.0201551 -0.128130E-04  0.193E-03    3.27       5.6  T
   5   -134.0201552 -0.774545E-07  0.944E-04    3.27      11.4  T
   6   -134.0201552 -0.834743E-08  0.464E-04    3.27      23.3  T
     SCC iter.                  ...        0 min,  0.162 sec
     gradient                   ...        0 min,  0.146 sec
 * total energy  :  -132.0801118 Eh     change       -0.1402283E-03 Eh
   gradient norm :     0.0056677 Eh/α   predicted    -0.1225113E-03 ( -12.63%)
   displ. norm   :     0.1693542 α      lambda       -0.1067065E-03
   maximum displ.:     0.0744448 α      in ANC's #5, #17, #9, ...

........................................................................
.............................. CYCLE   26 ..............................
........................................................................
   1   -134.0202888 -0.134020E+03  0.306E-02    3.27       0.0  T
   2   -134.0202900 -0.120700E-05  0.182E-02    3.27       1.0  T
   3   -134.0202875  0.248931E-05  0.604E-03    3.27       1.8  T
   4   -134.0202905 -0.301484E-05  0.701E-04    3.27      15.4  T
   5   -134.0202905 -0.133685E-07  0.373E-04    3.27      28.9  T
   6   -134.0202905 -0.275176E-08  0.187E-04    3.27      57.6  T
     SCC iter.                  ...        0 min,  0.162 sec
     gradient                   ...        0 min,  0.142 sec
 * total energy  :  -132.0802020 Eh     change       -0.9023139E-04 Eh
   gradient norm :     0.0047336 Eh/α   predicted    -0.5488525E-04 ( -39.17%)
   displ. norm   :     0.2997185 α      lambda       -0.2307208E-03
   maximum displ.:     0.1377549 α      in ANC's #5, #2, #3, ...

........................................................................
.............................. CYCLE   27 ..............................
........................................................................
   1   -134.0213416 -0.134021E+03  0.496E-02    3.26       0.0  T
   2   -134.0213440 -0.237711E-05  0.294E-02    3.26       1.0  T
   3   -134.0213384  0.555302E-05  0.837E-03    3.27       1.3  T
   4   -134.0213450 -0.656751E-05  0.103E-03    3.27      10.4  T
   5   -134.0213450 -0.505938E-07  0.526E-04    3.27      20.5  T
   6   -134.0213450 -0.382147E-08  0.262E-04    3.27      41.2  T
     SCC iter.                  ...        0 min,  0.167 sec
     gradient                   ...        0 min,  0.144 sec
 * total energy  :  -132.0803487 Eh     change       -0.1466977E-03 Eh
   gradient norm :     0.0030757 Eh/α   predicted    -0.1257644E-03 ( -14.27%)
   displ. norm   :     0.2997608 α      lambda       -0.9790355E-04
   maximum displ.:     0.1422457 α      in ANC's #5, #2, #3, ...

........................................................................
.............................. CYCLE   28 ..............................
........................................................................
   1   -134.0200496 -0.134020E+03  0.500E-02    3.27       0.0  T
   2   -134.0200508 -0.121118E-05  0.298E-02    3.27       1.0  T
   3   -134.0200484  0.239965E-05  0.550E-03    3.27       2.0  T
   4   -134.0200513 -0.289306E-05  0.104E-03    3.27      10.4  T
   5   -134.0200513 -0.265651E-07  0.550E-04    3.27      19.6  T
   6   -134.0200513 -0.317499E-08  0.242E-04    3.27      44.6  T
     SCC iter.                  ...        0 min,  0.160 sec
     gradient                   ...        0 min,  0.152 sec
 * total energy  :  -132.0804124 Eh     change       -0.6370003E-04 Eh
   gradient norm :     0.0038814 Eh/α   predicted    -0.5335619E-04 ( -16.24%)
   displ. norm   :     0.1826374 α      lambda       -0.7510146E-04
   maximum displ.:     0.0927218 α      in ANC's #5, #2, #3, ...

........................................................................
.............................. CYCLE   29 ..............................
........................................................................
   1   -134.0204496 -0.134020E+03  0.239E-02    3.28       0.0  T
   2   -134.0204499 -0.304337E-06  0.142E-02    3.28       1.0  T
   3   -134.0204494  0.565215E-06  0.263E-03    3.28       4.1  T
   4   -134.0204501 -0.676623E-06  0.469E-04    3.28      23.0  T
   5   -134.0204501 -0.919692E-08  0.241E-04    3.28      44.7  T
     SCC iter.                  ...        0 min,  0.135 sec
     gradient                   ...        0 min,  0.145 sec
 * total energy  :  -132.0804737 Eh     change       -0.6126107E-04 Eh
   gradient norm :     0.0027832 Eh/α   predicted    -0.3881704E-04 ( -36.64%)
   displ. norm   :     0.3107837 α      lambda       -0.1181592E-03
   maximum displ.:     0.1645765 α      in ANC's #5, #2, #3, ...

........................................................................
.............................. CYCLE   30 ..............................
........................................................................
   1   -134.0208813 -0.134021E+03  0.393E-02    3.29       0.0  T
   2   -134.0208820 -0.792228E-06  0.233E-02    3.29       1.0  T
   3   -134.0208799  0.209889E-05  0.492E-03    3.29       2.2  T
   4   -134.0208824 -0.248724E-05  0.712E-04    3.29      15.1  T
   5   -134.0208824 -0.135106E-07  0.391E-04    3.29      27.5  T
   6   -134.0208824 -0.227644E-08  0.136E-04    3.29      79.2  T
     SCC iter.                  ...        0 min,  0.161 sec
     gradient                   ...        0 min,  0.147 sec
 * total energy  :  -132.0805701 Eh     change       -0.9644235E-04 Eh
   gradient norm :     0.0024426 Eh/α   predicted    -0.6478757E-04 ( -32.82%)
   displ. norm   :     0.4030783 α      lambda       -0.1325965E-03
   maximum displ.:     0.2188233 α      in ANC's #5, #2, #3, ...

........................................................................
.............................. CYCLE   31 ..............................
........................................................................
   1   -134.0211024 -0.134021E+03  0.506E-02    3.30       0.0  T
   2   -134.0211034 -0.100015E-05  0.299E-02    3.30       1.0  T
   3   -134.0211006  0.286487E-05  0.568E-03    3.30       1.9  T
   4   -134.0211040 -0.340073E-05  0.840E-04    3.29      12.8  T
   5   -134.0211040 -0.117961E-07  0.462E-04    3.29      23.3  T
   6   -134.0211040 -0.405373E-08  0.148E-04    3.29      72.7  T
     SCC iter.                  ...        0 min,  0.160 sec
     gradient                   ...        0 min,  0.149 sec
 * total energy  :  -132.0806822 Eh     change       -0.1120221E-03 Eh
   gradient norm :     0.0035843 Eh/α   predicted    -0.7709660E-04 ( -31.18%)
   displ. norm   :     0.4376783 α      lambda       -0.1411711E-03
   maximum displ.:     0.2404859 α      in ANC's #5, #3, #2, ...

........................................................................
.............................. CYCLE   32 ..............................
........................................................................
   1   -134.0214482 -0.134021E+03  0.549E-02    3.30       0.0  T
   2   -134.0214492 -0.982819E-06  0.324E-02    3.30       1.0  T
   3   -134.0214464  0.274312E-05  0.553E-03    3.30       2.0  T
   4   -134.0214497 -0.327416E-05  0.823E-04    3.30      13.1  T
   5   -134.0214497 -0.901659E-08  0.451E-04    3.30      23.9  T
   6   -134.0214497 -0.409597E-08  0.147E-04    3.30      73.1  T
     SCC iter.                  ...        0 min,  0.158 sec
     gradient                   ...        0 min,  0.142 sec
 * total energy  :  -132.0808054 Eh     change       -0.1232654E-03 Eh
   gradient norm :     0.0041026 Eh/α   predicted    -0.8410837E-04 ( -31.77%)
   displ. norm   :     0.4594735 α      lambda       -0.1531971E-03
   maximum displ.:     0.2558785 α      in ANC's #5, #3, #2, ...

........................................................................
.............................. CYCLE   33 ..............................
........................................................................
   1   -134.0217277 -0.134022E+03  0.586E-02    3.31       0.0  T
   2   -134.0217287 -0.100662E-05  0.345E-02    3.31       1.0  T
   3   -134.0217261  0.263369E-05  0.537E-03    3.31       2.0  T
   4   -134.0217292 -0.316398E-05  0.822E-04    3.30      13.1  T
   5   -134.0217293 -0.921233E-08  0.455E-04    3.31      23.7  T
   6   -134.0217293 -0.379558E-08  0.161E-04    3.31      67.1  T
     SCC iter.                  ...        0 min,  0.161 sec
     gradient                   ...        0 min,  0.153 sec
 * total energy  :  -132.0809378 Eh     change       -0.1324286E-03 Eh
   gradient norm :     0.0034330 Eh/α   predicted    -0.9277499E-04 ( -29.94%)
   displ. norm   :     0.4694897 α      lambda       -0.1507094E-03
   maximum displ.:     0.2632595 α      in ANC's #5, #3, #2, ...

........................................................................
.............................. CYCLE   34 ..............................
........................................................................
   1   -134.0219982 -0.134022E+03  0.603E-02    3.31       0.0  T
   2   -134.0219992 -0.103498E-05  0.354E-02    3.31       1.0  T
   3   -134.0219966  0.267645E-05  0.537E-03    3.31       2.0  T
   4   -134.0219998 -0.322103E-05  0.798E-04    3.31      13.5  T
   5   -134.0219998 -0.965608E-08  0.450E-04    3.31      24.0  T
   6   -134.0219998 -0.329442E-08  0.168E-04    3.31      64.0  T
     SCC iter.                  ...        0 min,  0.166 sec
     gradient                   ...        0 min,  0.146 sec
 * total energy  :  -132.0810686 Eh     change       -0.1307483E-03 Eh
   gradient norm :     0.0026124 Eh/α   predicted    -0.9196816E-04 ( -29.66%)
   displ. norm   :     0.4556622 α      lambda       -0.1370107E-03
   maximum displ.:     0.2589110 α      in ANC's #5, #3, #2, ...

........................................................................
.............................. CYCLE   35 ..............................
........................................................................
   1   -134.0218959 -0.134022E+03  0.575E-02    3.31       0.0  T
   2   -134.0218968 -0.947232E-06  0.338E-02    3.31       1.0  T
   3   -134.0218944  0.242506E-05  0.510E-03    3.31       2.1  T
   4   -134.0218973 -0.292737E-05  0.773E-04    3.31      13.9  T
   5   -134.0218973 -0.906041E-08  0.439E-04    3.31      24.5  T
   6   -134.0218973 -0.296998E-08  0.168E-04    3.31      64.4  T
     SCC iter.                  ...        0 min,  0.164 sec
     gradient                   ...        0 min,  0.123 sec
 * total energy  :  -132.0811855 Eh     change       -0.1168949E-03 Eh
   gradient norm :     0.0025180 Eh/α   predicted    -0.8272913E-04 ( -29.23%)
   displ. norm   :     0.4614296 α      lambda       -0.1312370E-03
   maximum displ.:     0.2610316 α      in ANC's #5, #3, #2, ...

........................................................................
.............................. CYCLE   36 ..............................
........................................................................
   1   -134.0222546 -0.134022E+03  0.588E-02    3.31       0.0  T
   2   -134.0222558 -0.114372E-05  0.345E-02    3.31       1.0  T
   3   -134.0222528  0.293822E-05  0.571E-03    3.31       1.9  T
   4   -134.0222564 -0.354518E-05  0.796E-04    3.31      13.5  T
   5   -134.0222564 -0.809123E-08  0.455E-04    3.31      23.7  T
   6   -134.0222564 -0.283356E-08  0.170E-04    3.31      63.5  T
     SCC iter.                  ...        0 min,  0.168 sec
     gradient                   ...        0 min,  0.137 sec
 * total energy  :  -132.0812933 Eh     change       -0.1078095E-03 Eh
   gradient norm :     0.0032309 Eh/α   predicted    -0.7959114E-04 ( -26.17%)
   displ. norm   :     0.4679610 α      lambda       -0.1233927E-03
   maximum displ.:     0.2738442 α      in ANC's #5, #3, #2, ...

........................................................................
.............................. CYCLE   37 ..............................
........................................................................
   1   -134.0214483 -0.134021E+03  0.560E-02    3.32       0.0  T
   2   -134.0214497 -0.140018E-05  0.329E-02    3.32       1.0  T
   3   -134.0214469  0.283810E-05  0.572E-03    3.32       1.9  T
   4   -134.0214503 -0.343301E-05  0.879E-04    3.32      12.3  T
   5   -134.0214503 -0.167198E-07  0.482E-04    3.32      22.4  T
   6   -134.0214503 -0.325343E-08  0.230E-04    3.32      46.9  T
     SCC iter.                  ...        0 min,  0.161 sec
     gradient                   ...        0 min,  0.132 sec
 * total energy  :  -132.0813816 Eh     change       -0.8828052E-04 Eh
   gradient norm :     0.0034673 Eh/α   predicted    -0.7520893E-04 ( -14.81%)
   displ. norm   :     0.4383691 α      lambda       -0.1054215E-03
   maximum displ.:     0.2495867 α      in ANC's #5, #3, #2, ...

........................................................................
.............................. CYCLE   38 ..............................
........................................................................
   1   -134.0223461 -0.134022E+03  0.580E-02    3.32       0.0  T
   2   -134.0223483 -0.221101E-05  0.340E-02    3.32       1.0  T
   3   -134.0223426  0.571714E-05  0.860E-03    3.33       1.3  T
   4   -134.0223495 -0.690179E-05  0.996E-04    3.33      10.8  T
   5   -134.0223495 -0.112936E-07  0.585E-04    3.33      18.4  T
   6   -134.0223495 -0.445826E-08  0.241E-04    3.33      44.7  T
     SCC iter.                  ...        0 min,  0.160 sec
     gradient                   ...        0 min,  0.138 sec
 * total energy  :  -132.0814430 Eh     change       -0.6143212E-04 Eh
   gradient norm :     0.0028289 Eh/α   predicted    -0.6284091E-04 (   2.29%)
   displ. norm   :     0.1672011 α      lambda       -0.3871802E-04
   maximum displ.:     0.1021918 α      in ANC's #5, #3, #2, ...

........................................................................
.............................. CYCLE   39 ..............................
........................................................................
   1   -134.0228295 -0.134023E+03  0.199E-02    3.33       0.0  T
   2   -134.0228298 -0.295764E-06  0.117E-02    3.33       1.0  T
   3   -134.0228293  0.410103E-06  0.240E-03    3.33       4.5  T
   4   -134.0228299 -0.503207E-06  0.385E-04    3.33      28.0  T
   5   -134.0228299 -0.486750E-08  0.198E-04    3.33      54.5  T
     SCC iter.                  ...        0 min,  0.134 sec
     gradient                   ...        0 min,  0.138 sec
 * total energy  :  -132.0814711 Eh     change       -0.2810597E-04 Eh
   gradient norm :     0.0016804 Eh/α   predicted    -0.1990188E-04 ( -29.19%)
   displ. norm   :     0.1680750 α      lambda       -0.3328006E-04
   maximum displ.:     0.0922857 α      in ANC's #5, #3, #11, ...

........................................................................
.............................. CYCLE   40 ..............................
........................................................................
   1   -134.0237907 -0.134024E+03  0.238E-02    3.33       0.0  T
   2   -134.0237912 -0.482538E-06  0.139E-02    3.33       1.0  T
   3   -134.0237906  0.520851E-06  0.294E-03    3.34       3.7  T
   4   -134.0237913 -0.657995E-06  0.536E-04    3.34      20.1  T
   5   -134.0237913 -0.107101E-07  0.281E-04    3.34      38.4  T
     SCC iter.                  ...        0 min,  0.141 sec
     gradient                   ...        0 min,  0.150 sec
 * total energy  :  -132.0814975 Eh     change       -0.2641489E-04 Eh
   gradient norm :     0.0020154 Eh/α   predicted    -0.1684945E-04 ( -36.21%)
   displ. norm   :     0.0328568 α      lambda       -0.1160401E-04
   maximum displ.:     0.0149549 α      in ANC's #5, #11, #2, ...

........................................................................
.............................. CYCLE   41 ..............................
........................................................................
   1   -134.0230838 -0.134023E+03  0.559E-03    3.33       0.0  T
   2   -134.0230838 -0.248174E-07  0.330E-03    3.33       3.3  T
   3   -134.0230837  0.514612E-07  0.796E-04    3.33      13.5  T
   4   -134.0230838 -0.621764E-07  0.131E-04    3.33      82.3  T
     SCC iter.                  ...        0 min,  0.109 sec
     gradient                   ...        0 min,  0.139 sec
 * total energy  :  -132.0815074 Eh     change       -0.9900726E-05 Eh
   gradient norm :     0.0014724 Eh/α   predicted    -0.5812357E-05 ( -41.29%)
   displ. norm   :     0.1601825 α      lambda       -0.2860758E-04
   maximum displ.:     0.0652561 α      in ANC's #2, #11, #5, ...

........................................................................
.............................. CYCLE   42 ..............................
........................................................................
   1   -134.0219329 -0.134022E+03  0.252E-02    3.33       0.0  T
   2   -134.0219333 -0.439822E-06  0.149E-02    3.33       1.0  T
   3   -134.0219321  0.121991E-05  0.381E-03    3.33       2.8  T
   4   -134.0219336 -0.145477E-05  0.538E-04    3.33      20.0  T
   5   -134.0219336 -0.632008E-08  0.305E-04    3.33      35.3  T
   6   -134.0219336 -0.156078E-08  0.133E-04    3.33      80.9  T
     SCC iter.                  ...        0 min,  0.166 sec
     gradient                   ...        0 min,  0.131 sec
 * total energy  :  -132.0815275 Eh     change       -0.2009943E-04 Eh
   gradient norm :     0.0018978 Eh/α   predicted    -0.1446886E-04 ( -28.01%)
   displ. norm   :     0.0392187 α      lambda       -0.7425213E-05
   maximum displ.:     0.0227547 α      in ANC's #5, #1, #6, ...
 * RMSD in coord.:     0.5699182 α      energy gain  -0.2409442E-02 Eh

generating ANC from model Hessian ...
Using Lindh-Hessian (1995)
 Shifting diagonal of input Hessian by    9.9397429871751122E-003
 Lowest  eigenvalues of input Hessian
    0.000000    0.000000    0.000000    0.000000    0.000000    0.000000
    0.010000    0.010152    0.010206    0.010296    0.010361    0.010389
    0.010437    0.010599    0.010745    0.010769    0.011150    0.011410
 Highest eigenvalues
    2.043539    2.096433    2.105378    2.322988    2.337804    2.384287


........................................................................
.............................. CYCLE   43 ..............................
........................................................................
   1   -134.0223632 -0.134022E+03  0.557E-03    3.33       0.0  T
   2   -134.0223633 -0.346480E-07  0.329E-03    3.33       3.3  T
   3   -134.0223632  0.452128E-07  0.826E-04    3.33      13.1  T
   4   -134.0223633 -0.550436E-07  0.138E-04    3.33      78.2  T
     SCC iter.                  ...        0 min,  0.107 sec
     gradient                   ...        0 min,  0.150 sec
 * total energy  :  -132.0815371 Eh     change       -0.9587457E-05 Eh
   gradient norm :     0.0011979 Eh/α   predicted     0.0000000E+00 (-100.00%)
   displ. norm   :     0.0252979 α      lambda       -0.6258229E-05
   maximum displ.:     0.0111419 α      in ANC's #4, #6, #13, ...

........................................................................
.............................. CYCLE   44 ..............................
........................................................................
   1   -134.0230857 -0.134023E+03  0.485E-03    3.34       0.0  T
   2   -134.0230857 -0.322841E-07  0.288E-03    3.33       3.7  T
   3   -134.0230857  0.275846E-07  0.689E-04    3.33      15.6  T
   4   -134.0230857 -0.351147E-07  0.131E-04    3.33      82.4  T
     SCC iter.                  ...        0 min,  0.111 sec
     gradient                   ...        0 min,  0.157 sec
 * total energy  :  -132.0815440 Eh     change       -0.6885407E-05 Eh
   gradient norm :     0.0004612 Eh/α   predicted    -0.3130449E-05 ( -54.54%)
   displ. norm   :     0.0589893 α      lambda       -0.7648212E-05
   maximum displ.:     0.0279943 α      in ANC's #4, #6, #13, ...

........................................................................
.............................. CYCLE   45 ..............................
........................................................................
   1   -134.0232776 -0.134023E+03  0.806E-03    3.34       0.0  T
   2   -134.0232777 -0.415993E-07  0.479E-03    3.34       2.3  T
   3   -134.0232776  0.518799E-07  0.844E-04    3.34      12.8  T
   4   -134.0232777 -0.660251E-07  0.205E-04    3.34      52.7  T
     SCC iter.                  ...        0 min,  0.114 sec
     gradient                   ...        0 min,  0.144 sec
 * total energy  :  -132.0815524 Eh     change       -0.8396468E-05 Eh
   gradient norm :     0.0007966 Eh/α   predicted    -0.3833515E-05 ( -54.34%)
   displ. norm   :     0.0798430 α      lambda       -0.6828752E-05
   maximum displ.:     0.0404014 α      in ANC's #4, #6, #2, ...

........................................................................
.............................. CYCLE   46 ..............................
........................................................................
   1   -134.0231851 -0.134023E+03  0.969E-03    3.34       0.0  T
   2   -134.0231852 -0.445042E-07  0.576E-03    3.34       1.9  T
   3   -134.0231851  0.664160E-07  0.893E-04    3.34      12.1  T
   4   -134.0231852 -0.831207E-07  0.224E-04    3.34      48.2  T
     SCC iter.                  ...        0 min,  0.113 sec
     gradient                   ...        0 min,  0.146 sec
 * total energy  :  -132.0815603 Eh     change       -0.7856940E-05 Eh
   gradient norm :     0.0009374 Eh/α   predicted    -0.3427286E-05 ( -56.38%)
   displ. norm   :     0.1058819 α      lambda       -0.7649895E-05
   maximum displ.:     0.0558008 α      in ANC's #4, #6, #2, ...

........................................................................
.............................. CYCLE   47 ..............................
........................................................................
   1   -134.0229811 -0.134023E+03  0.121E-02    3.34       0.0  T
   2   -134.0229811 -0.624192E-07  0.721E-03    3.34       1.5  T
   3   -134.0229811  0.547008E-07  0.924E-04    3.34      11.7  T
   4   -134.0229812 -0.750880E-07  0.261E-04    3.34      41.4  T
     SCC iter.                  ...        0 min,  0.120 sec
     gradient                   ...        0 min,  0.160 sec
 * total energy  :  -132.0815694 Eh     change       -0.9138149E-05 Eh
   gradient norm :     0.0008337 Eh/α   predicted    -0.3844103E-05 ( -57.93%)
   displ. norm   :     0.1409293 α      lambda       -0.9606020E-05
   maximum displ.:     0.0762322 α      in ANC's #4, #2, #6, ...

........................................................................
.............................. CYCLE   48 ..............................
........................................................................
   1   -134.0227542 -0.134023E+03  0.159E-02    3.34       0.0  T
   2   -134.0227543 -0.879573E-07  0.941E-03    3.34       1.1  T
   3   -134.0227542  0.116635E-06  0.130E-03    3.34       8.3  T
   4   -134.0227544 -0.152971E-06  0.314E-04    3.34      34.4  T
   5   -134.0227544 -0.153767E-08  0.167E-04    3.34      64.7  T
     SCC iter.                  ...        0 min,  0.138 sec
     gradient                   ...        0 min,  0.137 sec
 * total energy  :  -132.0815808 Eh     change       -0.1143883E-04 Eh
   gradient norm :     0.0005766 Eh/α   predicted    -0.4846017E-05 ( -57.64%)
   displ. norm   :     0.1609903 α      lambda       -0.1030309E-04
   maximum displ.:     0.0892319 α      in ANC's #4, #2, #6, ...

........................................................................
.............................. CYCLE   49 ..............................
........................................................................
   1   -134.0227245 -0.134023E+03  0.176E-02    3.34       0.0  T
   2   -134.0227246 -0.106962E-06  0.104E-02    3.34       1.0  T
   3   -134.0227245  0.135027E-06  0.142E-03    3.34       7.6  T
   4   -134.0227247 -0.178533E-06  0.343E-04    3.34      31.4  T
   5   -134.0227247 -0.210443E-08  0.182E-04    3.34      59.2  T
     SCC iter.                  ...        0 min,  0.136 sec
     gradient                   ...        0 min,  0.146 sec
 * total energy  :  -132.0815929 Eh     change       -0.1204135E-04 Eh
   gradient norm :     0.0006671 Eh/α   predicted    -0.5222439E-05 ( -56.63%)
   displ. norm   :     0.1628075 α      lambda       -0.9052224E-05
   maximum displ.:     0.0928221 α      in ANC's #4, #2, #8, ...

........................................................................
.............................. CYCLE   50 ..............................
........................................................................
   1   -134.0227949 -0.134023E+03  0.179E-02    3.35       0.0  T
   2   -134.0227950 -0.118256E-06  0.105E-02    3.35       1.0  T
   3   -134.0227949  0.116382E-06  0.132E-03    3.35       8.1  T
   4   -134.0227950 -0.157902E-06  0.353E-04    3.35      30.5  T
   5   -134.0227950 -0.345577E-08  0.187E-04    3.35      57.6  T
     SCC iter.                  ...        0 min,  0.139 sec
     gradient                   ...        0 min,  0.146 sec
 * total energy  :  -132.0816038 Eh     change       -0.1093501E-04 Eh
   gradient norm :     0.0007631 Eh/α   predicted    -0.4580923E-05 ( -58.11%)
   displ. norm   :     0.1404239 α      lambda       -0.7896708E-05
   maximum displ.:     0.0819442 α      in ANC's #4, #2, #7, ...

........................................................................
.............................. CYCLE   51 ..............................
........................................................................
   1   -134.0229792 -0.134023E+03  0.153E-02    3.35       0.0  T
   2   -134.0229792 -0.608036E-07  0.898E-03    3.35       1.2  T
   3   -134.0229792  0.515700E-07  0.907E-04    3.35      11.9  T
   4   -134.0229793 -0.778405E-07  0.265E-04    3.35      40.7  T
     SCC iter.                  ...        0 min,  0.110 sec
     gradient                   ...        0 min,  0.128 sec
 * total energy  :  -132.0816136 Eh     change       -0.9822599E-05 Eh
   gradient norm :     0.0006952 Eh/α   predicted    -0.3983076E-05 ( -59.45%)
   displ. norm   :     0.1484820 α      lambda       -0.9404848E-05
   maximum displ.:     0.0878505 α      in ANC's #4, #7, #8, ...

........................................................................
.............................. CYCLE   52 ..............................
........................................................................
   1   -134.0230835 -0.134023E+03  0.173E-02    3.35       0.0  T
   2   -134.0230836 -0.775925E-07  0.101E-02    3.35       1.1  T
   3   -134.0230835  0.900125E-07  0.109E-03    3.35       9.9  T
   4   -134.0230836 -0.125551E-06  0.282E-04    3.35      38.2  T
   5   -134.0230836 -0.119252E-08  0.151E-04    3.35      71.4  T
     SCC iter.                  ...        0 min,  0.135 sec
     gradient                   ...        0 min,  0.133 sec
 * total energy  :  -132.0816253 Eh     change       -0.1162952E-04 Eh
   gradient norm :     0.0005553 Eh/α   predicted    -0.4750964E-05 ( -59.15%)
   displ. norm   :     0.2039877 α      lambda       -0.1221430E-04
   maximum displ.:     0.1206528 α      in ANC's #4, #7, #8, ...

........................................................................
.............................. CYCLE   53 ..............................
........................................................................
   1   -134.0229522 -0.134023E+03  0.251E-02    3.35       0.0  T
   2   -134.0229524 -0.169198E-06  0.147E-02    3.35       1.0  T
   3   -134.0229521  0.282962E-06  0.185E-03    3.35       5.8  T
   4   -134.0229525 -0.369344E-06  0.393E-04    3.35      27.4  T
   5   -134.0229525 -0.123478E-08  0.212E-04    3.35      51.0  T
     SCC iter.                  ...        0 min,  0.141 sec
     gradient                   ...        0 min,  0.133 sec
 * total energy  :  -132.0816403 Eh     change       -0.1498651E-04 Eh
   gradient norm :     0.0005325 Eh/α   predicted    -0.6221385E-05 ( -58.49%)
   displ. norm   :     0.2422730 α      lambda       -0.1243641E-04
   maximum displ.:     0.1437349 α      in ANC's #4, #8, #7, ...

........................................................................
.............................. CYCLE   54 ..............................
........................................................................
   1   -134.0226508 -0.134023E+03  0.308E-02    3.35       0.0  T
   2   -134.0226511 -0.284120E-06  0.181E-02    3.35       1.0  T
   3   -134.0226505  0.536808E-06  0.248E-03    3.35       4.3  T
   4   -134.0226512 -0.682071E-06  0.485E-04    3.35      22.2  T
   5   -134.0226512 -0.196746E-08  0.263E-04    3.35      41.0  T
     SCC iter.                  ...        0 min,  0.135 sec
     gradient                   ...        0 min,  0.170 sec
 * total energy  :  -132.0816552 Eh     change       -0.1498857E-04 Eh
   gradient norm :     0.0006119 Eh/α   predicted    -0.6388884E-05 ( -57.37%)
   displ. norm   :     0.2439696 α      lambda       -0.1138129E-04
   maximum displ.:     0.1452320 α      in ANC's #4, #8, #7, ...

........................................................................
.............................. CYCLE   55 ..............................
........................................................................
   1   -134.0224222 -0.134022E+03  0.314E-02    3.35       0.0  T
   2   -134.0224225 -0.329635E-06  0.184E-02    3.35       1.0  T
   3   -134.0224218  0.651659E-06  0.271E-03    3.36       4.0  T
   4   -134.0224227 -0.817571E-06  0.505E-04    3.35      21.4  T
   5   -134.0224227 -0.246578E-08  0.276E-04    3.35      39.0  T
     SCC iter.                  ...        0 min,  0.135 sec
     gradient                   ...        0 min,  0.163 sec
 * total energy  :  -132.0816692 Eh     change       -0.1395401E-04 Eh
   gradient norm :     0.0006162 Eh/α   predicted    -0.5841433E-05 ( -58.14%)
   displ. norm   :     0.2505692 α      lambda       -0.1251655E-04
   maximum displ.:     0.1493261 α      in ANC's #4, #8, #7, ...

........................................................................
.............................. CYCLE   56 ..............................
........................................................................
   1   -134.0223183 -0.134022E+03  0.321E-02    3.36       0.0  T
   2   -134.0223187 -0.372902E-06  0.189E-02    3.36       1.0  T
   3   -134.0223180  0.751077E-06  0.289E-03    3.36       3.7  T
   4   -134.0223189 -0.936002E-06  0.521E-04    3.36      20.7  T
   5   -134.0223189 -0.303015E-08  0.284E-04    3.36      37.9  T
     SCC iter.                  ...        0 min,  0.135 sec
     gradient                   ...        0 min,  0.153 sec
 * total energy  :  -132.0816841 Eh     change       -0.1494988E-04 Eh
   gradient norm :     0.0005757 Eh/α   predicted    -0.6437834E-05 ( -56.94%)
   displ. norm   :     0.3212419 α      lambda       -0.1501366E-04
   maximum displ.:     0.1909428 α      in ANC's #4, #8, #7, ...

........................................................................
.............................. CYCLE   57 ..............................
........................................................................
   1   -134.0221010 -0.134022E+03  0.400E-02    3.36       0.0  T
   2   -134.0221016 -0.586656E-06  0.235E-02    3.36       1.0  T
   3   -134.0221004  0.116566E-05  0.361E-03    3.36       3.0  T
   4   -134.0221019 -0.145558E-05  0.656E-04    3.36      16.4  T
   5   -134.0221019 -0.468302E-08  0.352E-04    3.36      30.6  T
   6   -134.0221019 -0.154910E-08  0.131E-04    3.36      82.1  T
     SCC iter.                  ...        0 min,  0.162 sec
     gradient                   ...        0 min,  0.148 sec
 * total energy  :  -132.0817023 Eh     change       -0.1810958E-04 Eh
   gradient norm :     0.0006557 Eh/α   predicted    -0.7852667E-05 ( -56.64%)
   displ. norm   :     0.3248228 α      lambda       -0.1498666E-04
   maximum displ.:     0.1924012 α      in ANC's #4, #8, #7, ...

........................................................................
.............................. CYCLE   58 ..............................
........................................................................
   1   -134.0222027 -0.134022E+03  0.391E-02    3.36       0.0  T
   2   -134.0222032 -0.536664E-06  0.230E-02    3.36       1.0  T
   3   -134.0222021  0.106855E-05  0.344E-03    3.36       3.1  T
   4   -134.0222035 -0.133647E-05  0.633E-04    3.36      17.0  T
   5   -134.0222035 -0.407167E-08  0.332E-04    3.36      32.5  T
   6   -134.0222035 -0.149393E-08  0.122E-04    3.36      88.4  T
     SCC iter.                  ...        0 min,  0.162 sec
     gradient                   ...        0 min,  0.153 sec
 * total energy  :  -132.0817193 Eh     change       -0.1707796E-04 Eh
   gradient norm :     0.0007261 Eh/α   predicted    -0.7845770E-05 ( -54.06%)
   displ. norm   :     0.3274538 α      lambda       -0.1359199E-04
   maximum displ.:     0.1930052 α      in ANC's #4, #8, #7, ...

........................................................................
.............................. CYCLE   59 ..............................
........................................................................
   1   -134.0222322 -0.134022E+03  0.378E-02    3.36       0.0  T
   2   -134.0222327 -0.435431E-06  0.222E-02    3.36       1.0  T
   3   -134.0222319  0.738697E-06  0.292E-03    3.36       3.7  T
   4   -134.0222329 -0.951957E-06  0.610E-04    3.36      17.7  T
   5   -134.0222329 -0.340401E-08  0.303E-04    3.36      35.6  T
     SCC iter.                  ...        0 min,  0.135 sec
     gradient                   ...        0 min,  0.144 sec
 * total energy  :  -132.0817351 Eh     change       -0.1578915E-04 Eh
   gradient norm :     0.0008006 Eh/α   predicted    -0.7120680E-05 ( -54.90%)
   displ. norm   :     0.3281193 α      lambda       -0.1389278E-04
   maximum displ.:     0.1910160 α      in ANC's #4, #8, #7, ...

........................................................................
.............................. CYCLE   60 ..............................
........................................................................
   1   -134.0228243 -0.134023E+03  0.368E-02    3.36       0.0  T
   2   -134.0228247 -0.352589E-06  0.217E-02    3.36       1.0  T
   3   -134.0228242  0.450086E-06  0.239E-03    3.36       4.5  T
   4   -134.0228248 -0.615393E-06  0.590E-04    3.36      18.3  T
   5   -134.0228248 -0.337184E-08  0.275E-04    3.36      39.2  T
     SCC iter.                  ...        0 min,  0.136 sec
     gradient                   ...        0 min,  0.130 sec
 * total energy  :  -132.0817509 Eh     change       -0.1573799E-04 Eh
   gradient norm :     0.0007526 Eh/α   predicted    -0.7280841E-05 ( -53.74%)
   displ. norm   :     0.3306920 α      lambda       -0.1138027E-04
   maximum displ.:     0.1923155 α      in ANC's #4, #8, #7, ...

........................................................................
.............................. CYCLE   61 ..............................
........................................................................
   1   -134.0221870 -0.134022E+03  0.365E-02    3.36       0.0  T
   2   -134.0221874 -0.327101E-06  0.215E-02    3.36       1.0  T
   3   -134.0221871  0.284385E-06  0.205E-03    3.36       5.3  T
   4   -134.0221875 -0.424663E-06  0.600E-04    3.36      18.0  T
   5   -134.0221875 -0.486972E-08  0.287E-04    3.36      37.5  T
     SCC iter.                  ...        0 min,  0.135 sec
     gradient                   ...        0 min,  0.140 sec
 * total energy  :  -132.0817636 Eh     change       -0.1269783E-04 Eh
   gradient norm :     0.0010188 Eh/α   predicted    -0.5967490E-05 ( -53.00%)
   displ. norm   :     0.2241102 α      lambda       -0.1342794E-04
   maximum displ.:     0.1172820 α      in ANC's #4, #8, #6, ...

........................................................................
.............................. CYCLE   62 ..............................
........................................................................
   1   -134.0242038 -0.134024E+03  0.253E-02    3.37       0.0  T
   2   -134.0242041 -0.230627E-06  0.150E-02    3.37       1.0  T
   3   -134.0242039  0.201318E-06  0.178E-03    3.37       6.0  T
   4   -134.0242042 -0.276932E-06  0.484E-04    3.37      22.3  T
   5   -134.0242042 -0.538577E-08  0.250E-04    3.37      43.2  T
     SCC iter.                  ...        0 min,  0.140 sec
     gradient                   ...        0 min,  0.130 sec
 * total energy  :  -132.0817750 Eh     change       -0.1139550E-04 Eh
   gradient norm :     0.0011343 Eh/α   predicted    -0.6864137E-05 ( -39.76%)
   displ. norm   :     0.2297247 α      lambda       -0.9250969E-05
   maximum displ.:     0.1317774 α      in ANC's #4, #8, #3, ...

........................................................................
.............................. CYCLE   63 ..............................
........................................................................
   1   -134.0226364 -0.134023E+03  0.253E-02    3.36       0.0  T
   2   -134.0226366 -0.184316E-06  0.149E-02    3.36       1.0  T
   3   -134.0226365  0.128497E-06  0.147E-03    3.36       7.4  T
   4   -134.0226367 -0.197164E-06  0.452E-04    3.36      23.9  T
   5   -134.0226367 -0.388397E-08  0.237E-04    3.36      45.5  T
     SCC iter.                  ...        0 min,  0.140 sec
     gradient                   ...        0 min,  0.143 sec
 * total energy  :  -132.0817841 Eh     change       -0.9155975E-05 Eh
   gradient norm :     0.0007340 Eh/α   predicted    -0.4738172E-05 ( -48.25%)
   displ. norm   :     0.2297006 α      lambda        0.1444440E-05
   maximum displ.:     0.1317773 α      in ANC's #4, #8, #3, ...

........................................................................
.............................. CYCLE   64 ..............................
........................................................................
   1   -134.0206764 -0.134021E+03  0.253E-02    3.36       0.0  T
   2   -134.0206766 -0.199564E-06  0.150E-02    3.36       1.0  T
   3   -134.0206765  0.127930E-06  0.149E-03    3.36       7.2  T
   4   -134.0206767 -0.198561E-06  0.462E-04    3.36      23.3  T
   5   -134.0206767 -0.426397E-08  0.246E-04    3.36      43.8  T
     SCC iter.                  ...        0 min,  0.141 sec
     gradient                   ...        0 min,  0.149 sec
 * total energy  :  -132.0817825 Eh     change        0.1628486E-05 Eh
   gradient norm :     0.0019069 Eh/α   predicted     0.7391341E-06 ( -54.61%)
   displ. norm   :     0.1172191 α      lambda       -0.1031353E-04
   maximum displ.:     0.0677779 α      in ANC's #4, #8, #7, ...

........................................................................
.............................. CYCLE   65 ..............................
........................................................................
   1   -134.0224575 -0.134022E+03  0.143E-02    3.37       0.0  T
   2   -134.0224576 -0.114566E-06  0.838E-03    3.37       1.3  T
   3   -134.0224575  0.131464E-06  0.135E-03    3.37       8.0  T
   4   -134.0224576 -0.168993E-06  0.287E-04    3.37      37.5  T
   5   -134.0224576 -0.208314E-08  0.151E-04    3.37      71.5  T
     SCC iter.                  ...        0 min,  0.135 sec
     gradient                   ...        0 min,  0.141 sec
 * total energy  :  -132.0817923 Eh     change       -0.9806780E-05 Eh
   gradient norm :     0.0006700 Eh/α   predicted    -0.5190298E-05 ( -47.07%)
   displ. norm   :     0.1169880 α      lambda        0.1850570E-05
   maximum displ.:     0.0677746 α      in ANC's #4, #8, #7, ...

........................................................................
.............................. CYCLE   66 ..............................
........................................................................
   1   -134.0241297 -0.134024E+03  0.142E-02    3.37       0.0  T
   2   -134.0241298 -0.112653E-06  0.837E-03    3.37       1.3  T
   3   -134.0241296  0.120754E-06  0.130E-03    3.37       8.3  T
   4   -134.0241298 -0.157352E-06  0.288E-04    3.37      37.4  T
   5   -134.0241298 -0.204588E-08  0.153E-04    3.37      70.4  T
     SCC iter.                  ...        0 min,  0.140 sec
     gradient                   ...        0 min,  0.160 sec
 * total energy  :  -132.0817914 Eh     change        0.8657874E-06 Eh
   gradient norm :     0.0015024 Eh/α   predicted     0.9291947E-06 (   7.32%)
   displ. norm   :     0.0895838 α      lambda       -0.7193750E-05
   maximum displ.:     0.0508631 α      in ANC's #4, #8, #3, ...
 * RMSD in coord.:     0.4145533 α      energy gain  -0.2638872E-03 Eh

generating ANC from model Hessian ...
Using Lindh-Hessian (1995)
 Shifting diagonal of input Hessian by    9.9323875389680915E-003
 Lowest  eigenvalues of input Hessian
    0.000000    0.000000    0.000000    0.000000    0.000000    0.000000
    0.010000    0.010149    0.010207    0.010304    0.010333    0.010399
[...]
    15   6 C        2.918    -0.067    29.681     8.934
    16   6 C        2.864     0.140    24.953     8.188
    17   8 O        1.705    -0.276    18.581     5.820
    18   6 C        3.641     0.041    20.235     6.469
    19   7 N        2.770    -0.105    23.290     7.168
    20   6 C        2.761     0.271    22.415     7.753
    21   6 C        2.975    -0.017    28.441     8.748
    22   6 C        2.924    -0.026    28.658     8.779
    23   6 C        2.918    -0.030    28.745     8.792
    24   6 C        2.925    -0.034    28.841     8.807
    25   6 C        2.972     0.012    27.736     8.639
    26   6 C        3.855    -0.012    20.756     6.480
    27   6 C        3.756    -0.104    22.540     6.769
    28   6 C        3.756    -0.103    22.515     6.765
    29   6 C        2.928    -0.041    29.022     8.835
    30   8 O        0.859    -0.425    22.184     6.315
    31   6 C        3.762     0.091    19.117     6.233
    32   6 C        2.686     0.360    20.899     7.481
    33   8 O        1.659    -0.365    20.176     6.064
    34   8 O        0.856    -0.397    21.619     6.234
    35   7 N        2.766    -0.108    23.363     7.179
    36   6 C        2.766     0.273    22.383     7.748
    37   6 C        2.974    -0.020    28.505     8.758
    38   6 C        2.935    -0.030    28.756     8.795
    39   6 C        2.972     0.013    27.731     8.638
    40   6 C        3.855    -0.013    20.774     6.482
    41   6 C        3.755    -0.101    22.477     6.760
    42   6 C        3.757    -0.103    22.524     6.767
    43   6 C        2.925    -0.038    28.942     8.822
    44   6 C        2.919    -0.031    28.765     8.795
    45   6 C        2.919    -0.041    29.007     8.832
    46   8 O        0.859    -0.421    22.098     6.303
    47   1 H        0.924     0.047     2.354     2.399
    48   1 H        0.925     0.061     2.182     2.310
    49   1 H        0.924     0.040     2.452     2.449
    50   1 H        0.926     0.040     2.450     2.448
    51   1 H        0.926     0.037     2.487     2.466
    52   1 H        0.926     0.034     2.534     2.489
    53   1 H        0.926     0.028     2.616     2.529
    54   1 H        0.924     0.089     1.889     2.149
    55   1 H        0.924     0.074     2.038     2.233
    56   1 H        0.926     0.060     2.198     2.319
    57   1 H        0.926     0.042     2.426     2.436
    58   1 H        0.926     0.038     2.477     2.461
    59   1 H        0.926     0.038     2.476     2.461
    60   1 H        0.924     0.044     2.401     2.423
    61   1 H        0.924     0.037     2.496     2.471
    62   1 H        0.925     0.077     2.012     2.218
    63   1 H        0.926     0.043     2.403     2.424
    64   1 H        0.926     0.037     2.491     2.468
    65   1 H        0.926     0.039     2.468     2.457
    66   1 H        0.924     0.029     2.598     2.521
    67   1 H        0.925     0.039     2.462     2.454
    68   1 H        0.925     0.035     2.521     2.483
    69   1 H        0.925     0.038     2.470     2.458
    70   1 H        0.925     0.036     2.504     2.475
    71   1 H        0.925     0.039     2.458     2.452
    72   1 H        0.925     0.039     2.459     2.452
    73   1 H        0.925     0.025     2.666     2.553
    74   1 H        0.923     0.069     2.097     2.265
    75   1 H        0.804     0.338     0.616     1.233
    76   1 H        0.926     0.041     2.432     2.439
    77   1 H        0.924     0.032     2.563     2.504
    78   1 H        0.925     0.037     2.493     2.469
    79   1 H        0.925     0.039     2.463     2.454
    80   1 H        0.925     0.029     2.594     2.519
    81   1 H        0.925     0.042     2.419     2.432
    82   1 H        0.925     0.038     2.481     2.463
    83   1 H        0.925     0.035     2.517     2.481
    84   1 H        0.926     0.032     2.554     2.499
    85   1 H        0.926     0.033     2.547     2.496
    86   1 H        0.926     0.055     2.255     2.348

 Mol. C6AA /au·bohr⁶  :      84085.632348
 Mol. C8AA /au·bohr⁸  :    1995167.865572
 Mol. α(0) /au        :        451.566907


Wiberg/Mayer (AO) data.
largest (>0.10) Wiberg bond orders for each atom

 ---------------------------------------------------------------------------
     #   Z sym  total        # sym  WBO       # sym  WBO       # sym  WBO
 ---------------------------------------------------------------------------
     1   6 C    3.936 --     4 C    1.377     8 C    1.327     2 O    1.065
     2   8 O    2.237 --     1 C    1.065     3 C    0.983
     3   6 C    3.944 --     2 O    0.983    48 H    0.980    47 H    0.977
                            49 H    0.976
     4   6 C    3.987 --     5 C    1.439     1 C    1.377    50 H    0.965
                             7 C    0.102
     5   6 C    3.990 --     6 C    1.440     4 C    1.439    51 H    0.971
                             8 C    0.107
     6   6 C    3.991 --     5 C    1.440     7 C    1.429    52 H    0.971
     7   6 C    3.991 --     8 C    1.435     6 C    1.429    53 H    0.968
                             4 C    0.102
     8   6 C    3.984 --     7 C    1.435     1 C    1.327     9 C    0.990
                             5 C    0.107
     9   6 C    3.960 --     8 C    0.990    10 C    0.960    35 N    0.952
                            54 H    0.949
    10   6 C    3.962 --    11 C    0.988     9 C    0.960    55 H    0.953
                            19 N    0.951
    11   6 C    3.983 --    12 C    1.434    16 C    1.330    10 C    0.988
                            14 C    0.107
    12   6 C    3.987 --    11 C    1.434    13 C    1.428    56 H    0.965
                            15 C    0.103
    13   6 C    3.990 --    14 C    1.443    12 C    1.428    57 H    0.970
    14   6 C    3.990 --    13 C    1.443    15 C    1.436    58 H    0.971
                            11 C    0.107
    15   6 C    3.987 --    14 C    1.436    16 C    1.381    59 H    0.965
                            12 C    0.103
    16   6 C    3.931 --    15 C    1.381    11 C    1.330    17 O    1.050
    17   8 O    2.249 --    16 C    1.050    18 C    0.978
    18   6 C    3.939 --    17 O    0.978    60 H    0.976    61 H    0.976
                            62 H    0.976
    19   7 N    3.480 --    20 C    1.213    31 C    0.997    10 C    0.951
                            30 O    0.191
    20   6 C    3.945 --    30 O    1.687    19 N    1.213    21 C    0.960
    21   6 C    3.987 --    22 C    1.409    29 C    1.403    20 C    0.960
                            24 C    0.109
    22   6 C    3.990 --    23 C    1.436    21 C    1.409    63 H    0.969
                            25 C    0.108
    23   6 C    3.991 --    24 C    1.449    22 C    1.436    64 H    0.970
                            29 C    0.108
    24   6 C    3.991 --    23 C    1.449    25 C    1.405    65 H    0.966
                            21 C    0.109
    25   6 C    3.987 --    29 C    1.418    24 C    1.405    26 C    0.998
                            22 C    0.108
    26   6 C    3.995 --    27 C    0.999    25 C    0.998    28 C    0.995
                            66 H    0.964
    27   6 C    3.996 --    26 C    0.999    69 H    0.985    68 H    0.985
                            67 H    0.984
    28   6 C    3.996 --    26 C    0.995    70 H    0.987    72 H    0.986
                            71 H    0.985
    29   6 C    3.990 --    25 C    1.418    21 C    1.403    73 H    0.965
                            23 C    0.108
    30   8 O    2.012 --    20 C    1.687    19 N    0.191
    31   6 C    3.976 --    19 N    0.997    35 N    0.993    74 H    0.920
                            32 C    0.908
    32   6 C    3.916 --    34 O    1.760    33 O    1.148    31 C    0.908
    33   8 O    2.212 --    32 C    1.148    75 H    0.859    34 O    0.173
    34   8 O    2.051 --    32 C    1.760    33 O    0.173
    35   7 N    3.458 --    36 C    1.199    31 C    0.993     9 C    0.952
                            46 O    0.186
    36   6 C    3.942 --    46 O    1.696    35 N    1.199    37 C    0.962
    37   6 C    3.987 --    45 C    1.406    38 C    1.404    36 C    0.962
                            43 C    0.107
    38   6 C    3.990 --    39 C    1.416    37 C    1.404    76 H    0.964
                            44 C    0.110
    39   6 C    3.987 --    38 C    1.416    43 C    1.409    40 C    0.998
                            45 C    0.108
    40   6 C    3.995 --    41 C    1.001    39 C    0.998    42 C    0.994
                            77 H    0.968
    41   6 C    3.996 --    40 C    1.001    78 H    0.986    79 H    0.984
                            80 H    0.984
    42   6 C    3.995 --    40 C    0.994    83 H    0.987    81 H    0.986
                            82 H    0.985
    43   6 C    3.991 --    44 C    1.443    39 C    1.409    84 H    0.968
                            37 C    0.107
    44   6 C    3.992 --    43 C    1.443    45 C    1.438    85 H    0.970
                            38 C    0.110
    45   6 C    3.989 --    44 C    1.438    37 C    1.406    86 H    0.963
                            39 C    0.108
    46   8 O    2.019 --    36 C    1.696    35 N    0.186
    47   1 H    0.998 --     3 C    0.977
    48   1 H    0.996 --     3 C    0.980
    49   1 H    0.998 --     3 C    0.976
    50   1 H    0.998 --     4 C    0.965
    51   1 H    0.998 --     5 C    0.971
    52   1 H    0.999 --     6 C    0.971
    53   1 H    0.999 --     7 C    0.968
    54   1 H    0.991 --     9 C    0.949
    55   1 H    0.994 --    10 C    0.953
    56   1 H    0.996 --    12 C    0.965
    57   1 H    0.998 --    13 C    0.970
    58   1 H    0.998 --    14 C    0.971
    59   1 H    0.998 --    15 C    0.965
    60   1 H    0.998 --    18 C    0.976
    61   1 H    0.999 --    18 C    0.976
    62   1 H    0.994 --    18 C    0.976
    63   1 H    0.998 --    22 C    0.969
    64   1 H    0.998 --    23 C    0.970
    65   1 H    0.998 --    24 C    0.966
    66   1 H    0.999 --    26 C    0.964
    67   1 H    0.998 --    27 C    0.984
    68   1 H    0.999 --    27 C    0.985
    69   1 H    0.998 --    27 C    0.985
    70   1 H    0.999 --    28 C    0.987
    71   1 H    0.998 --    28 C    0.985
    72   1 H    0.998 --    28 C    0.986
    73   1 H    0.999 --    29 C    0.965
    74   1 H    0.994 --    31 C    0.920
    75   1 H    0.885 --    33 O    0.859
    76   1 H    0.998 --    38 C    0.964
    77   1 H    0.998 --    40 C    0.968
    78   1 H    0.998 --    41 C    0.986
    79   1 H    0.998 --    41 C    0.984
    80   1 H    0.999 --    41 C    0.984
    81   1 H    0.998 --    42 C    0.986
    82   1 H    0.998 --    42 C    0.985
    83   1 H    0.999 --    42 C    0.987
    84   1 H    0.998 --    43 C    0.968
    85   1 H    0.998 --    44 C    0.970
    86   1 H    0.996 --    45 C    0.963
 ---------------------------------------------------------------------------

Topologies differ in total number of bonds
Writing topology from bond orders to xtbtopo.mol

molecular dipole:
                 x           y           z       tot (Debye)
 q only:       -0.534       0.124      -0.167
   full:       -0.768       0.224      -0.368       2.238
molecular quadrupole (traceless):
                xx          xy          yy          xz          yz          zz
 q only:        5.900      -2.008      21.707      15.471      14.097     -27.607
  q+dip:       12.453      -1.450      24.437      24.260      18.751     -36.890
   full:       10.689      -2.374      22.007      21.308      17.874     -32.696

           -------------------------------------------------
          |                Geometry Summary                 |
           -------------------------------------------------

      molecular mass/u    :      620.7354301
   center of mass at/Å    :       -0.2029629      -0.4048700      -0.1086358
  moments of inertia/u·Å² :        0.5363560E+04   0.7489191E+04   0.9806231E+04
rotational constants/cm⁻¹ :        0.3142993E-02   0.2250928E-02   0.1719074E-02

 * 83 selected distances

     #   Z          #   Z                                           value/Å
     1   6 C        2   8 O                                       1.3611690
     2   8 O        3   6 C                                       1.4066178
     1   6 C        4   6 C                                       1.3906913
     4   6 C        5   6 C                                       1.3840930
     5   6 C        6   6 C                                       1.3817017
     6   6 C        7   6 C                                       1.3835959
     1   6 C        8   6 C                                       1.4009901
     7   6 C        8   6 C                                       1.3848432
     9   6 C       10   6 C                                       1.5421075 (max)
    11   6 C       12   6 C                                       1.3865014
    12   6 C       13   6 C                                       1.3838992
    13   6 C       14   6 C                                       1.3811970
    14   6 C       15   6 C                                       1.3839897
    11   6 C       16   6 C                                       1.4030134
    15   6 C       16   6 C                                       1.3901723
    16   6 C       17   8 O                                       1.3652790
    17   8 O       18   6 C                                       1.4072267
    10   6 C       19   7 N                                       1.4592316
    19   7 N       20   6 C                                       1.3558288
    21   6 C       22   6 C                                       1.3874959
    22   6 C       23   6 C                                       1.3834705
    23   6 C       24   6 C                                       1.3826653
    24   6 C       25   6 C                                       1.3903949
    26   6 C       27   6 C                                       1.5290356
    26   6 C       28   6 C                                       1.5305282
    21   6 C       29   6 C                                       1.3899118
    25   6 C       29   6 C                                       1.3881887
    20   6 C       30   8 O                                       1.2136899
    19   7 N       31   6 C                                       1.4342474
    32   6 C       33   8 O                                       1.3316806
    32   6 C       34   8 O                                       1.1997401
     9   6 C       35   7 N                                       1.4636632
    31   6 C       35   7 N                                       1.4378735
    35   7 N       36   6 C                                       1.3615603
    37   6 C       38   6 C                                       1.3905304
    38   6 C       39   6 C                                       1.3875064
    40   6 C       41   6 C                                       1.5290854
    40   6 C       42   6 C                                       1.5308248
    39   6 C       43   6 C                                       1.3895060
    43   6 C       44   6 C                                       1.3840709
    37   6 C       45   6 C                                       1.3876044
    44   6 C       45   6 C                                       1.3845142
    36   6 C       46   8 O                                       1.2136455
     3   6 C       47   1 H                                       1.0939795
     3   6 C       48   1 H                                       1.0889684
     3   6 C       49   1 H                                       1.0951668
     4   6 C       50   1 H                                       1.0783620
     5   6 C       51   1 H                                       1.0799062
     6   6 C       52   1 H                                       1.0796347
     7   6 C       53   1 H                                       1.0811310
     9   6 C       54   1 H                                       1.0909138
    10   6 C       55   1 H                                       1.0960052
    12   6 C       56   1 H                                       1.0790185
    13   6 C       57   1 H                                       1.0787673
    14   6 C       58   1 H                                       1.0798900
    15   6 C       59   1 H                                       1.0786309
    18   6 C       60   1 H                                       1.0937860
    18   6 C       61   1 H                                       1.0948376
    18   6 C       62   1 H                                       1.0888399
    22   6 C       63   1 H                                       1.0789729
    23   6 C       64   1 H                                       1.0801612
    24   6 C       65   1 H                                       1.0795459
    26   6 C       66   1 H                                       1.0958557
    27   6 C       67   1 H                                       1.0868762
    27   6 C       68   1 H                                       1.0876364
    27   6 C       69   1 H                                       1.0875643
    28   6 C       70   1 H                                       1.0877734
    28   6 C       71   1 H                                       1.0877401
    28   6 C       72   1 H                                       1.0872973
    29   6 C       73   1 H                                       1.0827262
    31   6 C       74   1 H                                       1.1013874
    33   8 O       75   1 H                                       0.9708167 (min)
    38   6 C       76   1 H                                       1.0801935
    40   6 C       77   1 H                                       1.0961257
    41   6 C       78   1 H                                       1.0878161
    41   6 C       79   1 H                                       1.0868038
    41   6 C       80   1 H                                       1.0881203
    42   6 C       81   1 H                                       1.0871989
    42   6 C       82   1 H                                       1.0878727
    42   6 C       83   1 H                                       1.0876477
    43   6 C       84   1 H                                       1.0809919
    44   6 C       85   1 H                                       1.0805170
    45   6 C       86   1 H                                       1.0779013

 * 5 distinct bonds (by element types)

   Z      Z             #   av. dist./Å        max./Å        min./Å
   1 H    6 C          39     1.0862196     1.1013874     1.0779013
   6 C    6 C          29     1.4124872     1.5421075     1.3811970
   6 C    7 N           6     1.4187341     1.4636632     1.3558288
   1 H    8 O           1     0.9708167     0.9708167     0.9708167
   6 C    8 O           8     1.3123811     1.4072267     1.1997401


optimized geometry written to: xtbopt.xyz


           -------------------------------------------------
          | TOTAL ENERGY             -132.081798752767 Eh   |
          | GRADIENT NORM               0.000537536422 Eh/α |
          | HOMO-LUMO GAP               3.364552192951 eV   |
           -------------------------------------------------

------------------------------------------------------------------------
 * finished run on 2022/03/16 at 22:52:56.747     
------------------------------------------------------------------------
 total:
 * wall-time:     0 d,  0 h,  0 min, 33.781 sec
 *  cpu-time:     0 d,  0 h, 11 min, 30.264 sec
 * ratio c/w:    20.434 speedup
 SCF:
 * wall-time:     0 d,  0 h,  0 min,  0.650 sec
 *  cpu-time:     0 d,  0 h,  0 min,  9.934 sec
 * ratio c/w:    15.281 speedup
 ANC optimizer:
 * wall-time:     0 d,  0 h,  0 min, 32.986 sec
 *  cpu-time:     0 d,  0 h, 11 min, 16.097 sec
 * ratio c/w:    20.497 speedup

