      -----------------------------------------------------------      
     |                   =====================                   |     
     |                           x T B                           |     
     |                   =====================                   |     
     |                         S. Grimme                         |     
     |          Mulliken Center for Theoretical Chemistry        |     
     |                    University of Bonn                     |     
      -----------------------------------------------------------      

   * xtb version 6.3.3 (4ae9cef) compiled by 'conda@95abc7406d43' on 2020-10-14

   xtb is free software: you can redistribute it and/or modify it under
   the terms of the GNU Lesser General Public License as published by
   the Free Software Foundation, either version 3 of the License, or
   (at your option) any later version.
   
   xtb is distributed in the hope that it will be useful,
   but WITHOUT ANY WARRANTY; without even the implied warranty of
   MERCHANTABILITY or FITNESS FOR A PARTICULAR PURPOSE.  See the
   GNU Lesser General Public License for more details.
   
   Cite this work as:
   * C. Bannwarth, E. Caldeweyher, S. Ehlert, A. Hansen, P. Pracht,
     J. Seibert, S. Spicher, S. Grimme, WIREs Comput. Mol. Sci., 2020,
     e01493. DOI: 10.1002/wcms.1493
   
   for GFN2-xTB:
   * S. Grimme, C. Bannwarth, P. Shushkov, J. Chem. Theory Comput., 2017,
     13, 1989-2009. DOI: 10.1021/acs.jctc.7b00118
   for GFN1-xTB:
   * C. Bannwarth, S. Ehlert and S. Grimme., J. Chem. Theory Comput., 2019,
     15, 1652-1671. DOI: 10.1021/acs.jctc.8b01176
   for GFN0-xTB:
   * P. Pracht, E. Caldeweyher, S. Ehlert, S. Grimme, ChemRxiv, 2019, preprint.
     DOI: 10.26434/chemrxiv.8326202.v1
   for GFN-FF:
   * S. Spicher and S. Grimme, Angew. Chem. Int. Ed., 2020, 59, 15665-15673.
     DOI: 10.1002/anie.202004239
   
   for DFT-D4:
   * E. Caldeweyher, C. Bannwarth and S. Grimme, J. Chem. Phys., 2017,
     147, 034112. DOI: 10.1063/1.4993215
   * E. Caldeweyher, S. Ehlert, A. Hansen, H. Neugebauer, S. Spicher,
     C. Bannwarth and S. Grimme, J. Chem. Phys., 2019, 150, 154122.
     DOI: 10.1063/1.5090222
   * E. Caldeweyher, J.-M. Mewes, S. Ehlert and S. Grimme, Phys. Chem. Chem. Phys.
     2020, 22, 8499-8512. DOI: 10.1039/D0CP00502A
   
   for sTDA-xTB:
   * S. Grimme and C. Bannwarth, J. Chem. Phys., 2016, 145, 054103.
     DOI: 10.1063/1.4959605
   
   in the mass-spec context:
   * V. Asgeirsson, C. Bauer and S. Grimme, Chem. Sci., 2017, 8, 4879.
     DOI: 10.1039/c7sc00601b
   * J. Koopman and S. Grimme, ACS Omega 2019, 4, 12, 15120-15133.
     DOI: 10.1021/acsomega.9b02011
   
   for metadynamics refer to:
   * S. Grimme, J. Chem. Theory Comput., 2019, 155, 2847-2862
     DOI: 10.1021/acs.jctc.9b00143
   
   with help from (in alphabetical order)
   C. Bannwarth, F. Bohle, G. Brandenburg, E. Caldeweyher, M. Checinski,
   S. Dohm, S. Ehlert, S. Ehrlich, F. März, H. Neugebauer, J. Pisarek,
   P. Pracht, P. Shushkov, and S. Spicher.
   
 * started run on 2022/03/17 at 00:18:23.098     

           -------------------------------------------------
          |                Calculation Setup                |
           -------------------------------------------------

          program call               : xtb acid_365.xyz --opt --chrg 0 --uhf 0 --gfn 2
          coordinate file            : acid_365.xyz
          omp threads                :                    64
          number of atoms            :                    66
          number of electrons        :                   230
          charge                     :                     0
          spin                       :                   0.0
          first test random number   :      0.09148725040324

   ID    Z sym.   atoms
    1    6 C      1, 2, 6-15, 19-22, 24-29, 32, 33, 37-42
    2    9 F      3-5, 16-18
    3    7 N      23, 36
    4    8 O      30, 31, 34, 35, 43, 44
    5    1 H      45-66

           -------------------------------------------------
          |                 G F N 2 - x T B                 |
           -------------------------------------------------

        Reference                      10.1021/acs.jctc.8b01176
      * Hamiltonian:
        H0-scaling (s, p, d)           1.850000    2.230000    2.230000
        zeta-weighting                 0.500000
      * Dispersion:
        s8                             2.700000
        a1                             0.520000
        a2                             5.000000
        s9                             5.000000
      * Repulsion:
        kExp                           1.500000    1.000000
        rExp                           1.000000
      * Coulomb:
        alpha                          2.000000
        third order                    shell-resolved
        anisotropic                    true
        a3                             3.000000
        a5                             4.000000
        cn-shift                       1.200000
        cn-exp                         4.000000
        max-rad                        5.000000


          ...................................................
          :                      SETUP                      :
          :.................................................:
          :  # basis functions                 198          :
          :  # atomic orbitals                 198          :
          :  # shells                          110          :
          :  # electrons                       230          :
          :  max. iterations                   250          :
          :  Hamiltonian                  GFN2-xTB          :
          :  restarted?                      false          :
          :  GBSA solvation                  false          :
          :  PC potential                    false          :
          :  electronic temp.          300.0000000     K    :
          :  accuracy                    1.0000000          :
          :  -> integral cutoff          0.2500000E+02      :
          :  -> integral neglect         0.1000000E-07      :
          :  -> SCF convergence          0.1000000E-05 Eh   :
          :  -> wf. convergence          0.1000000E-03 e    :
          :  Broyden damping             0.4000000          :
          ...................................................

 iter      E             dE          RMSdq      gap      omega  full diag
   1   -135.2676279 -0.135268E+03  0.459E+00    3.20       0.0  T
   2   -135.5061849 -0.238557E+00  0.267E+00    2.98       1.0  T
   3   -135.5156330 -0.944810E-02  0.140E+00    3.22       1.0  T
   4   -135.5329371 -0.173041E-01  0.330E-01    2.76       1.0  T
   5   -135.5389227 -0.598558E-02  0.100E-01    2.78       1.0  T
   6   -135.5390903 -0.167672E-03  0.475E-02    2.82       1.0  T
   7   -135.5391500 -0.596614E-04  0.198E-02    2.81       1.0  T
   8   -135.5391514 -0.144426E-05  0.794E-03    2.81       1.6  T
   9   -135.5391537 -0.225036E-05  0.360E-03    2.82       3.4  T
  10   -135.5391539 -0.245311E-06  0.146E-03    2.81       8.4  T
  11   -135.5391540 -0.613973E-07  0.575E-04    2.81      21.4  T
  12   -135.5391540 -0.307512E-08  0.277E-04    2.81      44.5  T

   *** convergence criteria satisfied after 12 iterations ***

         #    Occupation            Energy/Eh            Energy/eV
      -------------------------------------------------------------
         1        2.0000           -0.8670880             -23.5947
       ...           ...                  ...                  ...
       109        2.0000           -0.4294109             -11.6849
       110        2.0000           -0.4208202             -11.4511
       111        2.0000           -0.4159801             -11.3194
       112        2.0000           -0.4131930             -11.2436
       113        2.0000           -0.4101286             -11.1602
       114        2.0000           -0.4002864             -10.8923
       115        2.0000           -0.3908911             -10.6367 (HOMO)
       116                         -0.2874640              -7.8223 (LUMO)
       117                         -0.2706548              -7.3649
       118                         -0.2685242              -7.3069
       119                         -0.2657130              -7.2304
       120                         -0.2604807              -7.0880
       ...                                ...                  ...
       198                          0.6608588              17.9829
      -------------------------------------------------------------
                  HL-Gap            0.1034270 Eh            2.8144 eV
             Fermi-level           -0.3391775 Eh           -9.2295 eV

 SCC (total)                   0 d,  0 h,  0 min,  0.490 sec
 SCC setup                      ...        0 min,  0.011 sec (  2.308%)
 Dispersion                     ...        0 min,  0.019 sec (  3.848%)
 classical contributions        ...        0 min,  0.016 sec (  3.266%)
 integral evaluation            ...        0 min,  0.092 sec ( 18.670%)
 iterations                     ...        0 min,  0.230 sec ( 46.974%)
 molecular gradient             ...        0 min,  0.119 sec ( 24.189%)
 printout                       ...        0 min,  0.004 sec (  0.725%)

         :::::::::::::::::::::::::::::::::::::::::::::::::::::
         ::                     SUMMARY                     ::
         :::::::::::::::::::::::::::::::::::::::::::::::::::::
         :: total energy            -134.151713246889 Eh    ::
         :: gradient norm              0.119784766470 Eh/a0 ::
         :: HOMO-LUMO gap              2.814393188869 eV    ::
         ::.................................................::
         :: SCC energy              -135.539154003367 Eh    ::
         :: -> isotropic ES            0.221208059363 Eh    ::
         :: -> anisotropic ES          0.003269596952 Eh    ::
         :: -> anisotropic XC         -0.003280977241 Eh    ::
         :: -> dispersion             -0.088737361794 Eh    ::
         :: repulsion energy           1.384514641204 Eh    ::
         :: add. restraining           0.000000000000 Eh    ::
         :: total charge              -0.000000000000 e     ::
         :::::::::::::::::::::::::::::::::::::::::::::::::::::

      ----------------------------------------------------------- 
     |                   =====================                   |
     |                        A N C O P T                        |
     |                   =====================                   |
     |               Approximate Normal Coordinate               |
     |                Rational Function Optimizer                |
      ----------------------------------------------------------- 

          ...................................................
          :                      SETUP                      :
          :.................................................:
          :   optimization level            normal          :
          :   max. optcycles                   200          :
          :   ANC micro-cycles                  20          :
          :   degrees of freedom               192          :
          :.................................................:
          :   RF solver                   davidson          :
          :   write xtbopt.log                true          :
          :   linear?                        false          :
          :   energy convergence         0.5000000E-05 Eh   :
          :   grad. convergence          0.1000000E-02 Eh/α :
          :   maximium RF displ.         1.0000000          :
          :   Hlow (freq-cutoff)         0.1000000E-01      :
          :   Hmax (freq-cutoff)         5.0000000          :
          :   S6 in model hess.         20.0000000          :
          ...................................................

generating ANC from model Hessian ...
Using Lindh-Hessian (1995)
 Shifting diagonal of input Hessian by    9.8595348858606258E-003
 Lowest  eigenvalues of input Hessian
    0.000000    0.000000    0.000000    0.000000    0.000000    0.000000
    0.010000    0.010147    0.010179    0.010390    0.010409    0.010512
    0.010785    0.010956    0.011011    0.011251    0.011614    0.012720
 Highest eigenvalues
    1.925131    1.984639    1.994760    2.214568    2.257743    2.267460


........................................................................
.............................. CYCLE    1 ..............................
........................................................................
   1   -135.5391540 -0.135539E+03  0.114E-04    2.81       0.0  T
   2   -135.5391540 -0.140261E-09  0.752E-05    2.81     163.7  T
   3   -135.5391540 -0.859757E-10  0.487E-05    2.81     252.9  T
     SCC iter.                  ...        0 min,  0.059 sec
     gradient                   ...        0 min,  0.116 sec
 * total energy  :  -134.1517132 Eh     change       -0.2431250E-08 Eh
   gradient norm :     0.1197851 Eh/α   predicted     0.0000000E+00 (-100.00%)
   displ. norm   :     0.3624286 α      lambda       -0.2064369E-01
   maximum displ.:     0.1160008 α      in ANC's #21, #54, #52, ...

........................................................................
.............................. CYCLE    2 ..............................
........................................................................
   1   -135.6253951 -0.135625E+03  0.163E-01    3.07       0.0  T
   2   -135.6255427 -0.147628E-03  0.970E-02    3.00       1.0  T
   3   -135.6254810  0.617763E-04  0.527E-02    3.01       1.0  T
   4   -135.6255882 -0.107254E-03  0.106E-02    3.00       1.2  T
   5   -135.6255938 -0.558093E-05  0.365E-03    2.99       3.4  T
   6   -135.6255941 -0.297908E-06  0.189E-03    3.00       6.5  T
   7   -135.6255941 -0.385155E-07  0.799E-04    3.00      15.4  T
   8   -135.6255942 -0.177173E-07  0.313E-04    3.00      39.4  T
     SCC iter.                  ...        0 min,  0.153 sec
     gradient                   ...        0 min,  0.127 sec
 * total energy  :  -134.1661850 Eh     change       -0.1447175E-01 Eh
   gradient norm :     0.0495663 Eh/α   predicted    -0.1167768E-01 ( -19.31%)
   displ. norm   :     0.3673803 α      lambda       -0.7252719E-02
   maximum displ.:     0.1915703 α      in ANC's #21, #19, #38, ...

........................................................................
.............................. CYCLE    3 ..............................
........................................................................
   1   -135.6706525 -0.135671E+03  0.113E-01    3.11       0.0  T
   2   -135.6707423 -0.897173E-04  0.695E-02    3.06       1.0  T
   3   -135.6707194  0.228970E-04  0.380E-02    3.06       1.0  T
   4   -135.6707709 -0.515276E-04  0.813E-03    3.06       1.5  T
   5   -135.6707743 -0.343688E-05  0.248E-03    3.05       5.0  T
   6   -135.6707745 -0.119662E-06  0.135E-03    3.05       9.1  T
   7   -135.6707745 -0.244139E-07  0.558E-04    3.05      22.0  T
   8   -135.6707745 -0.760070E-08  0.233E-04    3.05      52.8  T
     SCC iter.                  ...        0 min,  0.152 sec
     gradient                   ...        0 min,  0.132 sec
 * total energy  :  -134.1706524 Eh     change       -0.4467440E-02 Eh
   gradient norm :     0.0143227 Eh/α   predicted    -0.4115806E-02 (  -7.87%)
   displ. norm   :     0.2801210 α      lambda       -0.1566206E-02
   maximum displ.:     0.1607979 α      in ANC's #21, #19, #10, ...

........................................................................
.............................. CYCLE    4 ..............................
........................................................................
   1   -135.6763826 -0.135676E+03  0.648E-02    3.06       0.0  T
   2   -135.6764005 -0.179397E-04  0.397E-02    3.05       1.0  T
   3   -135.6763920  0.855911E-05  0.173E-02    3.05       1.0  T
   4   -135.6764046 -0.126329E-04  0.446E-03    3.05       2.8  T
   5   -135.6764058 -0.122760E-05  0.136E-03    3.05       9.0  T
   6   -135.6764058 -0.264579E-07  0.720E-04    3.05      17.1  T
   7   -135.6764058 -0.543568E-08  0.284E-04    3.05      43.4  T
     SCC iter.                  ...        0 min,  0.135 sec
     gradient                   ...        0 min,  0.144 sec
 * total energy  :  -134.1717585 Eh     change       -0.1106048E-02 Eh
   gradient norm :     0.0097387 Eh/α   predicted    -0.8445917E-03 ( -23.64%)
   displ. norm   :     0.3183739 α      lambda       -0.9589776E-03
   maximum displ.:     0.1647442 α      in ANC's #21, #10, #19, ...

........................................................................
.............................. CYCLE    5 ..............................
........................................................................
   1   -135.6760916 -0.135676E+03  0.661E-02    3.05       0.0  T
   2   -135.6761019 -0.102348E-04  0.394E-02    3.04       1.0  T
   3   -135.6760945  0.738130E-05  0.139E-02    3.04       1.0  T
   4   -135.6761041 -0.957421E-05  0.360E-03    3.04       3.4  T
   5   -135.6761047 -0.677490E-06  0.131E-03    3.04       9.4  T
   6   -135.6761048 -0.152068E-07  0.664E-04    3.04      18.5  T
   7   -135.6761048 -0.581454E-08  0.279E-04    3.04      44.1  T
     SCC iter.                  ...        0 min,  0.138 sec
     gradient                   ...        0 min,  0.111 sec
 * total energy  :  -134.1724045 Eh     change       -0.6459658E-03 Eh
   gradient norm :     0.0085054 Eh/α   predicted    -0.5280913E-03 ( -18.25%)
   displ. norm   :     0.2854881 α      lambda       -0.5068297E-03
   maximum displ.:     0.1588563 α      in ANC's #10, #21, #9, ...

........................................................................
.............................. CYCLE    6 ..............................
........................................................................
   1   -135.6744796 -0.135674E+03  0.616E-02    3.03       0.0  T
   2   -135.6744848 -0.523223E-05  0.363E-02    3.04       1.0  T
   3   -135.6744809  0.390053E-05  0.101E-02    3.04       1.2  T
   4   -135.6744859 -0.495728E-05  0.245E-03    3.04       5.0  T
   5   -135.6744861 -0.240069E-06  0.102E-03    3.04      12.1  T
   6   -135.6744861 -0.921841E-08  0.508E-04    3.04      24.2  T
   7   -135.6744861 -0.222022E-08  0.212E-04    3.04      58.2  T
     SCC iter.                  ...        0 min,  0.138 sec
     gradient                   ...        0 min,  0.114 sec
 * total energy  :  -134.1727718 Eh     change       -0.3673497E-03 Eh
   gradient norm :     0.0073676 Eh/α   predicted    -0.2740776E-03 ( -25.39%)
   displ. norm   :     0.3246822 α      lambda       -0.4529731E-03
   maximum displ.:     0.1896650 α      in ANC's #10, #9, #20, ...

........................................................................
.............................. CYCLE    7 ..............................
........................................................................
   1   -135.6739167 -0.135674E+03  0.679E-02    3.04       0.0  T
   2   -135.6739236 -0.692471E-05  0.400E-02    3.05       1.0  T
   3   -135.6739194  0.417033E-05  0.104E-02    3.05       1.2  T
   4   -135.6739247 -0.526680E-05  0.274E-03    3.05       4.5  T
   5   -135.6739250 -0.332588E-06  0.107E-03    3.05      11.5  T
   6   -135.6739250 -0.956183E-08  0.564E-04    3.05      21.8  T
   7   -135.6739250 -0.348010E-08  0.217E-04    3.05      56.7  T
     SCC iter.                  ...        0 min,  0.138 sec
     gradient                   ...        0 min,  0.126 sec
 * total energy  :  -134.1731225 Eh     change       -0.3507216E-03 Eh
   gradient norm :     0.0069272 Eh/α   predicted    -0.2503631E-03 ( -28.61%)
   displ. norm   :     0.3841099 α      lambda       -0.4749371E-03
   maximum displ.:     0.2210818 α      in ANC's #10, #1, #9, ...

........................................................................
.............................. CYCLE    8 ..............................
........................................................................
   1   -135.6740757 -0.135674E+03  0.825E-02    3.04       0.0  T
   2   -135.6740834 -0.774039E-05  0.485E-02    3.06       1.0  T
   3   -135.6740762  0.718322E-05  0.125E-02    3.06       1.0  T
   4   -135.6740851 -0.887105E-05  0.285E-03    3.06       4.3  T
   5   -135.6740854 -0.327616E-06  0.121E-03    3.06      10.1  T
   6   -135.6740854 -0.116891E-07  0.635E-04    3.06      19.4  T
   7   -135.6740854 -0.493034E-08  0.236E-04    3.06      52.1  T
     SCC iter.                  ...        0 min,  0.133 sec
     gradient                   ...        0 min,  0.139 sec
 * total energy  :  -134.1734929 Eh     change       -0.3703501E-03 Eh
   gradient norm :     0.0084182 Eh/α   predicted    -0.2725123E-03 ( -26.42%)
   displ. norm   :     0.4205810 α      lambda       -0.4466770E-03
   maximum displ.:     0.2338095 α      in ANC's #10, #1, #16, ...

........................................................................
.............................. CYCLE    9 ..............................
........................................................................
   1   -135.6746626 -0.135675E+03  0.873E-02    3.06       0.0  T
   2   -135.6746689 -0.634850E-05  0.513E-02    3.07       1.0  T
   3   -135.6746609  0.801044E-05  0.124E-02    3.07       1.0  T
   4   -135.6746708 -0.988646E-05  0.257E-03    3.07       4.8  T
   5   -135.6746710 -0.213699E-06  0.123E-03    3.07      10.0  T
   6   -135.6746710 -0.996735E-08  0.629E-04    3.07      19.6  T
   7   -135.6746710 -0.554249E-08  0.230E-04    3.07      53.5  T
     SCC iter.                  ...        0 min,  0.139 sec
     gradient                   ...        0 min,  0.134 sec
 * total energy  :  -134.1738326 Eh     change       -0.3397360E-03 Eh
   gradient norm :     0.0083898 Eh/α   predicted    -0.2628472E-03 ( -22.63%)
   displ. norm   :     0.3947406 α      lambda       -0.3485526E-03
   maximum displ.:     0.2094180 α      in ANC's #10, #1, #16, ...

........................................................................
.............................. CYCLE   10 ..............................
........................................................................
   1   -135.6753966 -0.135675E+03  0.794E-02    3.06       0.0  T
   2   -135.6754004 -0.373778E-05  0.467E-02    3.07       1.0  T
   3   -135.6753933  0.709517E-05  0.113E-02    3.07       1.1  T
   4   -135.6754020 -0.872890E-05  0.204E-03    3.07       6.0  T
   5   -135.6754021 -0.952085E-07  0.108E-03    3.07      11.4  T
   6   -135.6754021 -0.659298E-08  0.507E-04    3.07      24.3  T
   7   -135.6754021 -0.504244E-08  0.192E-04    3.07      63.9  T
     SCC iter.                  ...        0 min,  0.141 sec
     gradient                   ...        0 min,  0.131 sec
 * total energy  :  -134.1740906 Eh     change       -0.2580332E-03 Eh
   gradient norm :     0.0057347 Eh/α   predicted    -0.2014343E-03 ( -21.93%)
   displ. norm   :     0.3449604 α      lambda       -0.2361659E-03
   maximum displ.:     0.1674880 α      in ANC's #10, #1, #16, ...

........................................................................
.............................. CYCLE   11 ..............................
........................................................................
   1   -135.6756395 -0.135676E+03  0.651E-02    3.07       0.0  T
   2   -135.6756421 -0.262147E-05  0.384E-02    3.07       1.0  T
   3   -135.6756348  0.729986E-05  0.111E-02    3.07       1.1  T
   4   -135.6756437 -0.883590E-05  0.158E-03    3.07       7.8  T
   5   -135.6756437 -0.281654E-07  0.903E-04    3.07      13.6  T
   6   -135.6756437 -0.104863E-07  0.436E-04    3.07      28.2  T
     SCC iter.                  ...        0 min,  0.119 sec
     gradient                   ...        0 min,  0.123 sec
 * total energy  :  -134.1742632 Eh     change       -0.1725213E-03 Eh
   gradient norm :     0.0040901 Eh/α   predicted    -0.1321428E-03 ( -23.40%)
   displ. norm   :     0.2771001 α      lambda       -0.1719629E-03
   maximum displ.:     0.1463914 α      in ANC's #1, #10, #4, ...

........................................................................
.............................. CYCLE   12 ..............................
........................................................................
   1   -135.6770776 -0.135677E+03  0.478E-02    3.06       0.0  T
   2   -135.6770810 -0.331095E-05  0.283E-02    3.06       1.0  T
   3   -135.6770774  0.360118E-05  0.888E-03    3.06       1.4  T
   4   -135.6770818 -0.447318E-05  0.181E-03    3.06       6.8  T
   5   -135.6770820 -0.134931E-06  0.773E-04    3.06      15.9  T
   6   -135.6770820 -0.418177E-08  0.409E-04    3.06      30.1  T
     SCC iter.                  ...        0 min,  0.114 sec
     gradient                   ...        0 min,  0.081 sec
 * total energy  :  -134.1743762 Eh     change       -0.1130137E-03 Eh
   gradient norm :     0.0054795 Eh/α   predicted    -0.9263508E-04 ( -18.03%)
   displ. norm   :     0.3020395 α      lambda       -0.1446175E-03
   maximum displ.:     0.1558930 α      in ANC's #1, #10, #4, ...

........................................................................
.............................. CYCLE   13 ..............................
........................................................................
   1   -135.6750099 -0.135675E+03  0.527E-02    3.04       0.0  T
   2   -135.6750153 -0.549852E-05  0.313E-02    3.05       1.0  T
   3   -135.6750083  0.705401E-05  0.124E-02    3.05       1.0  T
   4   -135.6750172 -0.890099E-05  0.219E-03    3.05       5.6  T
   5   -135.6750174 -0.165822E-06  0.961E-04    3.05      12.8  T
   6   -135.6750174 -0.114287E-07  0.523E-04    3.05      23.6  T
     SCC iter.                  ...        0 min,  0.116 sec
     gradient                   ...        0 min,  0.135 sec
 * total energy  :  -134.1744568 Eh     change       -0.8056923E-04 Eh
   gradient norm :     0.0055452 Eh/α   predicted    -0.7891100E-04 (  -2.06%)
   displ. norm   :     0.3015744 α      lambda        0.1215501E-03
   maximum displ.:     0.1550270 α      in ANC's #1, #10, #4, ...

........................................................................
.............................. CYCLE   14 ..............................
........................................................................
   1   -135.6718211 -0.135672E+03  0.530E-02    3.03       0.0  T
   2   -135.6718277 -0.664983E-05  0.316E-02    3.03       1.0  T
   3   -135.6718202  0.757785E-05  0.131E-02    3.03       1.0  T
   4   -135.6718299 -0.972589E-05  0.240E-03    3.03       5.1  T
   5   -135.6718301 -0.211915E-06  0.101E-03    3.03      12.2  T
   6   -135.6718301 -0.136024E-07  0.548E-04    3.03      22.5  T
   7   -135.6718301 -0.221428E-08  0.249E-04    3.03      49.5  T
     SCC iter.                  ...        0 min,  0.135 sec
     gradient                   ...        0 min,  0.118 sec
 * total energy  :  -134.1743840 Eh     change        0.7275134E-04 Eh
   gradient norm :     0.0139630 Eh/α   predicted     0.6629872E-04 (  -8.87%)
   displ. norm   :     0.1442812 α      lambda       -0.2629491E-03
   maximum displ.:     0.0865730 α      in ANC's #10, #16, #9, ...

........................................................................
.............................. CYCLE   15 ..............................
........................................................................
   1   -135.6767133 -0.135677E+03  0.394E-02    3.07       0.0  T
   2   -135.6767207 -0.739573E-05  0.236E-02    3.06       1.0  T
   3   -135.6767177  0.290565E-05  0.102E-02    3.06       1.2  T
   4   -135.6767221 -0.439503E-05  0.232E-03    3.06       5.3  T
   5   -135.6767224 -0.236310E-06  0.896E-04    3.06      13.7  T
   6   -135.6767224 -0.213097E-07  0.438E-04    3.06      28.1  T
     SCC iter.                  ...        0 min,  0.116 sec
     gradient                   ...        0 min,  0.110 sec
 * total energy  :  -134.1745426 Eh     change       -0.1585607E-03 Eh
   gradient norm :     0.0043954 Eh/α   predicted    -0.1342148E-03 ( -15.35%)
   displ. norm   :     0.0983407 α      lambda       -0.1048909E-03
   maximum displ.:     0.0407149 α      in ANC's #1, #9, #2, ...

........................................................................
.............................. CYCLE   16 ..............................
........................................................................
   1   -135.6773002 -0.135677E+03  0.239E-02    3.04       0.0  T
   2   -135.6773023 -0.210124E-05  0.142E-02    3.04       1.0  T
   3   -135.6773018  0.459303E-06  0.461E-03    3.04       2.7  T
   4   -135.6773025 -0.692974E-06  0.108E-03    3.05      11.4  T
   5   -135.6773026 -0.637784E-07  0.466E-04    3.05      26.4  T
   6   -135.6773026 -0.671022E-08  0.236E-04    3.05      52.1  T
     SCC iter.                  ...        0 min,  0.115 sec
     gradient                   ...        0 min,  0.121 sec
 * total energy  :  -134.1746165 Eh     change       -0.7394206E-04 Eh
   gradient norm :     0.0057447 Eh/α   predicted    -0.5296054E-04 ( -28.38%)
   displ. norm   :     0.2414918 α      lambda       -0.1499144E-03
   maximum displ.:     0.1138342 α      in ANC's #1, #9, #4, ...

........................................................................
.............................. CYCLE   17 ..............................
........................................................................
   1   -135.6789610 -0.135679E+03  0.450E-02    3.06       0.0  T
   2   -135.6789627 -0.164235E-05  0.264E-02    3.06       1.0  T
   3   -135.6789611  0.156519E-05  0.596E-03    3.06       2.1  T
   4   -135.6789631 -0.195216E-05  0.129E-03    3.06       9.6  T
   5   -135.6789631 -0.658145E-07  0.589E-04    3.06      20.9  T
   6   -135.6789631 -0.453878E-08  0.275E-04    3.06      44.7  T
     SCC iter.                  ...        0 min,  0.119 sec
     gradient                   ...        0 min,  0.121 sec
 * total energy  :  -134.1747305 Eh     change       -0.1139633E-03 Eh
   gradient norm :     0.0062459 Eh/α   predicted    -0.7933247E-04 ( -30.39%)
   displ. norm   :     0.3622967 α      lambda       -0.1692397E-03
   maximum displ.:     0.1919294 α      in ANC's #1, #4, #2, ...

........................................................................
.............................. CYCLE   18 ..............................
........................................................................
   1   -135.6776166 -0.135678E+03  0.606E-02    3.05       0.0  T
   2   -135.6776191 -0.254096E-05  0.356E-02    3.05       1.0  T
   3   -135.6776120  0.716508E-05  0.114E-02    3.05       1.1  T
   4   -135.6776206 -0.858973E-05  0.161E-03    3.05       7.7  T
   5   -135.6776206 -0.463764E-07  0.898E-04    3.05      13.7  T
   6   -135.6776206 -0.164940E-08  0.428E-04    3.05      28.8  T
     SCC iter.                  ...        0 min,  0.115 sec
     gradient                   ...        0 min,  0.137 sec
 * total energy  :  -134.1748696 Eh     change       -0.1390855E-03 Eh
   gradient norm :     0.0062006 Eh/α   predicted    -0.9572909E-04 ( -31.17%)
   displ. norm   :     0.4899417 α      lambda       -0.2045829E-03
   maximum displ.:     0.2750709 α      in ANC's #1, #4, #2, ...

........................................................................
.............................. CYCLE   19 ..............................
........................................................................
   1   -135.6749999 -0.135675E+03  0.750E-02    3.04       0.0  T
   2   -135.6750042 -0.432149E-05  0.441E-02    3.05       1.0  T
   3   -135.6749917  0.125247E-04  0.151E-02    3.04       1.0  T
   4   -135.6750068 -0.151120E-04  0.214E-03    3.04       5.8  T
   5   -135.6750069 -0.759566E-07  0.121E-03    3.05      10.1  T
   6   -135.6750069 -0.216423E-08  0.577E-04    3.05      21.4  T
   7   -135.6750069 -0.108739E-07  0.172E-04    3.05      71.7  T
     SCC iter.                  ...        0 min,  0.136 sec
     gradient                   ...        0 min,  0.129 sec
 * total energy  :  -134.1750382 Eh     change       -0.1686209E-03 Eh
   gradient norm :     0.0056757 Eh/α   predicted    -0.1268474E-03 ( -24.77%)
   displ. norm   :     0.5245733 α      lambda       -0.2104066E-03
   maximum displ.:     0.3075719 α      in ANC's #1, #2, #4, ...

........................................................................
.............................. CYCLE   20 ..............................
........................................................................
   1   -135.6725361 -0.135673E+03  0.742E-02    3.04       0.0  T
   2   -135.6725405 -0.440114E-05  0.437E-02    3.04       1.0  T
   3   -135.6725265  0.140108E-04  0.160E-02    3.04       1.0  T
   4   -135.6725435 -0.170334E-04  0.221E-03    3.04       5.6  T
   5   -135.6725436 -0.572601E-07  0.130E-03    3.04       9.5  T
   6   -135.6725436 -0.621412E-08  0.584E-04    3.04      21.1  T
   7   -135.6725436 -0.112290E-07  0.179E-04    3.04      68.9  T
     SCC iter.                  ...        0 min,  0.134 sec
     gradient                   ...        0 min,  0.129 sec
 * total energy  :  -134.1752102 Eh     change       -0.1720483E-03 Eh
   gradient norm :     0.0067584 Eh/α   predicted    -0.1341556E-03 ( -22.02%)
   displ. norm   :     0.4932569 α      lambda       -0.2188353E-03
   maximum displ.:     0.3008818 α      in ANC's #1, #2, #4, ...
 * RMSD in coord.:     0.5788317 α      energy gain  -0.2349698E-01 Eh

generating ANC from model Hessian ...
Using Lindh-Hessian (1995)
 Shifting diagonal of input Hessian by    9.8539018227471152E-003
 Lowest  eigenvalues of input Hessian
    0.000000    0.000000    0.000000    0.000000    0.000000    0.000000
    0.010000    0.010149    0.010206    0.010460    0.010494    0.010593
    0.010901    0.011027    0.011147    0.011465    0.011819    0.013115
 Highest eigenvalues
    2.024786    2.027590    2.032575    2.340328    2.355176    2.394215


........................................................................
.............................. CYCLE   21 ..............................
........................................................................
   1   -135.6725171 -0.135673E+03  0.646E-02    3.05       0.0  T
   2   -135.6725208 -0.374125E-05  0.381E-02    3.05       1.0  T
   3   -135.6725111  0.970595E-05  0.136E-02    3.05       1.0  T
   4   -135.6725232 -0.120395E-04  0.212E-03    3.05       5.8  T
   5   -135.6725232 -0.706857E-07  0.123E-03    3.05      10.0  T
   6   -135.6725232 -0.778829E-08  0.512E-04    3.05      24.0  T
   7   -135.6725233 -0.764584E-08  0.175E-04    3.05      70.4  T
     SCC iter.                  ...        0 min,  0.138 sec
     gradient                   ...        0 min,  0.116 sec
 * total energy  :  -134.1753897 Eh     change       -0.1794285E-03 Eh
   gradient norm :     0.0069718 Eh/α   predicted     0.0000000E+00 (-100.00%)
   displ. norm   :     0.0591061 α      lambda       -0.1154814E-03
   maximum displ.:     0.0220207 α      in ANC's #11, #1, #29, ...

........................................................................
.............................. CYCLE   22 ..............................
........................................................................
   1   -135.6765404 -0.135677E+03  0.200E-02    3.07       0.0  T
   2   -135.6765413 -0.893405E-06  0.118E-02    3.06       1.0  T
   3   -135.6765410  0.323141E-06  0.347E-03    3.06       3.5  T
   4   -135.6765415 -0.508051E-06  0.768E-04    3.06      16.0  T
   5   -135.6765415 -0.152329E-07  0.438E-04    3.06      28.1  T
     SCC iter.                  ...        0 min,  0.099 sec
     gradient                   ...        0 min,  0.143 sec
 * total energy  :  -134.1754778 Eh     change       -0.8819028E-04 Eh
   gradient norm :     0.0016922 Eh/α   predicted    -0.5801232E-04 ( -34.22%)
   displ. norm   :     0.2256811 α      lambda       -0.1476766E-03
   maximum displ.:     0.0876877 α      in ANC's #1, #11, #29, ...

........................................................................
.............................. CYCLE   23 ..............................
........................................................................
   1   -135.6822718 -0.135682E+03  0.678E-02    3.07       0.0  T
   2   -135.6822754 -0.354882E-05  0.399E-02    3.06       1.0  T
   3   -135.6822687  0.671918E-05  0.120E-02    3.06       1.0  T
   4   -135.6822772 -0.854364E-05  0.224E-03    3.06       5.5  T
   5   -135.6822773 -0.957715E-07  0.131E-03    3.06       9.4  T
   6   -135.6822773 -0.108063E-07  0.518E-04    3.06      23.8  T
   7   -135.6822773 -0.552777E-08  0.184E-04    3.06      67.0  T
     SCC iter.                  ...        0 min,  0.134 sec
     gradient                   ...        0 min,  0.132 sec
 * total energy  :  -134.1756244 Eh     change       -0.1465376E-03 Eh
   gradient norm :     0.0064474 Eh/α   predicted    -0.7560018E-04 ( -48.41%)
   displ. norm   :     0.2108898 α      lambda       -0.1502571E-03
   maximum displ.:     0.0849134 α      in ANC's #1, #11, #29, ...

........................................................................
.............................. CYCLE   24 ..............................
........................................................................
   1   -135.6816002 -0.135682E+03  0.626E-02    3.04       0.0  T
   2   -135.6816038 -0.361764E-05  0.370E-02    3.04       1.0  T
   3   -135.6815930  0.107747E-04  0.145E-02    3.04       1.0  T
   4   -135.6816063 -0.132922E-04  0.207E-03    3.04       6.0  T
   5   -135.6816064 -0.677301E-07  0.124E-03    3.04      10.0  T
   6   -135.6816064 -0.609347E-08  0.515E-04    3.04      23.9  T
   7   -135.6816064 -0.778110E-08  0.160E-04    3.04      76.9  T
     SCC iter.                  ...        0 min,  0.135 sec
     gradient                   ...        0 min,  0.125 sec
 * total energy  :  -134.1757532 Eh     change       -0.1287781E-03 Eh
   gradient norm :     0.0068229 Eh/α   predicted    -0.7850702E-04 ( -39.04%)
   displ. norm   :     0.4732682 α      lambda       -0.3116635E-03
   maximum displ.:     0.1960782 α      in ANC's #1, #11, #21, ...

........................................................................
.............................. CYCLE   25 ..............................
........................................................................
   1   -135.6760277 -0.135676E+03  0.130E-01    2.95       0.0  T
   2   -135.6760505 -0.227956E-04  0.770E-02    2.96       1.0  T
   3   -135.6759976  0.528738E-04  0.339E-02    2.96       1.0  T
   4   -135.6760652 -0.676015E-04  0.512E-03    2.96       2.4  T
   5   -135.6760659 -0.674624E-06  0.279E-03    2.96       4.4  T
   6   -135.6760659 -0.241439E-07  0.108E-03    2.96      11.4  T
   7   -135.6760660 -0.330755E-07  0.368E-04    2.96      33.5  T
   8   -135.6760660 -0.446539E-08  0.130E-04    2.96      94.5  T
     SCC iter.                  ...        0 min,  0.158 sec
     gradient                   ...        0 min,  0.129 sec
 * total energy  :  -134.1758549 Eh     change       -0.1017880E-03 Eh
   gradient norm :     0.0181155 Eh/α   predicted    -0.1907385E-03 (  87.39%)
   displ. norm   :     0.0809465 α      lambda       -0.2895397E-03
   maximum displ.:     0.0380786 α      in ANC's #29, #30, #24, ...

........................................................................
.............................. CYCLE   26 ..............................
........................................................................
   1   -135.6770183 -0.135677E+03  0.364E-02    3.05       0.0  T
   2   -135.6770263 -0.791788E-05  0.221E-02    3.04       1.0  T
   3   -135.6770255  0.764142E-06  0.104E-02    3.04       1.2  T
   4   -135.6770279 -0.236604E-05  0.204E-03    3.03       6.0  T
   5   -135.6770280 -0.170569E-06  0.103E-03    3.03      12.0  T
   6   -135.6770281 -0.279551E-07  0.499E-04    3.04      24.7  T
   7   -135.6770281 -0.895682E-09  0.140E-04    3.04      87.7  T
     SCC iter.                  ...        0 min,  0.134 sec
     gradient                   ...        0 min,  0.130 sec
 * total energy  :  -134.1760130 Eh     change       -0.1580982E-03 Eh
   gradient norm :     0.0049419 Eh/α   predicted    -0.1457849E-03 (  -7.79%)
   displ. norm   :     0.1872252 α      lambda       -0.1479316E-03
   maximum displ.:     0.0950095 α      in ANC's #1, #11, #8, ...

........................................................................
.............................. CYCLE   27 ..............................
........................................................................
   1   -135.6757689 -0.135676E+03  0.369E-02    3.05       0.0  T
   2   -135.6757708 -0.196309E-05  0.218E-02    3.05       1.0  T
   3   -135.6757670  0.386291E-05  0.934E-03    3.05       1.3  T
   4   -135.6757720 -0.501982E-05  0.149E-03    3.05       8.3  T
   5   -135.6757721 -0.610773E-07  0.824E-04    3.05      14.9  T
   6   -135.6757721 -0.331104E-08  0.303E-04    3.05      40.6  T
     SCC iter.                  ...        0 min,  0.115 sec
     gradient                   ...        0 min,  0.117 sec
 * total energy  :  -134.1761407 Eh     change       -0.1276229E-03 Eh
   gradient norm :     0.0043840 Eh/α   predicted    -0.7656342E-04 ( -40.01%)
   displ. norm   :     0.5443088 α      lambda       -0.3597111E-03
   maximum displ.:     0.2675699 α      in ANC's #1, #8, #11, ...

........................................................................
.............................. CYCLE   28 ..............................
........................................................................
   1   -135.6723165 -0.135672E+03  0.106E-01    3.01       0.0  T
   2   -135.6723279 -0.114223E-04  0.624E-02    3.02       1.0  T
   3   -135.6722906  0.373645E-04  0.270E-02    3.02       1.0  T
   4   -135.6723373 -0.466842E-04  0.370E-03    3.02       3.3  T
   5   -135.6723374 -0.134197E-06  0.224E-03    3.02       5.5  T
   6   -135.6723374 -0.354572E-07  0.918E-04    3.02      13.4  T
   7   -135.6723374 -0.247764E-07  0.305E-04    3.02      40.4  T
     SCC iter.                  ...        0 min,  0.142 sec
     gradient                   ...        0 min,  0.139 sec
 * total energy  :  -134.1763992 Eh     change       -0.2585309E-03 Eh
   gradient norm :     0.0111136 Eh/α   predicted    -0.2331841E-03 (  -9.80%)
   displ. norm   :     0.3500868 α      lambda       -0.2519056E-03
   maximum displ.:     0.1789985 α      in ANC's #1, #8, #13, ...

........................................................................
.............................. CYCLE   29 ..............................
........................................................................
   1   -135.6737478 -0.135674E+03  0.557E-02    3.04       0.0  T
   2   -135.6737515 -0.365952E-05  0.327E-02    3.04       1.0  T
   3   -135.6737452  0.630908E-05  0.117E-02    3.04       1.0  T
   4   -135.6737533 -0.808934E-05  0.205E-03    3.04       6.0  T
   5   -135.6737534 -0.921006E-07  0.117E-03    3.04      10.5  T
   6   -135.6737534 -0.115008E-07  0.497E-04    3.04      24.8  T
   7   -135.6737534 -0.377025E-08  0.198E-04    3.04      62.3  T
     SCC iter.                  ...        0 min,  0.143 sec
     gradient                   ...        0 min,  0.116 sec
 * total energy  :  -134.1765916 Eh     change       -0.1924235E-03 Eh
   gradient norm :     0.0089806 Eh/α   predicted    -0.1414151E-03 ( -26.51%)
   displ. norm   :     0.3598735 α      lambda       -0.2532116E-03
   maximum displ.:     0.1895006 α      in ANC's #1, #8, #6, ...

........................................................................
.............................. CYCLE   30 ..............................
........................................................................
   1   -135.6767359 -0.135677E+03  0.547E-02    3.08       0.0  T
   2   -135.6767409 -0.498954E-05  0.321E-02    3.07       1.0  T
   3   -135.6767356  0.528922E-05  0.119E-02    3.07       1.0  T
   4   -135.6767427 -0.705215E-05  0.221E-03    3.07       5.6  T
   5   -135.6767428 -0.143787E-06  0.117E-03    3.07      10.5  T
   6   -135.6767428 -0.145539E-07  0.565E-04    3.07      21.8  T
   7   -135.6767429 -0.291280E-08  0.219E-04    3.07      56.3  T
     SCC iter.                  ...        0 min,  0.134 sec
     gradient                   ...        0 min,  0.128 sec
 * total energy  :  -134.1767826 Eh     change       -0.1909950E-03 Eh
   gradient norm :     0.0041824 Eh/α   predicted    -0.1430034E-03 ( -25.13%)
   displ. norm   :     0.6193182 α      lambda       -0.2879059E-03
   maximum displ.:     0.3282758 α      in ANC's #1, #8, #6, ...

........................................................................
.............................. CYCLE   31 ..............................
........................................................................
   1   -135.6739166 -0.135674E+03  0.102E-01    2.99       0.0  T
   2   -135.6739336 -0.170447E-04  0.603E-02    3.00       1.0  T
   3   -135.6739002  0.334257E-04  0.284E-02    3.00       1.0  T
   4   -135.6739440 -0.438541E-04  0.423E-03    3.00       2.9  T
   5   -135.6739445 -0.486513E-06  0.224E-03    3.00       5.5  T
   6   -135.6739445 -0.299888E-07  0.101E-03    3.00      12.2  T
   7   -135.6739446 -0.176816E-07  0.417E-04    3.00      29.5  T
   8   -135.6739446 -0.624061E-08  0.115E-04    3.00     107.3  T
     SCC iter.                  ...        0 min,  0.153 sec
     gradient                   ...        0 min,  0.119 sec
 * total energy  :  -134.1768915 Eh     change       -0.1089278E-03 Eh
   gradient norm :     0.0158944 Eh/α   predicted    -0.1991685E-03 (  82.84%)
   displ. norm   :     0.1947247 α      lambda       -0.3910329E-03
   maximum displ.:     0.0943774 α      in ANC's #8, #1, #6, ...

........................................................................
.............................. CYCLE   32 ..............................
........................................................................
   1   -135.6803736 -0.135680E+03  0.451E-02    3.10       0.0  T
   2   -135.6803908 -0.171701E-04  0.271E-02    3.07       1.0  T
   3   -135.6803920 -0.121367E-05  0.138E-02    3.08       1.0  T
   4   -135.6803945 -0.253378E-05  0.280E-03    3.07       4.4  T
   5   -135.6803949 -0.391493E-06  0.121E-03    3.07      10.2  T
   6   -135.6803950 -0.487155E-07  0.595E-04    3.07      20.7  T
   7   -135.6803950 -0.225467E-08  0.258E-04    3.07      47.7  T
     SCC iter.                  ...        0 min,  0.140 sec
     gradient                   ...        0 min,  0.124 sec
 * total energy  :  -134.1770902 Eh     change       -0.1986183E-03 Eh
   gradient norm :     0.0069635 Eh/α   predicted    -0.2029310E-03 (   2.17%)
   displ. norm   :     0.3162677 α      lambda       -0.1483643E-03
   maximum displ.:     0.1804568 α      in ANC's #1, #8, #6, ...

........................................................................
.............................. CYCLE   33 ..............................
........................................................................
   1   -135.6795626 -0.135680E+03  0.477E-02    3.07       0.0  T
   2   -135.6795696 -0.701887E-05  0.276E-02    3.07       1.0  T
   3   -135.6795643  0.527051E-05  0.129E-02    3.06       1.0  T
   4   -135.6795715 -0.720171E-05  0.275E-03    3.06       4.5  T
   5   -135.6795719 -0.369743E-06  0.973E-04    3.06      12.7  T
   6   -135.6795719 -0.122123E-07  0.569E-04    3.06      21.6  T
     SCC iter.                  ...        0 min,  0.120 sec
     gradient                   ...        0 min,  0.108 sec
 * total energy  :  -134.1772047 Eh     change       -0.1145376E-03 Eh
   gradient norm :     0.0054087 Eh/α   predicted    -0.8160526E-04 ( -28.75%)
   displ. norm   :     0.4647388 α      lambda       -0.2069794E-03
   maximum displ.:     0.2690736 α      in ANC's #1, #8, #6, ...

........................................................................
.............................. CYCLE   34 ..............................
........................................................................
   1   -135.6770360 -0.135677E+03  0.722E-02    3.03       0.0  T
   2   -135.6770407 -0.470246E-05  0.424E-02    3.03       1.0  T
   3   -135.6770279  0.128607E-04  0.159E-02    3.03       1.0  T
   4   -135.6770437 -0.157984E-04  0.224E-03    3.03       5.5  T
   5   -135.6770437 -0.715207E-07  0.131E-03    3.03       9.4  T
   6   -135.6770438 -0.193866E-07  0.663E-04    3.03      18.6  T
   7   -135.6770438 -0.860419E-08  0.213E-04    3.03      57.8  T
     SCC iter.                  ...        0 min,  0.140 sec
     gradient                   ...        0 min,  0.133 sec
 * total energy  :  -134.1773461 Eh     change       -0.1413955E-03 Eh
   gradient norm :     0.0071179 Eh/α   predicted    -0.1258423E-03 ( -11.00%)
   displ. norm   :     0.2713464 α      lambda       -0.1631222E-03
   maximum displ.:     0.1533919 α      in ANC's #1, #8, #6, ...

........................................................................
.............................. CYCLE   35 ..............................
........................................................................
   1   -135.6777269 -0.135678E+03  0.481E-02    3.07       0.0  T
   2   -135.6777300 -0.306225E-05  0.285E-02    3.06       1.0  T
   3   -135.6777274  0.262611E-05  0.829E-03    3.06       1.5  T
   4   -135.6777308 -0.344714E-05  0.177E-03    3.05       7.0  T
   5   -135.6777309 -0.108423E-06  0.831E-04    3.05      14.8  T
   6   -135.6777309 -0.900266E-08  0.335E-04    3.06      36.8  T
     SCC iter.                  ...        0 min,  0.116 sec
     gradient                   ...        0 min,  0.145 sec
 * total energy  :  -134.1774336 Eh     change       -0.8748116E-04 Eh
   gradient norm :     0.0053797 Eh/α   predicted    -0.8757416E-04 (   0.11%)
   displ. norm   :     0.3148472 α      lambda       -0.8177624E-04
   maximum displ.:     0.1861477 α      in ANC's #1, #8, #6, ...

........................................................................
.............................. CYCLE   36 ..............................
........................................................................
   1   -135.6760151 -0.135676E+03  0.494E-02    3.04       0.0  T
   2   -135.6760178 -0.269641E-05  0.290E-02    3.04       1.0  T
   3   -135.6760137  0.414514E-05  0.915E-03    3.04       1.3  T
   4   -135.6760189 -0.522385E-05  0.160E-03    3.04       7.7  T
   5   -135.6760190 -0.598369E-07  0.884E-04    3.04      13.9  T
   6   -135.6760190 -0.609180E-08  0.473E-04    3.04      26.0  T
     SCC iter.                  ...        0 min,  0.113 sec
     gradient                   ...        0 min,  0.114 sec
 * total energy  :  -134.1774884 Eh     change       -0.5477548E-04 Eh
   gradient norm :     0.0048655 Eh/α   predicted    -0.4494441E-04 ( -17.95%)
   displ. norm   :     0.1991029 α      lambda       -0.7279424E-04
   maximum displ.:     0.1235016 α      in ANC's #1, #6, #8, ...

........................................................................
.............................. CYCLE   37 ..............................
........................................................................
   1   -135.6776691 -0.135678E+03  0.330E-02    3.05       0.0  T
   2   -135.6776702 -0.107631E-05  0.195E-02    3.05       1.0  T
   3   -135.6776686  0.159742E-05  0.559E-03    3.05       2.2  T
   4   -135.6776706 -0.197169E-05  0.114E-03    3.05      10.8  T
   5   -135.6776706 -0.493704E-07  0.561E-04    3.05      21.9  T
   6   -135.6776706 -0.313855E-08  0.281E-04    3.05      43.8  T
     SCC iter.                  ...        0 min,  0.125 sec
     gradient                   ...        0 min,  0.122 sec
 * total energy  :  -134.1775418 Eh     change       -0.5349286E-04 Eh
   gradient norm :     0.0026263 Eh/α   predicted    -0.3784254E-04 ( -29.26%)
   displ. norm   :     0.2861002 α      lambda       -0.6519057E-04
   maximum displ.:     0.1832181 α      in ANC's #1, #6, #8, ...

........................................................................
.............................. CYCLE   38 ..............................
........................................................................
   1   -135.6784997 -0.135678E+03  0.454E-02    3.06       0.0  T
   2   -135.6785019 -0.215231E-05  0.265E-02    3.05       1.0  T
   3   -135.6785002  0.165178E-05  0.606E-03    3.05       2.0  T
   4   -135.6785023 -0.211890E-05  0.151E-03    3.05       8.2  T
   5   -135.6785024 -0.966495E-07  0.667E-04    3.05      18.5  T
   6   -135.6785024 -0.181583E-08  0.309E-04    3.05      39.8  T
     SCC iter.                  ...        0 min,  0.115 sec
     gradient                   ...        0 min,  0.133 sec
 * total energy  :  -134.1775895 Eh     change       -0.4770422E-04 Eh
   gradient norm :     0.0024418 Eh/α   predicted    -0.3526467E-04 ( -26.08%)
   displ. norm   :     0.2350630 α      lambda       -0.5126966E-04
   maximum displ.:     0.1560125 α      in ANC's #1, #6, #8, ...

........................................................................
.............................. CYCLE   39 ..............................
........................................................................
   1   -135.6797252 -0.135680E+03  0.397E-02    3.06       0.0  T
   2   -135.6797260 -0.866808E-06  0.233E-02    3.06       1.0  T
   3   -135.6797243  0.176790E-05  0.556E-03    3.06       2.2  T
   4   -135.6797264 -0.218665E-05  0.104E-03    3.06      11.8  T
   5   -135.6797265 -0.214756E-07  0.592E-04    3.06      20.8  T
   6   -135.6797265 -0.370412E-08  0.251E-04    3.06      49.1  T
     SCC iter.                  ...        0 min,  0.115 sec
     gradient                   ...        0 min,  0.139 sec
 * total energy  :  -134.1776298 Eh     change       -0.4020667E-04 Eh
   gradient norm :     0.0025990 Eh/α   predicted    -0.2705255E-04 ( -32.72%)
   displ. norm   :     0.3046709 α      lambda       -0.5711526E-04
   maximum displ.:     0.2057636 α      in ANC's #1, #6, #8, ...

........................................................................
.............................. CYCLE   40 ..............................
........................................................................
   1   -135.6793044 -0.135679E+03  0.509E-02    3.06       0.0  T
   2   -135.6793057 -0.124959E-05  0.299E-02    3.06       1.0  T
   3   -135.6793034  0.230708E-05  0.654E-03    3.06       1.9  T
   4   -135.6793063 -0.294108E-05  0.126E-03    3.06       9.8  T
   5   -135.6793063 -0.219787E-07  0.735E-04    3.06      16.8  T
   6   -135.6793063 -0.368973E-08  0.295E-04    3.06      41.7  T
     SCC iter.                  ...        0 min,  0.114 sec
     gradient                   ...        0 min,  0.130 sec
 * total energy  :  -134.1776760 Eh     change       -0.4629391E-04 Eh
   gradient norm :     0.0026126 Eh/α   predicted    -0.3120971E-04 ( -32.58%)
   displ. norm   :     0.2811318 α      lambda       -0.6246167E-04
   maximum displ.:     0.1897633 α      in ANC's #1, #6, #9, ...

........................................................................
.............................. CYCLE   41 ..............................
........................................................................
   1   -135.6799356 -0.135680E+03  0.489E-02    3.07       0.0  T
   2   -135.6799372 -0.160206E-05  0.288E-02    3.07       1.0  T
   3   -135.6799352  0.209192E-05  0.649E-03    3.07       1.9  T
   4   -135.6799378 -0.267838E-05  0.136E-03    3.06       9.0  T
   5   -135.6799379 -0.580478E-07  0.721E-04    3.07      17.1  T
   6   -135.6799379 -0.393695E-08  0.298E-04    3.07      41.3  T
     SCC iter.                  ...        0 min,  0.115 sec
     gradient                   ...        0 min,  0.138 sec
 * total energy  :  -134.1777233 Eh     change       -0.4727204E-04 Eh
   gradient norm :     0.0024337 Eh/α   predicted    -0.3370110E-04 ( -28.71%)
   displ. norm   :     0.3021108 α      lambda       -0.5443274E-04
   maximum displ.:     0.2115574 α      in ANC's #1, #6, #8, ...

........................................................................
.............................. CYCLE   42 ..............................
........................................................................
   1   -135.6787894 -0.135679E+03  0.498E-02    3.05       0.0  T
   2   -135.6787908 -0.136215E-05  0.292E-02    3.06       1.0  T
   3   -135.6787889  0.182190E-05  0.614E-03    3.05       2.0  T
   4   -135.6787913 -0.238708E-05  0.128E-03    3.05       9.6  T
   5   -135.6787914 -0.290538E-07  0.728E-04    3.06      16.9  T
   6   -135.6787914 -0.483135E-08  0.309E-04    3.06      39.8  T
     SCC iter.                  ...        0 min,  0.113 sec
     gradient                   ...        0 min,  0.127 sec
 * total energy  :  -134.1777651 Eh     change       -0.4175919E-04 Eh
   gradient norm :     0.0029796 Eh/α   predicted    -0.2970515E-04 ( -28.87%)
   displ. norm   :     0.2459608 α      lambda       -0.5589607E-04
   maximum displ.:     0.1663258 α      in ANC's #1, #3, #5, ...
 * RMSD in coord.:     0.6868199 α      energy gain  -0.2554858E-02 Eh

generating ANC from model Hessian ...
Using Lindh-Hessian (1995)
 Shifting diagonal of input Hessian by    9.8550670828381117E-003
 Lowest  eigenvalues of input Hessian
    0.000000    0.000000    0.000000    0.000000    0.000000    0.000000
    0.010000    0.010135    0.010241    0.010465    0.010490    0.010594
    0.010913    0.011023    0.011138    0.011377    0.011766    0.013225
 Highest eigenvalues
    2.027106    2.028469    2.031848    2.356341    2.358866    2.404268


........................................................................
.............................. CYCLE   43 ..............................
........................................................................
   1   -135.6792879 -0.135679E+03  0.397E-02    3.07       0.0  T
   2   -135.6792890 -0.105471E-05  0.233E-02    3.06       1.0  T
   3   -135.6792881  0.853019E-06  0.438E-03    3.06       2.8  T
   4   -135.6792893 -0.115288E-05  0.110E-03    3.06      11.2  T
   5   -135.6792893 -0.411848E-07  0.556E-04    3.06      22.1  T
   6   -135.6792893 -0.277825E-08  0.259E-04    3.06      47.5  T
     SCC iter.                  ...        0 min,  0.115 sec
     gradient                   ...        0 min,  0.134 sec
 * total energy  :  -134.1778104 Eh     change       -0.4534746E-04 Eh
   gradient norm :     0.0025191 Eh/α   predicted     0.0000000E+00 (-100.00%)
   displ. norm   :     0.0356393 α      lambda       -0.2739617E-04
   maximum displ.:     0.0177853 α      in ANC's #3, #1, #30, ...

........................................................................
.............................. CYCLE   44 ..............................
........................................................................
   1   -135.6797723 -0.135680E+03  0.746E-03    3.07       0.0  T
   2   -135.6797725 -0.112922E-06  0.447E-03    3.06       2.8  T
   3   -135.6797723  0.150601E-06  0.212E-03    3.07       5.8  T
   4   -135.6797725 -0.201846E-06  0.330E-04    3.06      37.3  T
   5   -135.6797725 -0.487435E-08  0.137E-04    3.06      90.1  T
     SCC iter.                  ...        0 min,  0.096 sec
     gradient                   ...        0 min,  0.124 sec
 * total energy  :  -134.1778339 Eh     change       -0.2344572E-04 Eh
   gradient norm :     0.0012571 Eh/α   predicted    -0.1372264E-04 ( -41.47%)
   displ. norm   :     0.1838512 α      lambda       -0.6374034E-04
   maximum displ.:     0.0945787 α      in ANC's #3, #1, #30, ...

........................................................................
.............................. CYCLE   45 ..............................
........................................................................
   1   -135.6801756 -0.135680E+03  0.342E-02    3.07       0.0  T
   2   -135.6801772 -0.169279E-05  0.203E-02    3.07       1.0  T
   3   -135.6801742  0.307138E-05  0.894E-03    3.07       1.4  T
   4   -135.6801781 -0.393599E-05  0.129E-03    3.07       9.5  T
   5   -135.6801782 -0.566736E-07  0.628E-04    3.07      19.6  T
   6   -135.6801782 -0.274989E-08  0.338E-04    3.07      36.5  T
     SCC iter.                  ...        0 min,  0.115 sec
     gradient                   ...        0 min,  0.150 sec
 * total energy  :  -134.1778793 Eh     change       -0.4542018E-04 Eh
   gradient norm :     0.0031719 Eh/α   predicted    -0.3236459E-04 ( -28.74%)
   displ. norm   :     0.0375838 α      lambda       -0.1630891E-04
   maximum displ.:     0.0224303 α      in ANC's #3, #1, #6, ...

........................................................................
.............................. CYCLE   46 ..............................
........................................................................
   1   -135.6799311 -0.135680E+03  0.581E-03    3.07       0.0  T
   2   -135.6799312 -0.619176E-07  0.344E-03    3.07       3.6  T
   3   -135.6799312  0.257114E-07  0.874E-04    3.07      14.1  T
   4   -135.6799312 -0.368258E-07  0.257E-04    3.07      47.9  T
     SCC iter.                  ...        0 min,  0.078 sec
     gradient                   ...        0 min,  0.029 sec
 * total energy  :  -134.1778943 Eh     change       -0.1501074E-04 Eh
   gradient norm :     0.0023239 Eh/α   predicted    -0.8169595E-05 ( -45.58%)
   displ. norm   :     0.1508165 α      lambda       -0.5708954E-04
   maximum displ.:     0.0862671 α      in ANC's #3, #1, #6, ...

........................................................................
.............................. CYCLE   47 ..............................
........................................................................
   1   -135.6793296 -0.135679E+03  0.221E-02    3.07       0.0  T
   2   -135.6793304 -0.795815E-06  0.131E-02    3.07       1.0  T
   3   -135.6793300  0.363532E-06  0.324E-03    3.07       3.8  T
   4   -135.6793305 -0.516705E-06  0.934E-04    3.07      13.2  T
   5   -135.6793306 -0.366588E-07  0.413E-04    3.07      29.8  T
     SCC iter.                  ...        0 min,  0.099 sec
     gradient                   ...        0 min,  0.107 sec
 * total energy  :  -134.1779350 Eh     change       -0.4065930E-04 Eh
   gradient norm :     0.0012469 Eh/α   predicted    -0.2919440E-04 ( -28.20%)
   displ. norm   :     0.2211785 α      lambda       -0.2850906E-04
   maximum displ.:     0.1281655 α      in ANC's #3, #1, #6, ...

........................................................................
.............................. CYCLE   48 ..............................
........................................................................
   1   -135.6789883 -0.135679E+03  0.302E-02    3.07       0.0  T
   2   -135.6789892 -0.857778E-06  0.179E-02    3.07       1.0  T
   3   -135.6789884  0.766301E-06  0.406E-03    3.07       3.0  T
   4   -135.6789895 -0.103817E-05  0.105E-03    3.07      11.7  T
   5   -135.6789895 -0.358830E-07  0.531E-04    3.07      23.2  T
   6   -135.6789895 -0.197358E-08  0.230E-04    3.07      53.6  T
     SCC iter.                  ...        0 min,  0.120 sec
     gradient                   ...        0 min,  0.124 sec
 * total energy  :  -134.1779638 Eh     change       -0.2879927E-04 Eh
   gradient norm :     0.0030733 Eh/α   predicted    -0.1458013E-04 ( -49.37%)
   displ. norm   :     0.0942788 α      lambda       -0.1937025E-04
   maximum displ.:     0.0552161 α      in ANC's #3, #1, #6, ...

........................................................................
.............................. CYCLE   49 ..............................
........................................................................
   1   -135.6793787 -0.135679E+03  0.115E-02    3.07       0.0  T
   2   -135.6793788 -0.969948E-07  0.680E-03    3.07       1.8  T
   3   -135.6793786  0.176296E-06  0.190E-03    3.07       6.5  T
   4   -135.6793789 -0.221226E-06  0.338E-04    3.07      36.5  T
   5   -135.6793789 -0.241539E-08  0.187E-04    3.07      66.0  T
     SCC iter.                  ...        0 min,  0.097 sec
     gradient                   ...        0 min,  0.129 sec
 * total energy  :  -134.1779816 Eh     change       -0.1782611E-04 Eh
   gradient norm :     0.0023932 Eh/α   predicted    -0.9786002E-05 ( -45.10%)
   displ. norm   :     0.1756469 α      lambda       -0.4104606E-04
   maximum displ.:     0.1031237 α      in ANC's #1, #3, #6, ...

........................................................................
.............................. CYCLE   50 ..............................
........................................................................
   1   -135.6802273 -0.135680E+03  0.208E-02    3.08       0.0  T
   2   -135.6802277 -0.364806E-06  0.123E-02    3.08       1.0  T
   3   -135.6802268  0.882621E-06  0.419E-03    3.08       2.9  T
   4   -135.6802279 -0.107332E-05  0.608E-04    3.08      20.2  T
   5   -135.6802279 -0.904561E-08  0.329E-04    3.08      37.5  T
   6   -135.6802279 -0.983988E-09  0.162E-04    3.08      76.0  T
     SCC iter.                  ...        0 min,  0.115 sec
     gradient                   ...        0 min,  0.122 sec
 * total energy  :  -134.1780155 Eh     change       -0.3387920E-04 Eh
   gradient norm :     0.0008136 Eh/α   predicted    -0.2115804E-04 ( -37.55%)
   displ. norm   :     0.3472042 α      lambda       -0.3967967E-04
   maximum displ.:     0.2081429 α      in ANC's #1, #3, #6, ...

........................................................................
.............................. CYCLE   51 ..............................
........................................................................
   1   -135.6808005 -0.135681E+03  0.398E-02    3.09       0.0  T
   2   -135.6808017 -0.120624E-05  0.235E-02    3.09       1.0  T
   3   -135.6807985  0.325436E-05  0.789E-03    3.09       1.6  T
   4   -135.6808024 -0.392220E-05  0.110E-03    3.08      11.2  T
   5   -135.6808024 -0.259770E-07  0.598E-04    3.08      20.6  T
   6   -135.6808024 -0.326091E-08  0.306E-04    3.09      40.2  T
     SCC iter.                  ...        0 min,  0.117 sec
     gradient                   ...        0 min,  0.125 sec
 * total energy  :  -134.1780579 Eh     change       -0.4238614E-04 Eh
   gradient norm :     0.0023433 Eh/α   predicted    -0.2091801E-04 ( -50.65%)
   displ. norm   :     0.1535976 α      lambda       -0.2220254E-04
   maximum displ.:     0.0952881 α      in ANC's #1, #3, #5, ...

........................................................................
.............................. CYCLE   52 ..............................
........................................................................
   1   -135.6808083 -0.135681E+03  0.173E-02    3.09       0.0  T
   2   -135.6808085 -0.198975E-06  0.102E-02    3.09       1.2  T
   3   -135.6808077  0.728140E-06  0.357E-03    3.09       3.5  T
   4   -135.6808086 -0.866452E-06  0.440E-04    3.09      27.9  T
   5   -135.6808086 -0.247255E-08  0.253E-04    3.09      48.7  T
     SCC iter.                  ...        0 min,  0.100 sec
     gradient                   ...        0 min,  0.127 sec
 * total energy  :  -134.1780787 Eh     change       -0.2080777E-04 Eh
   gradient norm :     0.0022998 Eh/α   predicted    -0.1136448E-04 ( -45.38%)
   displ. norm   :     0.2076863 α      lambda       -0.3835015E-04
   maximum displ.:     0.1298307 α      in ANC's #1, #3, #5, ...

........................................................................
.............................. CYCLE   53 ..............................
........................................................................
   1   -135.6806559 -0.135681E+03  0.248E-02    3.09       0.0  T
   2   -135.6806563 -0.465196E-06  0.147E-02    3.09       1.0  T
   3   -135.6806548  0.152012E-05  0.509E-03    3.09       2.4  T
   4   -135.6806566 -0.181096E-05  0.647E-04    3.09      19.0  T
   5   -135.6806566 -0.726575E-08  0.359E-04    3.09      34.3  T
   6   -135.6806566 -0.808882E-09  0.184E-04    3.09      66.9  T
     SCC iter.                  ...        0 min,  0.121 sec
     gradient                   ...        0 min,  0.130 sec
 * total energy  :  -134.1781136 Eh     change       -0.3494571E-04 Eh
   gradient norm :     0.0015866 Eh/α   predicted    -0.2000410E-04 ( -42.76%)
   displ. norm   :     0.4815821 α      lambda       -0.5699306E-04
   maximum displ.:     0.3032393 α      in ANC's #1, #3, #5, ...

........................................................................
.............................. CYCLE   54 ..............................
........................................................................
   1   -135.6793737 -0.135679E+03  0.599E-02    3.09       0.0  T
   2   -135.6793766 -0.287383E-05  0.355E-02    3.09       1.0  T
   3   -135.6793684  0.817803E-05  0.119E-02    3.09       1.0  T
   4   -135.6793782 -0.972489E-05  0.162E-03    3.09       7.6  T
   5   -135.6793782 -0.555114E-07  0.844E-04    3.09      14.6  T
   6   -135.6793782 -0.339725E-08  0.455E-04    3.09      27.1  T
     SCC iter.                  ...        0 min,  0.115 sec
     gradient                   ...        0 min,  0.121 sec
 * total energy  :  -134.1781786 Eh     change       -0.6495907E-04 Eh
   gradient norm :     0.0014999 Eh/α   predicted    -0.3144192E-04 ( -51.60%)
   displ. norm   :     0.3477368 α      lambda       -0.3140593E-04
   maximum displ.:     0.2244137 α      in ANC's #1, #3, #2, ...

........................................................................
.............................. CYCLE   55 ..............................
........................................................................
   1   -135.6793310 -0.135679E+03  0.434E-02    3.09       0.0  T
   2   -135.6793322 -0.121813E-05  0.257E-02    3.09       1.0  T
   3   -135.6793278  0.448559E-05  0.872E-03    3.09       1.4  T
   4   -135.6793330 -0.528982E-05  0.105E-03    3.09      11.8  T
   5   -135.6793331 -0.142464E-07  0.581E-04    3.09      21.2  T
   6   -135.6793331 -0.247564E-08  0.307E-04    3.09      40.1  T
     SCC iter.                  ...        0 min,  0.114 sec
     gradient                   ...        0 min,  0.146 sec
 * total energy  :  -134.1782180 Eh     change       -0.3947006E-04 Eh
   gradient norm :     0.0018431 Eh/α   predicted    -0.1654717E-04 ( -58.08%)
   displ. norm   :     0.2988557 α      lambda       -0.3102779E-04
   maximum displ.:     0.1964058 α      in ANC's #1, #3, #2, ...

........................................................................
.............................. CYCLE   56 ..............................
........................................................................
   1   -135.6799598 -0.135680E+03  0.381E-02    3.09       0.0  T
   2   -135.6799607 -0.878002E-06  0.226E-02    3.09       1.0  T
   3   -135.6799573  0.344427E-05  0.765E-03    3.09       1.6  T
   4   -135.6799613 -0.403285E-05  0.882E-04    3.09      14.0  T
   5   -135.6799613 -0.983806E-08  0.490E-04    3.09      25.1  T
   6   -135.6799613 -0.176331E-08  0.267E-04    3.09      46.2  T
     SCC iter.                  ...        0 min,  0.115 sec
     gradient                   ...        0 min,  0.079 sec
 * total energy  :  -134.1782597 Eh     change       -0.4167139E-04 Eh
   gradient norm :     0.0017027 Eh/α   predicted    -0.1613084E-04 ( -61.29%)
   displ. norm   :     0.4115201 α      lambda       -0.4625294E-04
   maximum displ.:     0.2707241 α      in ANC's #1, #3, #2, ...

........................................................................
.............................. CYCLE   57 ..............................
........................................................................
   1   -135.6803215 -0.135680E+03  0.528E-02    3.09       0.0  T
   2   -135.6803227 -0.124626E-05  0.313E-02    3.09       1.0  T
   3   -135.6803171  0.561610E-05  0.978E-03    3.09       1.3  T
   4   -135.6803236 -0.654271E-05  0.116E-03    3.09      10.6  T
   5   -135.6803237 -0.100840E-07  0.643E-04    3.09      19.1  T
   6   -135.6803237 -0.659549E-08  0.319E-04    3.09      38.5  T
     SCC iter.                  ...        0 min,  0.114 sec
     gradient                   ...        0 min,  0.120 sec
 * total energy  :  -134.1783219 Eh     change       -0.6217566E-04 Eh
   gradient norm :     0.0013146 Eh/α   predicted    -0.2486976E-04 ( -60.00%)
   displ. norm   :     0.5790857 α      lambda       -0.6591906E-04
   maximum displ.:     0.3819855 α      in ANC's #1, #3, #2, ...

........................................................................
.............................. CYCLE   58 ..............................
........................................................................
   1   -135.6799426 -0.135680E+03  0.736E-02    3.09       0.0  T
   2   -135.6799452 -0.265840E-05  0.435E-02    3.09       1.0  T
   3   -135.6799358  0.947206E-05  0.128E-02    3.09       1.0  T
   4   -135.6799469 -0.110982E-04  0.171E-03    3.09       7.2  T
   5   -135.6799469 -0.315887E-07  0.920E-04    3.09      13.4  T
   6   -135.6799469 -0.105505E-07  0.483E-04    3.09      25.5  T
     SCC iter.                  ...        0 min,  0.116 sec
     gradient                   ...        0 min,  0.152 sec
 * total energy  :  -134.1784072 Eh     change       -0.8534859E-04 Eh
   gradient norm :     0.0022546 Eh/α   predicted    -0.3787473E-04 ( -55.62%)
   displ. norm   :     0.4422806 α      lambda       -0.7587331E-04
   maximum displ.:     0.2940210 α      in ANC's #1, #3, #2, ...

........................................................................
.............................. CYCLE   59 ..............................
........................................................................
   1   -135.6804299 -0.135680E+03  0.546E-02    3.10       0.0  T
   2   -135.6804314 -0.146109E-05  0.322E-02    3.10       1.0  T
   3   -135.6804267  0.470687E-05  0.909E-03    3.10       1.4  T
   4   -135.6804322 -0.555312E-05  0.131E-03    3.10       9.4  T
   5   -135.6804322 -0.196527E-07  0.704E-04    3.10      17.5  T
   6   -135.6804323 -0.791991E-08  0.359E-04    3.10      34.3  T
     SCC iter.                  ...        0 min,  0.120 sec
     gradient                   ...        0 min,  0.132 sec
 * total energy  :  -134.1784745 Eh     change       -0.6722556E-04 Eh
   gradient norm :     0.0017202 Eh/α   predicted    -0.4536041E-04 ( -32.53%)
   displ. norm   :     0.7962983 α      lambda       -0.8634106E-04
   maximum displ.:     0.5313535 α      in ANC's #1, #3, #2, ...

........................................................................
.............................. CYCLE   60 ..............................
........................................................................
   1   -135.6797026 -0.135680E+03  0.959E-02    3.10       0.0  T
   2   -135.6797072 -0.460532E-05  0.565E-02    3.10       1.0  T
   3   -135.6796939  0.133384E-04  0.154E-02    3.10       1.0  T
   4   -135.6797098 -0.158947E-04  0.233E-03    3.10       5.3  T
   5   -135.6797098 -0.564030E-07  0.125E-03    3.10       9.8  T
   6   -135.6797098 -0.255694E-07  0.645E-04    3.10      19.1  T
   7   -135.6797098 -0.518710E-08  0.195E-04    3.10      63.0  T
     SCC iter.                  ...        0 min,  0.144 sec
     gradient                   ...        0 min,  0.129 sec
 * total energy  :  -134.1785786 Eh     change       -0.1041550E-03 Eh
   gradient norm :     0.0023165 Eh/α   predicted    -0.5534097E-04 ( -46.87%)
   displ. norm   :     0.4204383 α      lambda       -0.7284382E-04
   maximum displ.:     0.2836220 α      in ANC's #1, #3, #2, ...

........................................................................
.............................. CYCLE   61 ..............................
........................................................................
   1   -135.6813632 -0.135681E+03  0.484E-02    3.11       0.0  T
   2   -135.6813646 -0.142893E-05  0.286E-02    3.11       1.0  T
   3   -135.6813603  0.425927E-05  0.868E-03    3.11       1.4  T
   4   -135.6813654 -0.508156E-05  0.126E-03    3.11       9.8  T
   5   -135.6813654 -0.273803E-07  0.696E-04    3.11      17.7  T
   6   -135.6813654 -0.555605E-08  0.335E-04    3.11      36.8  T
     SCC iter.                  ...        0 min,  0.119 sec
     gradient                   ...        0 min,  0.129 sec
 * total energy  :  -134.1786374 Eh     change       -0.5879291E-04 Eh
   gradient norm :     0.0014001 Eh/α   predicted    -0.4286176E-04 ( -27.10%)
   displ. norm   :     0.8835591 α      lambda       -0.7809726E-04
   maximum displ.:     0.5935817 α      in ANC's #1, #3, #2, ...

........................................................................
.............................. CYCLE   62 ..............................
........................................................................
   1   -135.6784472 -0.135678E+03  0.101E-01    3.11       0.0  T
   2   -135.6784532 -0.599023E-05  0.593E-02    3.11       1.0  T
   3   -135.6784396  0.135679E-04  0.154E-02    3.11       1.0  T
   4   -135.6784561 -0.164562E-04  0.257E-03    3.11       4.8  T
   5   -135.6784562 -0.990175E-07  0.135E-03    3.11       9.1  T
   6   -135.6784562 -0.189775E-07  0.721E-04    3.11      17.1  T
   7   -135.6784562 -0.837500E-08  0.222E-04    3.11      55.5  T
     SCC iter.                  ...        0 min,  0.134 sec
     gradient                   ...        0 min,  0.131 sec
 * total energy  :  -134.1787100 Eh     change       -0.7256716E-04 Eh
   gradient norm :     0.0038887 Eh/α   predicted    -0.5259898E-04 ( -27.52%)
   displ. norm   :     0.2960001 α      lambda       -0.7069672E-04
   maximum displ.:     0.1991556 α      in ANC's #1, #2, #3, ...

........................................................................
.............................. CYCLE   63 ..............................
........................................................................
   1   -135.6807530 -0.135681E+03  0.316E-02    3.11       0.0  T
   2   -135.6807537 -0.754743E-06  0.186E-02    3.11       1.0  T
   3   -135.6807515  0.222171E-05  0.624E-03    3.11       2.0  T
   4   -135.6807542 -0.269130E-05  0.826E-04    3.11      14.9  T
   5   -135.6807542 -0.863167E-08  0.487E-04    3.11      25.3  T
   6   -135.6807542 -0.162240E-08  0.241E-04    3.11      51.1  T
     SCC iter.                  ...        0 min,  0.116 sec
     gradient                   ...        0 min,  0.116 sec
 * total energy  :  -134.1787615 Eh     change       -0.5147747E-04 Eh
   gradient norm :     0.0020848 Eh/α   predicted    -0.3844787E-04 ( -25.31%)
   displ. norm   :     0.3961437 α      lambda       -0.5956606E-04
   maximum displ.:     0.2681626 α      in ANC's #1, #2, #3, ...

........................................................................
.............................. CYCLE   64 ..............................
........................................................................
   1   -135.6818748 -0.135682E+03  0.421E-02    3.12       0.0  T
   2   -135.6818765 -0.161948E-05  0.248E-02    3.12       1.0  T
   3   -135.6818735  0.298865E-05  0.740E-03    3.12       1.7  T
   4   -135.6818772 -0.367618E-05  0.128E-03    3.12       9.6  T
   5   -135.6818772 -0.588164E-07  0.636E-04    3.12      19.4  T
   6   -135.6818772 -0.333901E-08  0.307E-04    3.12      40.0  T
     SCC iter.                  ...        0 min,  0.121 sec
     gradient                   ...        0 min,  0.130 sec
 * total energy  :  -134.1788069 Eh     change       -0.4548149E-04 Eh
   gradient norm :     0.0023258 Eh/α   predicted    -0.3445761E-04 ( -24.24%)
[...]
         :: gradient norm              0.000510160851 Eh/a0 ::
         :: HOMO-LUMO gap              3.209999549016 eV    ::
         ::.................................................::
         :: SCC energy              -135.686769950125 Eh    ::
         :: -> isotropic ES            0.221431021429 Eh    ::
         :: -> anisotropic ES         -0.001470995126 Eh    ::
         :: -> anisotropic XC         -0.009563361744 Eh    ::
         :: -> dispersion             -0.093179472849 Eh    ::
         :: repulsion energy           1.496666053705 Eh    ::
         :: add. restraining           0.000000000000 Eh    ::
         :: total charge              -0.000000000000 e     ::
         :::::::::::::::::::::::::::::::::::::::::::::::::::::

           -------------------------------------------------
          |                Property Printout                |
           -------------------------------------------------

    * Orbital Energies and Occupations

         #    Occupation            Energy/Eh            Energy/eV
      -------------------------------------------------------------
         1        2.0000           -0.8730703             -23.7575
       ...           ...                  ...                  ...
       103        2.0000           -0.4449951             -12.1089
       104        2.0000           -0.4444908             -12.0952
       105        2.0000           -0.4362543             -11.8711
       106        2.0000           -0.4336948             -11.8014
       107        2.0000           -0.4313843             -11.7386
       108        2.0000           -0.4296102             -11.6903
       109        2.0000           -0.4275518             -11.6343
       110        2.0000           -0.4208627             -11.4523
       111        2.0000           -0.4105882             -11.1727
       112        2.0000           -0.4067534             -11.0683
       113        2.0000           -0.4056644             -11.0387
       114        2.0000           -0.4018014             -10.9336
       115        2.0000           -0.3923683             -10.6769 (HOMO)
       116                         -0.2744030              -7.4669 (LUMO)
       117                         -0.2682655              -7.2999
       118                         -0.2610508              -7.1036
       119                         -0.2579080              -7.0180
       120                         -0.2544171              -6.9230
       121                         -0.2492048              -6.7812
       122                         -0.2438437              -6.6353
       123                         -0.1975653              -5.3760
       124                         -0.1956518              -5.3240
       125                         -0.1610554              -4.3825
       126                         -0.1485234              -4.0415
       ...                                ...                  ...
       198                          0.6914758              18.8160
      -------------------------------------------------------------
                  HL-Gap            0.1179653 Eh            3.2100 eV
             Fermi-level           -0.3333857 Eh           -9.0719 eV

     #   Z          covCN         q      C6AA      α(0)
     1   6 C        2.976    -0.023    28.565     8.767
     2   6 C        3.336     0.486    17.297     6.587
     3   9 F        0.791    -0.224    11.483     4.003
     4   9 F        0.792    -0.201    11.240     3.960
     5   9 F        0.791    -0.204    11.275     3.967
     6   6 C        2.924    -0.019    28.471     8.750
     7   6 C        2.920    -0.020    28.502     8.755
     8   6 C        2.919    -0.015    28.381     8.736
     9   6 C        2.928    -0.022    28.554     8.763
    10   6 C        2.972     0.027    27.401     8.586
    11   6 C        3.833     0.050    19.712     6.317
    12   6 C        3.830     0.047    19.772     6.327
    13   6 C        2.971     0.029    27.352     8.579
    14   6 C        2.976    -0.024    28.590     8.771
    15   6 C        3.336     0.485    17.304     6.589
    16   9 F        0.792    -0.201    11.241     3.961
    17   9 F        0.791    -0.204    11.279     3.967
    18   9 F        0.791    -0.226    11.503     4.006
    19   6 C        2.924    -0.019    28.485     8.752
    20   6 C        2.920    -0.021    28.520     8.758
    21   6 C        2.919    -0.016    28.400     8.739
    22   6 C        2.927    -0.025    28.628     8.775
    23   7 N        2.765    -0.108    23.363     7.179
    24   6 C        2.758     0.260    22.614     7.787
    25   6 C        3.088     0.072    26.298     8.406
    26   6 C        3.013    -0.044    29.064     8.843
    27   6 C        3.010    -0.073    29.804     8.955
    28   6 C        3.084     0.130    25.077     8.209
    29   6 C        3.753    -0.124    22.944     6.831
    30   8 O        1.730    -0.212    17.513     5.651
    31   8 O        0.860    -0.426    22.202     6.317
    32   6 C        3.757     0.088    19.176     6.243
    33   6 C        2.689     0.358    20.926     7.486
    34   8 O        1.659    -0.355    19.990     6.036
    35   8 O        0.856    -0.391    21.511     6.218
    36   7 N        2.772    -0.133    23.885     7.259
    37   6 C        2.756     0.266    22.502     7.768
    38   6 C        3.106     0.075    26.198     8.386
    39   6 C        3.016    -0.061    29.483     8.907
    40   6 C        3.015    -0.074    29.814     8.957
    41   6 C        3.102     0.128    25.075     8.206
    42   6 C        3.753    -0.120    22.861     6.818
    43   8 O        1.732    -0.162    16.733     5.523
    44   8 O        0.859    -0.399    21.667     6.241
    45   1 H        0.926     0.069     2.097     2.264
    46   1 H        0.926     0.059     2.211     2.325
    47   1 H        0.926     0.057     2.230     2.335
    48   1 H        0.926     0.050     2.316     2.380
    49   1 H        0.924     0.065     2.147     2.291
    50   1 H        0.924     0.066     2.132     2.283
    51   1 H        0.926     0.067     2.114     2.274
    52   1 H        0.926     0.057     2.234     2.338
    53   1 H        0.926     0.054     2.265     2.353
    54   1 H        0.926     0.062     2.170     2.304
    55   1 H        0.927     0.067     2.120     2.277
    56   1 H        0.926     0.050     2.319     2.381
    57   1 H        0.925     0.080     1.977     2.199
    58   1 H        0.925     0.065     2.146     2.291
    59   1 H        0.925     0.068     2.107     2.270
    60   1 H        0.924     0.080     1.982     2.202
    61   1 H        0.804     0.344     0.602     1.219
    62   1 H        0.926     0.036     2.507     2.476
    63   1 H        0.926     0.044     2.390     2.418
    64   1 H        0.925     0.070     2.083     2.257
    65   1 H        0.925     0.060     2.197     2.318
    66   1 H        0.925     0.070     2.081     2.256

 Mol. C6AA /au·bohr⁶  :      56903.236574
 Mol. C8AA /au·bohr⁸  :    1364313.416940
 Mol. α(0) /au        :        366.350850


Wiberg/Mayer (AO) data.
largest (>0.10) Wiberg bond orders for each atom

 ---------------------------------------------------------------------------
     #   Z sym  total        # sym  WBO       # sym  WBO       # sym  WBO
 ---------------------------------------------------------------------------
     1   6 C    3.970 --     6 C    1.411    10 C    1.387     2 C    0.952
                             8 C    0.105
     2   6 C    3.821 --     4 F    0.956     1 C    0.952     5 F    0.946
                             3 F    0.928
     3   9 F    1.055 --     2 C    0.928
     4   9 F    1.078 --     2 C    0.956
     5   9 F    1.076 --     2 C    0.946
     6   6 C    3.987 --     7 C    1.445     1 C    1.411    45 H    0.965
                             9 C    0.109
     7   6 C    3.989 --     6 C    1.445     8 C    1.431    46 H    0.969
                            10 C    0.108
     8   6 C    3.990 --     9 C    1.450     7 C    1.431    47 H    0.969
                             1 C    0.105
     9   6 C    3.990 --     8 C    1.450    10 C    1.407    48 H    0.966
                             6 C    0.109
    10   6 C    3.986 --     9 C    1.407     1 C    1.387    11 C    0.997
                             7 C    0.108
    11   6 C    3.966 --    10 C    0.997    36 N    0.957    49 H    0.951
                            12 C    0.951
    12   6 C    3.966 --    13 C    0.996    23 N    0.957    50 H    0.951
                            11 C    0.951
    13   6 C    3.986 --    22 C    1.407    14 C    1.385    12 C    0.996
                            20 C    0.108
    14   6 C    3.969 --    19 C    1.412    13 C    1.385    15 C    0.952
                            21 C    0.105
    15   6 C    3.820 --    16 F    0.956    14 C    0.952    17 F    0.946
                            18 F    0.926
    16   9 F    1.078 --    15 C    0.956
    17   9 F    1.076 --    15 C    0.946
    18   9 F    1.053 --    15 C    0.926
    19   6 C    3.987 --    20 C    1.444    14 C    1.412    51 H    0.966
                            22 C    0.109
    20   6 C    3.989 --    19 C    1.444    21 C    1.432    52 H    0.969
                            13 C    0.108
    21   6 C    3.990 --    22 C    1.449    20 C    1.432    53 H    0.969
                            14 C    0.105
    22   6 C    3.988 --    21 C    1.449    13 C    1.407    54 H    0.961
                            19 C    0.109
    23   7 N    3.451 --    24 C    1.179    32 C    0.996    12 C    0.957
                            31 O    0.182
    24   6 C    3.958 --    31 O    1.647    23 N    1.179    25 C    1.041
    25   6 C    3.898 --    26 C    1.517    30 O    1.079    24 C    1.041
                            28 C    0.129
    26   6 C    3.984 --    25 C    1.517    27 C    1.328    55 H    0.971
    27   6 C    3.980 --    28 C    1.540    26 C    1.328    56 H    0.973
    28   6 C    3.907 --    27 C    1.540    30 O    1.124    29 C    1.032
                            25 C    0.129
    29   6 C    3.990 --    28 C    1.032    57 H    0.977    58 H    0.973
                            59 H    0.962
    30   8 O    2.424 --    28 C    1.124    25 C    1.079
    31   8 O    2.005 --    24 C    1.647    23 N    0.182
    32   6 C    3.967 --    23 N    0.996    36 N    0.972    60 H    0.939
                            33 C    0.906
    33   6 C    3.919 --    35 O    1.772    34 O    1.158    32 C    0.906
    34   8 O    2.228 --    33 C    1.158    61 H    0.855    35 O    0.180
    35   8 O    2.055 --    33 C    1.772    34 O    0.180
    36   7 N    3.415 --    37 C    1.155    32 C    0.972    11 C    0.957
                            44 O    0.175
    37   6 C    3.953 --    44 O    1.697    36 N    1.155    38 C    1.009
    38   6 C    3.907 --    39 C    1.521    43 O    1.114    37 C    1.009
                            41 C    0.129
    39   6 C    3.983 --    38 C    1.521    40 C    1.322    62 H    0.971
    40   6 C    3.979 --    41 C    1.537    39 C    1.322    63 H    0.974
    41   6 C    3.912 --    40 C    1.537    43 O    1.145    42 C    1.031
                            38 C    0.129
    42   6 C    3.992 --    41 C    1.031    65 H    0.983    66 H    0.969
                            64 H    0.965
    43   8 O    2.463 --    41 C    1.145    38 C    1.114
    44   8 O    2.041 --    37 C    1.697    36 N    0.175
    45   1 H    0.995 --     6 C    0.965
    46   1 H    0.996 --     7 C    0.969
    47   1 H    0.996 --     8 C    0.969
    48   1 H    0.997 --     9 C    0.966
    49   1 H    0.995 --    11 C    0.951
    50   1 H    0.995 --    12 C    0.951
    51   1 H    0.995 --    19 C    0.966
    52   1 H    0.996 --    20 C    0.969
    53   1 H    0.996 --    21 C    0.969
    54   1 H    0.996 --    22 C    0.961
    55   1 H    0.995 --    26 C    0.971
    56   1 H    0.997 --    27 C    0.973
    57   1 H    0.993 --    29 C    0.977
    58   1 H    0.994 --    29 C    0.973
    59   1 H    0.993 --    29 C    0.962
    60   1 H    0.993 --    32 C    0.939
    61   1 H    0.881 --    34 O    0.855
    62   1 H    0.999 --    39 C    0.971
    63   1 H    0.997 --    40 C    0.974
    64   1 H    0.994 --    42 C    0.965
    65   1 H    0.996 --    42 C    0.983
    66   1 H    0.995 --    42 C    0.969
 ---------------------------------------------------------------------------

Topologies differ in total number of bonds
Writing topology from bond orders to xtbtopo.mol

molecular dipole:
                 x           y           z       tot (Debye)
 q only:        0.092       2.383       0.029
   full:        0.096       2.766      -0.015       7.034
molecular quadrupole (traceless):
                xx          xy          yy          xz          yz          zz
 q only:      -10.122      -1.934      14.753      26.582      -0.633      -4.631
  q+dip:      -17.529      -4.577      13.203      28.057      -1.514       4.326
   full:      -14.957      -4.767      12.516      27.174      -1.845       2.441

           -------------------------------------------------
          |                Geometry Summary                 |
           -------------------------------------------------

      molecular mass/u    :      620.4970284
   center of mass at/Å    :       -0.0823757      -0.5478910      -0.0812072
  moments of inertia/u·Å² :        0.4850329E+04   0.6927670E+04   0.9505706E+04
rotational constants/cm⁻¹ :        0.3475565E-02   0.2433377E-02   0.1773423E-02

 * 63 selected distances

     #   Z          #   Z                                           value/Å
     2   6 C        3   9 F                                       1.3542256
     2   6 C        4   9 F                                       1.3392513
     2   6 C        5   9 F                                       1.3441509
     1   6 C        6   6 C                                       1.3898043
     6   6 C        7   6 C                                       1.3811245
     7   6 C        8   6 C                                       1.3835556
     8   6 C        9   6 C                                       1.3806109
     1   6 C       10   6 C                                       1.3947615
     9   6 C       10   6 C                                       1.3903451
    11   6 C       12   6 C                                       1.5422080 (max)
    13   6 C       14   6 C                                       1.3955592
    15   6 C       16   9 F                                       1.3392150
    15   6 C       17   9 F                                       1.3441824
    15   6 C       18   9 F                                       1.3553606
    14   6 C       19   6 C                                       1.3898454
    19   6 C       20   6 C                                       1.3809991
    20   6 C       21   6 C                                       1.3833026
    13   6 C       22   6 C                                       1.3900372
    21   6 C       22   6 C                                       1.3807447
    12   6 C       23   7 N                                       1.4610560
    23   7 N       24   6 C                                       1.3667742
    25   6 C       26   6 C                                       1.3736997
    26   6 C       27   6 C                                       1.4089028
    27   6 C       28   6 C                                       1.3690934
    28   6 C       29   6 C                                       1.4856965
    25   6 C       30   8 O                                       1.3589582
    28   6 C       30   8 O                                       1.3460945
    24   6 C       31   8 O                                       1.2173709
    23   7 N       32   6 C                                       1.4390116
    33   6 C       34   8 O                                       1.3280920
    33   6 C       35   8 O                                       1.1987923
    11   6 C       36   7 N                                       1.4601817
    32   6 C       36   7 N                                       1.4489352
    36   7 N       37   6 C                                       1.3754011
    38   6 C       39   6 C                                       1.3722396
    39   6 C       40   6 C                                       1.4094244
    40   6 C       41   6 C                                       1.3682988
    41   6 C       42   6 C                                       1.4851149
    38   6 C       43   8 O                                       1.3494749
    41   6 C       43   8 O                                       1.3402315
    37   6 C       44   8 O                                       1.2122306
     6   6 C       45   1 H                                       1.0787380
     7   6 C       46   1 H                                       1.0786568
     8   6 C       47   1 H                                       1.0792657
     9   6 C       48   1 H                                       1.0796798
    11   6 C       49   1 H                                       1.0956411
    12   6 C       50   1 H                                       1.0954666
    19   6 C       51   1 H                                       1.0787792
    20   6 C       52   1 H                                       1.0787393
    21   6 C       53   1 H                                       1.0794095
    22   6 C       54   1 H                                       1.0783945
    26   6 C       55   1 H                                       1.0701580
    27   6 C       56   1 H                                       1.0705331
    29   6 C       57   1 H                                       1.0876083
    29   6 C       58   1 H                                       1.0873825
    29   6 C       59   1 H                                       1.0899051
    32   6 C       60   1 H                                       1.0975135
    34   8 O       61   1 H                                       0.9720593 (min)
    39   6 C       62   1 H                                       1.0713155
    40   6 C       63   1 H                                       1.0706185
    42   6 C       64   1 H                                       1.0894295
    42   6 C       65   1 H                                       1.0856100
    42   6 C       66   1 H                                       1.0885731

 * 6 distinct bonds (by element types)

   Z      Z             #   av. dist./Å        max./Å        min./Å
   1 H    6 C          21     1.0824485     1.0975135     1.0701580
   6 C    6 C          21     1.4026366     1.5422080     1.3682988
   6 C    7 N           6     1.4252266     1.4610560     1.3667742
   1 H    8 O           1     0.9720593     0.9720593     0.9720593
   6 C    8 O           8     1.2939056     1.3589582     1.1987923
   6 C    9 F           6     1.3460643     1.3553606     1.3392150


optimized geometry written to: xtbopt.xyz


           -------------------------------------------------
          | TOTAL ENERGY             -134.187221975599 Eh   |
          | GRADIENT NORM               0.000510160851 Eh/α |
          | HOMO-LUMO GAP               3.209999549016 eV   |
           -------------------------------------------------

------------------------------------------------------------------------
 * finished run on 2022/03/17 at 00:19:32.235     
------------------------------------------------------------------------
 total:
 * wall-time:     0 d,  0 h,  1 min,  9.137 sec
 *  cpu-time:     0 d,  0 h, 26 min, 17.332 sec
 * ratio c/w:    22.815 speedup
 SCF:
 * wall-time:     0 d,  0 h,  0 min,  0.491 sec
 *  cpu-time:     0 d,  0 h,  0 min,  9.181 sec
 * ratio c/w:    18.696 speedup
 ANC optimizer:
 * wall-time:     0 d,  0 h,  1 min,  8.507 sec
 *  cpu-time:     0 d,  0 h, 26 min,  3.922 sec
 * ratio c/w:    22.829 speedup

