      -----------------------------------------------------------      
     |                   =====================                   |     
     |                           x T B                           |     
     |                   =====================                   |     
     |                         S. Grimme                         |     
     |          Mulliken Center for Theoretical Chemistry        |     
     |                    University of Bonn                     |     
      -----------------------------------------------------------      

   * xtb version 6.3.3 (4ae9cef) compiled by 'conda@95abc7406d43' on 2020-10-14

   xtb is free software: you can redistribute it and/or modify it under
   the terms of the GNU Lesser General Public License as published by
   the Free Software Foundation, either version 3 of the License, or
   (at your option) any later version.
   
   xtb is distributed in the hope that it will be useful,
   but WITHOUT ANY WARRANTY; without even the implied warranty of
   MERCHANTABILITY or FITNESS FOR A PARTICULAR PURPOSE.  See the
   GNU Lesser General Public License for more details.
   
   Cite this work as:
   * C. Bannwarth, E. Caldeweyher, S. Ehlert, A. Hansen, P. Pracht,
     J. Seibert, S. Spicher, S. Grimme, WIREs Comput. Mol. Sci., 2020,
     e01493. DOI: 10.1002/wcms.1493
   
   for GFN2-xTB:
   * S. Grimme, C. Bannwarth, P. Shushkov, J. Chem. Theory Comput., 2017,
     13, 1989-2009. DOI: 10.1021/acs.jctc.7b00118
   for GFN1-xTB:
   * C. Bannwarth, S. Ehlert and S. Grimme., J. Chem. Theory Comput., 2019,
     15, 1652-1671. DOI: 10.1021/acs.jctc.8b01176
   for GFN0-xTB:
   * P. Pracht, E. Caldeweyher, S. Ehlert, S. Grimme, ChemRxiv, 2019, preprint.
     DOI: 10.26434/chemrxiv.8326202.v1
   for GFN-FF:
   * S. Spicher and S. Grimme, Angew. Chem. Int. Ed., 2020, 59, 15665-15673.
     DOI: 10.1002/anie.202004239
   
   for DFT-D4:
   * E. Caldeweyher, C. Bannwarth and S. Grimme, J. Chem. Phys., 2017,
     147, 034112. DOI: 10.1063/1.4993215
   * E. Caldeweyher, S. Ehlert, A. Hansen, H. Neugebauer, S. Spicher,
     C. Bannwarth and S. Grimme, J. Chem. Phys., 2019, 150, 154122.
     DOI: 10.1063/1.5090222
   * E. Caldeweyher, J.-M. Mewes, S. Ehlert and S. Grimme, Phys. Chem. Chem. Phys.
     2020, 22, 8499-8512. DOI: 10.1039/D0CP00502A
   
   for sTDA-xTB:
   * S. Grimme and C. Bannwarth, J. Chem. Phys., 2016, 145, 054103.
     DOI: 10.1063/1.4959605
   
   in the mass-spec context:
   * V. Asgeirsson, C. Bauer and S. Grimme, Chem. Sci., 2017, 8, 4879.
     DOI: 10.1039/c7sc00601b
   * J. Koopman and S. Grimme, ACS Omega 2019, 4, 12, 15120-15133.
     DOI: 10.1021/acsomega.9b02011
   
   for metadynamics refer to:
   * S. Grimme, J. Chem. Theory Comput., 2019, 155, 2847-2862
     DOI: 10.1021/acs.jctc.9b00143
   
   with help from (in alphabetical order)
   C. Bannwarth, F. Bohle, G. Brandenburg, E. Caldeweyher, M. Checinski,
   S. Dohm, S. Ehlert, S. Ehrlich, F. März, H. Neugebauer, J. Pisarek,
   P. Pracht, P. Shushkov, and S. Spicher.
   
 * started run on 2022/03/17 at 02:04:55.658     

           -------------------------------------------------
          |                Calculation Setup                |
           -------------------------------------------------

          program call               : xtb acid_79.xyz --opt --chrg 0 --uhf 0 --gfn 2
          coordinate file            : acid_79.xyz
          omp threads                :                    64
          number of atoms            :                    72
          number of electrons        :                   226
          charge                     :                     0
          spin                       :                   0.0
          first test random number   :      0.71383148069556

   ID    Z sym.   atoms
    1    6 C      1-22, 24-26, 28-31, 33, 34, 38-44
    2    7 N      23, 37
    3   35 Br     27, 45
    4    8 O      32, 35, 36, 46
    5    1 H      47-72

           -------------------------------------------------
          |                 G F N 2 - x T B                 |
           -------------------------------------------------

        Reference                      10.1021/acs.jctc.8b01176
      * Hamiltonian:
        H0-scaling (s, p, d)           1.850000    2.230000    2.230000
        zeta-weighting                 0.500000
      * Dispersion:
        s8                             2.700000
        a1                             0.520000
        a2                             5.000000
        s9                             5.000000
      * Repulsion:
        kExp                           1.500000    1.000000
        rExp                           1.000000
      * Coulomb:
        alpha                          2.000000
        third order                    shell-resolved
        anisotropic                    true
        a3                             3.000000
        a5                             4.000000
        cn-shift                       1.200000
        cn-exp                         4.000000
        max-rad                        5.000000


          ...................................................
          :                      SETUP                      :
          :.................................................:
          :  # basis functions                 222          :
          :  # atomic orbitals                 220          :
          :  # shells                          120          :
          :  # electrons                       226          :
          :  max. iterations                   250          :
          :  Hamiltonian                  GFN2-xTB          :
          :  restarted?                      false          :
          :  GBSA solvation                  false          :
          :  PC potential                    false          :
          :  electronic temp.          300.0000000     K    :
          :  accuracy                    1.0000000          :
          :  -> integral cutoff          0.2500000E+02      :
          :  -> integral neglect         0.1000000E-07      :
          :  -> SCF convergence          0.1000000E-05 Eh   :
          :  -> wf. convergence          0.1000000E-03 e    :
          :  Broyden damping             0.4000000          :
          ...................................................

 iter      E             dE          RMSdq      gap      omega  full diag
   1   -126.5529163 -0.126553E+03  0.476E+00    2.50       0.0  T
   2   -126.7087673 -0.155851E+00  0.285E+00    2.63       1.0  T
   3   -126.6907377  0.180296E-01  0.136E+00    2.69       1.0  T
   4   -126.7348661 -0.441285E-01  0.395E-01    2.24       1.0  T
   5   -126.7406772 -0.581105E-02  0.228E-01    2.19       1.0  T
   6   -126.7416790 -0.100179E-02  0.115E-01    2.21       1.0  T
   7   -126.7419000 -0.220976E-03  0.789E-02    2.20       1.0  T
   8   -126.7419747 -0.747775E-04  0.581E-02    2.19       1.0  T
   9   -126.7420149 -0.401583E-04  0.309E-02    2.19       1.0  T
  10   -126.7420314 -0.165125E-04  0.130E-02    2.18       1.0  T
  11   -126.7420356 -0.417346E-05  0.758E-03    2.18       1.6  T
  12   -126.7420364 -0.824916E-06  0.401E-03    2.18       2.9  T
  13   -126.7420365 -0.126802E-06  0.253E-03    2.17       4.7  T
  14   -126.7420366 -0.910844E-07  0.166E-03    2.18       7.1  T
  15   -126.7420367 -0.267270E-07  0.104E-03    2.18      11.4  T
  16   -126.7420367 -0.286203E-07  0.416E-04    2.18      28.3  T
  17   -126.7420367 -0.144040E-08  0.289E-04    2.18      40.7  T

   *** convergence criteria satisfied after 17 iterations ***

         #    Occupation            Energy/Eh            Energy/eV
      -------------------------------------------------------------
         1        2.0000           -0.8431044             -22.9420
       ...           ...                  ...                  ...
       107        2.0000           -0.4079121             -11.0999
       108        2.0000           -0.4066374             -11.0652
       109        2.0000           -0.4027636             -10.9598
       110        2.0000           -0.4010872             -10.9141
       111        2.0000           -0.3968340             -10.7984
       112        2.0000           -0.3797724             -10.3341
       113        2.0000           -0.3699178             -10.0660 (HOMO)
       114                         -0.2899826              -7.8908 (LUMO)
       115                         -0.2733919              -7.4394
       116                         -0.2676624              -7.2835
       117                         -0.2636151              -7.1733
       118                         -0.2611051              -7.1050
       ...                                ...                  ...
       220                          0.6925543              18.8454
      -------------------------------------------------------------
                  HL-Gap            0.0799352 Eh            2.1751 eV
             Fermi-level           -0.3299502 Eh           -8.9784 eV

 SCC (total)                   0 d,  0 h,  0 min,  0.714 sec
 SCC setup                      ...        0 min,  0.018 sec (  2.570%)
 Dispersion                     ...        0 min,  0.019 sec (  2.606%)
 classical contributions        ...        0 min,  0.008 sec (  1.063%)
 integral evaluation            ...        0 min,  0.104 sec ( 14.576%)
 iterations                     ...        0 min,  0.423 sec ( 59.312%)
 molecular gradient             ...        0 min,  0.138 sec ( 19.404%)
 printout                       ...        0 min,  0.003 sec (  0.456%)

         :::::::::::::::::::::::::::::::::::::::::::::::::::::
         ::                     SUMMARY                     ::
         :::::::::::::::::::::::::::::::::::::::::::::::::::::
         :: total energy            -124.935521996576 Eh    ::
         :: gradient norm              0.138080730965 Eh/a0 ::
         :: HOMO-LUMO gap              2.175147358016 eV    ::
         ::.................................................::
         :: SCC energy              -126.742036682120 Eh    ::
         :: -> isotropic ES            0.125486143384 Eh    ::
         :: -> anisotropic ES          0.005529182290 Eh    ::
         :: -> anisotropic XC          0.051728175935 Eh    ::
         :: -> dispersion             -0.109256049355 Eh    ::
         :: repulsion energy           1.803185216969 Eh    ::
         :: add. restraining           0.000000000000 Eh    ::
         :: total charge              -0.000000000000 e     ::
         :::::::::::::::::::::::::::::::::::::::::::::::::::::

      ----------------------------------------------------------- 
     |                   =====================                   |
     |                        A N C O P T                        |
     |                   =====================                   |
     |               Approximate Normal Coordinate               |
     |                Rational Function Optimizer                |
      ----------------------------------------------------------- 

          ...................................................
          :                      SETUP                      :
          :.................................................:
          :   optimization level            normal          :
          :   max. optcycles                   216          :
          :   ANC micro-cycles                  20          :
          :   degrees of freedom               210          :
          :.................................................:
          :   RF solver                   davidson          :
          :   write xtbopt.log                true          :
          :   linear?                        false          :
          :   energy convergence         0.5000000E-05 Eh   :
          :   grad. convergence          0.1000000E-02 Eh/α :
          :   maximium RF displ.         1.0000000          :
          :   Hlow (freq-cutoff)         0.1000000E-01      :
          :   Hmax (freq-cutoff)         5.0000000          :
          :   S6 in model hess.         20.0000000          :
          ...................................................

generating ANC from model Hessian ...
Using Lindh-Hessian (1995)
 Shifting diagonal of input Hessian by    9.8599052539446001E-003
 Lowest  eigenvalues of input Hessian
    0.000000    0.000000    0.000000    0.000000    0.000000    0.000000
    0.010000    0.010045    0.010150    0.010204    0.010290    0.010403
    0.010579    0.010635    0.011218    0.011269    0.011351    0.011990
 Highest eigenvalues
    2.012379    2.082924    2.091301    2.186916    2.224979    2.230330


........................................................................
.............................. CYCLE    1 ..............................
........................................................................
   1   -126.7420367 -0.126742E+03  0.206E-04    2.18       0.0  T
   2   -126.7420367 -0.247098E-09  0.172E-04    2.18      68.6  T
   3   -126.7420367 -0.550386E-10  0.145E-04    2.18      81.2  T
     SCC iter.                  ...        0 min,  0.076 sec
     gradient                   ...        0 min,  0.124 sec
 * total energy  :  -124.9355220 Eh     change       -0.1589058E-08 Eh
   gradient norm :     0.1380819 Eh/α   predicted     0.0000000E+00 (-100.00%)
   displ. norm   :     0.3538999 α      lambda       -0.2451647E-01
   maximum displ.:     0.1106618 α      in ANC's #66, #22, #36, ...

........................................................................
.............................. CYCLE    2 ..............................
........................................................................
   1   -126.8283410 -0.126828E+03  0.174E-01    2.50       0.0  T
   2   -126.8284901 -0.149072E-03  0.108E-01    2.43       1.0  T
   3   -126.8284170  0.730499E-04  0.514E-02    2.45       1.0  T
   4   -126.8285542 -0.137203E-03  0.123E-02    2.43       1.0  T
   5   -126.8285611 -0.682488E-05  0.536E-03    2.42       2.2  T
   6   -126.8285616 -0.495357E-06  0.250E-03    2.43       4.7  T
   7   -126.8285616 -0.386927E-07  0.166E-03    2.43       7.1  T
   8   -126.8285616 -0.378200E-07  0.113E-03    2.43      10.4  T
   9   -126.8285617 -0.166148E-07  0.650E-04    2.43      18.1  T
  10   -126.8285617 -0.316712E-08  0.382E-04    2.43      30.8  T
     SCC iter.                  ...        0 min,  0.251 sec
     gradient                   ...        0 min,  0.124 sec
 * total energy  :  -124.9526419 Eh     change       -0.1711993E-01 Eh
   gradient norm :     0.0552735 Eh/α   predicted    -0.1379353E-01 ( -19.43%)
   displ. norm   :     0.3725789 α      lambda       -0.8363880E-02
   maximum displ.:     0.1630355 α      in ANC's #22, #19, #18, ...

........................................................................
.............................. CYCLE    3 ..............................
........................................................................
   1   -126.8727997 -0.126873E+03  0.130E-01    2.60       0.0  T
   2   -126.8728785 -0.788163E-04  0.793E-02    2.56       1.0  T
   3   -126.8728379  0.406407E-04  0.367E-02    2.57       1.0  T
   4   -126.8729115 -0.735971E-04  0.983E-03    2.55       1.2  T
   5   -126.8729154 -0.390003E-05  0.433E-03    2.55       2.7  T
   6   -126.8729157 -0.319799E-06  0.179E-03    2.55       6.6  T
   7   -126.8729157 -0.284706E-07  0.121E-03    2.55       9.8  T
   8   -126.8729157 -0.180125E-07  0.787E-04    2.55      15.0  T
   9   -126.8729158 -0.731458E-08  0.469E-04    2.55      25.2  T
     SCC iter.                  ...        0 min,  0.230 sec
     gradient                   ...        0 min,  0.137 sec
 * total energy  :  -124.9577077 Eh     change       -0.5065744E-02 Eh
   gradient norm :     0.0135549 Eh/α   predicted    -0.4762457E-02 (  -5.99%)
   displ. norm   :     0.2947279 α      lambda       -0.1754581E-02
   maximum displ.:     0.1441483 α      in ANC's #22, #18, #19, ...

........................................................................
.............................. CYCLE    4 ..............................
........................................................................
   1   -126.8767420 -0.126877E+03  0.791E-02    2.56       0.0  T
   2   -126.8767651 -0.231507E-04  0.466E-02    2.55       1.0  T
   3   -126.8767531  0.120278E-04  0.184E-02    2.56       1.0  T
   4   -126.8767708 -0.177480E-04  0.552E-03    2.55       2.1  T
   5   -126.8767723 -0.142681E-05  0.270E-03    2.55       4.4  T
   6   -126.8767724 -0.768961E-07  0.152E-03    2.55       7.8  T
   7   -126.8767724 -0.287024E-07  0.109E-03    2.55      10.8  T
   8   -126.8767724 -0.632051E-08  0.715E-04    2.55      16.5  T
   9   -126.8767724 -0.103452E-07  0.289E-04    2.55      40.7  T
     SCC iter.                  ...        0 min,  0.227 sec
     gradient                   ...        0 min,  0.149 sec
 * total energy  :  -124.9589715 Eh     change       -0.1263819E-02 Eh
   gradient norm :     0.0115753 Eh/α   predicted    -0.9535263E-03 ( -24.55%)
   displ. norm   :     0.3398158 α      lambda       -0.1136310E-02
   maximum displ.:     0.1476406 α      in ANC's #22, #18, #17, ...

........................................................................
.............................. CYCLE    5 ..............................
........................................................................
   1   -126.8780441 -0.126878E+03  0.795E-02    2.54       0.0  T
   2   -126.8780525 -0.837621E-05  0.465E-02    2.54       1.0  T
   3   -126.8780406  0.118967E-04  0.147E-02    2.54       1.0  T
   4   -126.8780556 -0.150404E-04  0.393E-03    2.54       3.0  T
   5   -126.8780560 -0.380449E-06  0.236E-03    2.54       5.0  T
   6   -126.8780561 -0.605654E-07  0.145E-03    2.54       8.1  T
   7   -126.8780561 -0.166863E-07  0.109E-03    2.54      10.9  T
   8   -126.8780561 -0.114868E-07  0.598E-04    2.54      19.7  T
   9   -126.8780561 -0.732398E-08  0.303E-04    2.54      38.9  T
     SCC iter.                  ...        0 min,  0.230 sec
     gradient                   ...        0 min,  0.130 sec
 * total energy  :  -124.9597251 Eh     change       -0.7535817E-03 Eh
   gradient norm :     0.0076027 Eh/α   predicted    -0.6337775E-03 ( -15.90%)
   displ. norm   :     0.2622790 α      lambda       -0.4711279E-03
   maximum displ.:     0.1087412 α      in ANC's #17, #18, #22, ...

........................................................................
.............................. CYCLE    6 ..............................
........................................................................
   1   -126.8788042 -0.126879E+03  0.674E-02    2.51       0.0  T
   2   -126.8788069 -0.270187E-05  0.390E-02    2.52       1.0  T
   3   -126.8788035  0.347221E-05  0.897E-03    2.52       1.3  T
   4   -126.8788081 -0.467347E-05  0.366E-03    2.52       3.2  T
   5   -126.8788083 -0.127800E-06  0.242E-03    2.52       4.9  T
   6   -126.8788083 -0.758225E-07  0.159E-03    2.51       7.4  T
   7   -126.8788084 -0.159924E-07  0.112E-03    2.51      10.5  T
   8   -126.8788084 -0.175610E-07  0.519E-04    2.51      22.7  T
   9   -126.8788084 -0.709639E-08  0.273E-04    2.51      43.1  T
     SCC iter.                  ...        0 min,  0.223 sec
     gradient                   ...        0 min,  0.120 sec
 * total energy  :  -124.9600624 Eh     change       -0.3373514E-03 Eh
   gradient norm :     0.0068512 Eh/α   predicted    -0.2517711E-03 ( -25.37%)
   displ. norm   :     0.3134153 α      lambda       -0.4141499E-03
   maximum displ.:     0.1111049 α      in ANC's #17, #18, #2, ...

........................................................................
.............................. CYCLE    7 ..............................
........................................................................
   1   -126.8805590 -0.126881E+03  0.795E-02    2.50       0.0  T
   2   -126.8805632 -0.422831E-05  0.456E-02    2.50       1.0  T
   3   -126.8805594  0.386010E-05  0.986E-03    2.50       1.2  T
   4   -126.8805647 -0.528147E-05  0.424E-03    2.50       2.8  T
   5   -126.8805649 -0.248587E-06  0.271E-03    2.50       4.4  T
   6   -126.8805650 -0.108250E-06  0.178E-03    2.50       6.6  T
   7   -126.8805650 -0.221674E-07  0.130E-03    2.50       9.1  T
   8   -126.8805651 -0.169182E-07  0.694E-04    2.50      17.0  T
   9   -126.8805651 -0.137070E-07  0.294E-04    2.50      40.1  T
     SCC iter.                  ...        0 min,  0.222 sec
     gradient                   ...        0 min,  0.134 sec
 * total energy  :  -124.9603705 Eh     change       -0.3080858E-03 Eh
   gradient norm :     0.0068833 Eh/α   predicted    -0.2274282E-03 ( -26.18%)
   displ. norm   :     0.3887580 α      lambda       -0.4406045E-03
   maximum displ.:     0.1317832 α      in ANC's #5, #2, #7, ...

........................................................................
.............................. CYCLE    8 ..............................
........................................................................
   1   -126.8811385 -0.126881E+03  0.105E-01    2.47       0.0  T
   2   -126.8811425 -0.396829E-05  0.600E-02    2.47       1.0  T
   3   -126.8811376  0.493395E-05  0.110E-02    2.47       1.1  T
   4   -126.8811444 -0.688871E-05  0.498E-03    2.47       2.4  T
   5   -126.8811447 -0.228117E-06  0.286E-03    2.47       4.1  T
   6   -126.8811448 -0.152776E-06  0.197E-03    2.47       6.0  T
   7   -126.8811448 -0.878596E-08  0.140E-03    2.47       8.4  T
   8   -126.8811449 -0.398025E-07  0.621E-04    2.47      19.0  T
   9   -126.8811449 -0.922111E-08  0.336E-04    2.47      35.1  T
     SCC iter.                  ...        0 min,  0.230 sec
     gradient                   ...        0 min,  0.145 sec
 * total energy  :  -124.9607158 Eh     change       -0.3452864E-03 Eh
   gradient norm :     0.0102452 Eh/α   predicted    -0.2536032E-03 ( -26.55%)
   displ. norm   :     0.4815883 α      lambda       -0.5697512E-03
   maximum displ.:     0.1780118 α      in ANC's #5, #7, #2, ...

........................................................................
.............................. CYCLE    9 ..............................
........................................................................
   1   -126.8816637 -0.126882E+03  0.121E-01    2.48       0.0  T
   2   -126.8816712 -0.751649E-05  0.694E-02    2.47       1.0  T
   3   -126.8816614  0.984591E-05  0.138E-02    2.47       1.0  T
   4   -126.8816738 -0.124574E-04  0.563E-03    2.47       2.1  T
   5   -126.8816745 -0.606320E-06  0.306E-03    2.47       3.8  T
   6   -126.8816745 -0.862095E-07  0.209E-03    2.47       5.6  T
   7   -126.8816746 -0.438725E-07  0.161E-03    2.47       7.3  T
   8   -126.8816746 -0.290096E-07  0.840E-04    2.47      14.0  T
   9   -126.8816746 -0.172278E-07  0.360E-04    2.47      32.7  T
     SCC iter.                  ...        0 min,  0.222 sec
     gradient                   ...        0 min,  0.128 sec
 * total energy  :  -124.9611688 Eh     change       -0.4530022E-03 Eh
   gradient norm :     0.0095352 Eh/α   predicted    -0.3510317E-03 ( -22.51%)
   displ. norm   :     0.5463086 α      lambda       -0.6327431E-03
   maximum displ.:     0.2100387 α      in ANC's #5, #7, #2, ...

........................................................................
.............................. CYCLE   10 ..............................
........................................................................
   1   -126.8801776 -0.126880E+03  0.138E-01    2.43       0.0  T
   2   -126.8801875 -0.987910E-05  0.801E-02    2.43       1.0  T
   3   -126.8801720  0.154602E-04  0.163E-02    2.44       1.0  T
   4   -126.8801913 -0.192559E-04  0.601E-03    2.44       2.0  T
   5   -126.8801920 -0.661736E-06  0.338E-03    2.44       3.5  T
   6   -126.8801921 -0.120319E-06  0.230E-03    2.44       5.1  T
   7   -126.8801921 -0.652251E-07  0.171E-03    2.44       6.9  T
   8   -126.8801922 -0.282924E-07  0.985E-04    2.44      12.0  T
   9   -126.8801922 -0.207308E-07  0.405E-04    2.44      29.1  T
     SCC iter.                  ...        0 min,  0.227 sec
     gradient                   ...        0 min,  0.142 sec
 * total energy  :  -124.9616708 Eh     change       -0.5019971E-03 Eh
   gradient norm :     0.0119205 Eh/α   predicted    -0.4107969E-03 ( -18.17%)
   displ. norm   :     0.5421245 α      lambda       -0.7949334E-03
   maximum displ.:     0.2161138 α      in ANC's #5, #7, #2, ...

........................................................................
.............................. CYCLE   11 ..............................
........................................................................
   1   -126.8833023 -0.126883E+03  0.120E-01    2.55       0.0  T
   2   -126.8833212 -0.189580E-04  0.697E-02    2.52       1.0  T
   3   -126.8832999  0.213515E-04  0.215E-02    2.53       1.0  T
   4   -126.8833272 -0.272795E-04  0.590E-03    2.52       2.0  T
   5   -126.8833281 -0.938106E-06  0.358E-03    2.52       3.3  T
   6   -126.8833283 -0.185979E-06  0.219E-03    2.52       5.4  T
   7   -126.8833283 -0.437212E-07  0.170E-03    2.52       6.9  T
   8   -126.8833284 -0.293681E-07  0.100E-03    2.52      11.8  T
   9   -126.8833284 -0.200503E-07  0.415E-04    2.52      28.4  T
     SCC iter.                  ...        0 min,  0.223 sec
     gradient                   ...        0 min,  0.133 sec
 * total energy  :  -124.9621311 Eh     change       -0.4602530E-03 Eh
   gradient norm :     0.0108932 Eh/α   predicted    -0.5142858E-03 (  11.74%)
   displ. norm   :     0.6650709 α      lambda       -0.7531070E-03
   maximum displ.:     0.2533605 α      in ANC's #5, #7, #2, ...

........................................................................
.............................. CYCLE   12 ..............................
........................................................................
   1   -126.8739339 -0.126874E+03  0.168E-01    2.35       0.0  T
   2   -126.8739687 -0.348197E-04  0.982E-02    2.38       1.0  T
   3   -126.8739347  0.339601E-04  0.270E-02    2.37       1.0  T
   4   -126.8739791 -0.443249E-04  0.717E-03    2.38       1.6  T
   5   -126.8739803 -0.124289E-05  0.447E-03    2.38       2.6  T
   6   -126.8739806 -0.346020E-06  0.256E-03    2.38       4.6  T
   7   -126.8739807 -0.579087E-07  0.192E-03    2.38       6.2  T
   8   -126.8739807 -0.453609E-07  0.121E-03    2.38       9.8  T
   9   -126.8739808 -0.243473E-07  0.550E-04    2.38      21.4  T
  10   -126.8739808 -0.276779E-08  0.358E-04    2.38      32.9  T
     SCC iter.                  ...        0 min,  0.254 sec
     gradient                   ...        0 min,  0.124 sec
 * total energy  :  -124.9625091 Eh     change       -0.3780266E-03 Eh
   gradient norm :     0.0195642 Eh/α   predicted    -0.5431122E-03 (  43.67%)
   displ. norm   :     0.1904621 α      lambda       -0.4328918E-03
   maximum displ.:     0.0742725 α      in ANC's #5, #7, #8, ...

........................................................................
.............................. CYCLE   13 ..............................
........................................................................
   1   -126.8793103 -0.126879E+03  0.431E-02    2.42       0.0  T
   2   -126.8793213 -0.109546E-04  0.251E-02    2.42       1.0  T
   3   -126.8793202  0.107393E-05  0.105E-02    2.42       1.1  T
   4   -126.8793227 -0.245416E-05  0.267E-03    2.42       4.4  T
   5   -126.8793230 -0.340194E-06  0.133E-03    2.42       8.9  T
   6   -126.8793231 -0.441322E-07  0.849E-04    2.42      13.9  T
   7   -126.8793231 -0.657727E-08  0.596E-04    2.42      19.8  T
     SCC iter.                  ...        0 min,  0.176 sec
     gradient                   ...        0 min,  0.126 sec
 * total energy  :  -124.9628273 Eh     change       -0.3182711E-03 Eh
   gradient norm :     0.0124314 Eh/α   predicted    -0.2243010E-03 ( -29.53%)
   displ. norm   :     0.4857972 α      lambda       -0.5648023E-03
   maximum displ.:     0.1957092 α      in ANC's #5, #7, #8, ...

........................................................................
.............................. CYCLE   14 ..............................
........................................................................
   1   -126.8827021 -0.126883E+03  0.110E-01    2.51       0.0  T
   2   -126.8827210 -0.188233E-04  0.637E-02    2.49       1.0  T
   3   -126.8827030  0.179556E-04  0.197E-02    2.49       1.0  T
   4   -126.8827250 -0.220081E-04  0.576E-03    2.48       2.0  T
   5   -126.8827263 -0.128226E-05  0.321E-03    2.48       3.7  T
   6   -126.8827264 -0.142272E-06  0.215E-03    2.49       5.5  T
   7   -126.8827265 -0.518054E-07  0.162E-03    2.49       7.3  T
   8   -126.8827265 -0.247295E-07  0.105E-03    2.48      11.3  T
   9   -126.8827265 -0.220980E-07  0.450E-04    2.48      26.2  T
  10   -126.8827265 -0.275591E-08  0.242E-04    2.48      48.6  T
     SCC iter.                  ...        0 min,  0.259 sec
     gradient                   ...        0 min,  0.125 sec
 * total energy  :  -124.9631461 Eh     change       -0.3187798E-03 Eh
   gradient norm :     0.0096885 Eh/α   predicted    -0.3490497E-03 (   9.50%)
   displ. norm   :     0.5508482 α      lambda       -0.4650171E-03
   maximum displ.:     0.2280282 α      in ANC's #5, #7, #8, ...

........................................................................
.............................. CYCLE   15 ..............................
........................................................................
   1   -126.8812775 -0.126881E+03  0.129E-01    2.40       0.0  T
   2   -126.8812935 -0.160366E-04  0.749E-02    2.42       1.0  T
   3   -126.8812775  0.159975E-04  0.187E-02    2.41       1.0  T
   4   -126.8812980 -0.204528E-04  0.601E-03    2.42       2.0  T
   5   -126.8812988 -0.803664E-06  0.377E-03    2.42       3.1  T
   6   -126.8812990 -0.250680E-06  0.233E-03    2.42       5.1  T
   7   -126.8812991 -0.588223E-07  0.180E-03    2.42       6.6  T
   8   -126.8812991 -0.301659E-07  0.111E-03    2.42      10.6  T
   9   -126.8812991 -0.267401E-07  0.510E-04    2.42      23.1  T
  10   -126.8812991 -0.264065E-08  0.299E-04    2.42      39.5  T
     SCC iter.                  ...        0 min,  0.250 sec
     gradient                   ...        0 min,  0.135 sec
 * total energy  :  -124.9634305 Eh     change       -0.2843545E-03 Eh
   gradient norm :     0.0104263 Eh/α   predicted    -0.3030640E-03 (   6.58%)
   displ. norm   :     0.3696176 α      lambda       -0.2557831E-03
   maximum displ.:     0.1570872 α      in ANC's #5, #7, #8, ...

........................................................................
.............................. CYCLE   16 ..............................
........................................................................
   1   -126.8811748 -0.126881E+03  0.886E-02    2.41       0.0  T
   2   -126.8811802 -0.532889E-05  0.513E-02    2.41       1.0  T
   3   -126.8811706  0.957282E-05  0.127E-02    2.42       1.0  T
   4   -126.8811820 -0.114300E-04  0.401E-03    2.42       2.9  T
   5   -126.8811824 -0.366692E-06  0.240E-03    2.42       4.9  T
   6   -126.8811825 -0.940960E-07  0.158E-03    2.42       7.5  T
   7   -126.8811825 -0.317283E-07  0.116E-03    2.42      10.1  T
   8   -126.8811825 -0.118203E-07  0.741E-04    2.42      15.9  T
   9   -126.8811825 -0.116139E-07  0.272E-04    2.42      43.3  T
     SCC iter.                  ...        0 min,  0.230 sec
     gradient                   ...        0 min,  0.139 sec
 * total energy  :  -124.9636368 Eh     change       -0.2063413E-03 Eh
   gradient norm :     0.0116068 Eh/α   predicted    -0.1453659E-03 ( -29.55%)
   displ. norm   :     0.4194401 α      lambda       -0.4909821E-03
   maximum displ.:     0.1685779 α      in ANC's #5, #8, #14, ...

........................................................................
.............................. CYCLE   17 ..............................
........................................................................
   1   -126.8924462 -0.126892E+03  0.112E-01    2.50       0.0  T
   2   -126.8924643 -0.181888E-04  0.646E-02    2.48       1.0  T
   3   -126.8924526  0.117014E-04  0.166E-02    2.48       1.0  T
   4   -126.8924669 -0.142583E-04  0.558E-03    2.48       2.1  T
   5   -126.8924680 -0.110567E-05  0.318E-03    2.48       3.7  T
   6   -126.8924682 -0.176093E-06  0.212E-03    2.48       5.6  T
   7   -126.8924682 -0.451489E-07  0.154E-03    2.48       7.7  T
   8   -126.8924683 -0.236333E-07  0.112E-03    2.48      10.6  T
   9   -126.8924683 -0.233506E-07  0.384E-04    2.48      30.7  T
  10   -126.8924683 -0.188442E-08  0.247E-04    2.48      47.7  T
     SCC iter.                  ...        0 min,  0.248 sec
     gradient                   ...        0 min,  0.130 sec
 * total energy  :  -124.9637711 Eh     change       -0.1342715E-03 Eh
   gradient norm :     0.0144266 Eh/α   predicted    -0.2886811E-03 ( 115.00%)
   displ. norm   :     0.4841172 α      lambda       -0.4816489E-03
   maximum displ.:     0.1987926 α      in ANC's #5, #8, #7, ...

........................................................................
.............................. CYCLE   18 ..............................
........................................................................
   1   -126.8821110 -0.126882E+03  0.119E-01    2.39       0.0  T
   2   -126.8821289 -0.179506E-04  0.698E-02    2.41       1.0  T
   3   -126.8821036  0.253604E-04  0.212E-02    2.41       1.0  T
   4   -126.8821348 -0.312209E-04  0.547E-03    2.41       2.2  T
   5   -126.8821355 -0.732038E-06  0.328E-03    2.41       3.6  T
   6   -126.8821357 -0.224902E-06  0.193E-03    2.41       6.1  T
   7   -126.8821358 -0.384980E-07  0.143E-03    2.41       8.3  T
   8   -126.8821358 -0.273219E-07  0.963E-04    2.41      12.2  T
   9   -126.8821358 -0.132224E-07  0.426E-04    2.41      27.7  T
     SCC iter.                  ...        0 min,  0.222 sec
     gradient                   ...        0 min,  0.046 sec
 * total energy  :  -124.9640071 Eh     change       -0.2360482E-03 Eh
   gradient norm :     0.0100690 Eh/α   predicted    -0.2972683E-03 (  25.94%)
   displ. norm   :     0.1478367 α      lambda       -0.1378931E-03
   maximum displ.:     0.0668495 α      in ANC's #11, #5, #8, ...

........................................................................
.............................. CYCLE   19 ..............................
........................................................................
   1   -126.8835251 -0.126884E+03  0.373E-02    2.40       0.0  T
   2   -126.8835321 -0.699928E-05  0.218E-02    2.41       1.0  T
   3   -126.8835311  0.999232E-06  0.790E-03    2.41       1.5  T
   4   -126.8835325 -0.139622E-05  0.259E-03    2.41       4.6  T
   5   -126.8835329 -0.400458E-06  0.107E-03    2.41      11.0  T
   6   -126.8835330 -0.189435E-07  0.722E-04    2.41      16.3  T
   7   -126.8835330 -0.547128E-08  0.499E-04    2.41      23.6  T
     SCC iter.                  ...        0 min,  0.181 sec
     gradient                   ...        0 min,  0.139 sec
 * total energy  :  -124.9641022 Eh     change       -0.9510372E-04 Eh
   gradient norm :     0.0108471 Eh/α   predicted    -0.7045518E-04 ( -25.92%)
   displ. norm   :     0.2867247 α      lambda       -0.1926936E-03
   maximum displ.:     0.1216915 α      in ANC's #5, #8, #11, ...

........................................................................
.............................. CYCLE   20 ..............................
........................................................................
   1   -126.8853070 -0.126885E+03  0.678E-02    2.43       0.0  T
   2   -126.8853138 -0.680343E-05  0.392E-02    2.42       1.0  T
   3   -126.8853094  0.434389E-05  0.984E-03    2.42       1.2  T
   4   -126.8853147 -0.525516E-05  0.359E-03    2.42       3.3  T
   5   -126.8853153 -0.602906E-06  0.181E-03    2.42       6.5  T
   6   -126.8853153 -0.370957E-07  0.112E-03    2.42      10.5  T
   7   -126.8853154 -0.191032E-07  0.829E-04    2.42      14.2  T
   8   -126.8853154 -0.578576E-08  0.562E-04    2.42      21.0  T
     SCC iter.                  ...        0 min,  0.205 sec
     gradient                   ...        0 min,  0.133 sec
 * total energy  :  -124.9642403 Eh     change       -0.1380764E-03 Eh
   gradient norm :     0.0092157 Eh/α   predicted    -0.1042703E-03 ( -24.48%)
   displ. norm   :     0.3926434 α      lambda       -0.2024040E-03
   maximum displ.:     0.1624217 α      in ANC's #5, #11, #8, ...
 * RMSD in coord.:     0.7582833 α      energy gain  -0.2871833E-01 Eh

generating ANC from model Hessian ...
Using Lindh-Hessian (1995)
 Shifting diagonal of input Hessian by    9.8691117049437890E-003
 Lowest  eigenvalues of input Hessian
    0.000000    0.000000    0.000000    0.000000    0.000000    0.000000
    0.010000    0.010092    0.010180    0.010247    0.010370    0.010429
    0.010681    0.010729    0.011245    0.011331    0.011587    0.012188
 Highest eigenvalues
    2.037067    2.126553    2.129608    2.344977    2.348862    2.382126


........................................................................
.............................. CYCLE   21 ..............................
........................................................................
   1   -126.8870620 -0.126887E+03  0.930E-02    2.41       0.0  T
   2   -126.8870666 -0.456014E-05  0.540E-02    2.41       1.0  T
   3   -126.8870556  0.109566E-04  0.132E-02    2.41       1.0  T
   4   -126.8870689 -0.132392E-04  0.370E-03    2.41       3.2  T
   5   -126.8870690 -0.185605E-06  0.226E-03    2.41       5.2  T
   6   -126.8870691 -0.101862E-06  0.132E-03    2.41       8.9  T
   7   -126.8870692 -0.255491E-07  0.963E-04    2.41      12.2  T
   8   -126.8870692 -0.872180E-08  0.602E-04    2.41      19.6  T
     SCC iter.                  ...        0 min,  0.203 sec
     gradient                   ...        0 min,  0.131 sec
 * total energy  :  -124.9643913 Eh     change       -0.1509989E-03 Eh
   gradient norm :     0.0098061 Eh/α   predicted     0.0000000E+00 (-100.00%)
   displ. norm   :     0.0792103 α      lambda       -0.2370823E-03
   maximum displ.:     0.0349025 α      in ANC's #31, #27, #28, ...

........................................................................
.............................. CYCLE   22 ..............................
........................................................................
   1   -126.8865276 -0.126887E+03  0.324E-02    2.43       0.0  T
   2   -126.8865307 -0.306866E-05  0.189E-02    2.42       1.0  T
   3   -126.8865277  0.301446E-05  0.840E-03    2.42       1.4  T
   4   -126.8865316 -0.396026E-05  0.184E-03    2.42       6.4  T
   5   -126.8865317 -0.115358E-06  0.114E-03    2.42      10.4  T
   6   -126.8865318 -0.184044E-07  0.829E-04    2.42      14.2  T
   7   -126.8865318 -0.613989E-08  0.549E-04    2.42      21.5  T
     SCC iter.                  ...        0 min,  0.181 sec
     gradient                   ...        0 min,  0.119 sec
 * total energy  :  -124.9645674 Eh     change       -0.1761048E-03 Eh
   gradient norm :     0.0034257 Eh/α   predicted    -0.1194072E-03 ( -32.20%)
   displ. norm   :     0.1927562 α      lambda       -0.2958336E-03
   maximum displ.:     0.0812864 α      in ANC's #31, #27, #12, ...

........................................................................
.............................. CYCLE   23 ..............................
........................................................................
   1   -126.8852502 -0.126885E+03  0.644E-02    2.41       0.0  T
   2   -126.8852569 -0.674748E-05  0.377E-02    2.41       1.0  T
   3   -126.8852430  0.138649E-04  0.157E-02    2.41       1.0  T
   4   -126.8852605 -0.174591E-04  0.288E-03    2.41       4.1  T
   5   -126.8852607 -0.189036E-06  0.193E-03    2.41       6.1  T
   6   -126.8852607 -0.380345E-07  0.136E-03    2.41       8.6  T
   7   -126.8852608 -0.258110E-07  0.807E-04    2.41      14.6  T
   8   -126.8852608 -0.805386E-08  0.540E-04    2.41      21.8  T
     SCC iter.                  ...        0 min,  0.201 sec
     gradient                   ...        0 min,  0.128 sec
 * total energy  :  -124.9647874 Eh     change       -0.2199846E-03 Eh
   gradient norm :     0.0056746 Eh/α   predicted    -0.1534145E-03 ( -30.26%)
   displ. norm   :     0.2906537 α      lambda       -0.2920324E-03
   maximum displ.:     0.1115810 α      in ANC's #31, #12, #27, ...

........................................................................
.............................. CYCLE   24 ..............................
........................................................................
   1   -126.8833705 -0.126883E+03  0.885E-02    2.35       0.0  T
   2   -126.8833802 -0.977007E-05  0.522E-02    2.36       1.0  T
   3   -126.8833535  0.267499E-04  0.207E-02    2.35       1.0  T
   4   -126.8833868 -0.333154E-04  0.375E-03    2.36       3.1  T
   5   -126.8833870 -0.239211E-06  0.256E-03    2.36       4.6  T
   6   -126.8833871 -0.517834E-07  0.165E-03    2.36       7.1  T
   7   -126.8833871 -0.468658E-07  0.101E-03    2.36      11.6  T
   8   -126.8833871 -0.123287E-07  0.708E-04    2.36      16.6  T
   9   -126.8833871 -0.586736E-08  0.402E-04    2.36      29.3  T
     SCC iter.                  ...        0 min,  0.227 sec
     gradient                   ...        0 min,  0.128 sec
 * total energy  :  -124.9649690 Eh     change       -0.1815571E-03 Eh
   gradient norm :     0.0111131 Eh/α   predicted    -0.1583531E-03 ( -12.78%)
   displ. norm   :     0.1793686 α      lambda       -0.1998525E-03
   maximum displ.:     0.0775227 α      in ANC's #9, #10, #12, ...

........................................................................
.............................. CYCLE   25 ..............................
........................................................................
   1   -126.8848046 -0.126885E+03  0.425E-02    2.37       0.0  T
   2   -126.8848074 -0.282030E-05  0.247E-02    2.37       1.0  T
   3   -126.8848032  0.417694E-05  0.852E-03    2.36       1.4  T
   4   -126.8848085 -0.526986E-05  0.212E-03    2.37       5.5  T
   5   -126.8848086 -0.133866E-06  0.127E-03    2.37       9.3  T
   6   -126.8848086 -0.149145E-07  0.837E-04    2.37      14.1  T
   7   -126.8848086 -0.114820E-07  0.533E-04    2.37      22.1  T
     SCC iter.                  ...        0 min,  0.174 sec
     gradient                   ...        0 min,  0.124 sec
 * total energy  :  -124.9651286 Eh     change       -0.1596768E-03 Eh
   gradient norm :     0.0077556 Eh/α   predicted    -0.1031471E-03 ( -35.40%)
   displ. norm   :     0.3208881 α      lambda       -0.3224162E-03
   maximum displ.:     0.1674049 α      in ANC's #9, #10, #12, ...

........................................................................
.............................. CYCLE   26 ..............................
........................................................................
   1   -126.8873447 -0.126887E+03  0.650E-02    2.39       0.0  T
   2   -126.8873519 -0.720139E-05  0.376E-02    2.39       1.0  T
   3   -126.8873439  0.796132E-05  0.131E-02    2.39       1.0  T
   4   -126.8873544 -0.105397E-04  0.375E-03    2.39       3.1  T
   5   -126.8873548 -0.391534E-06  0.226E-03    2.39       5.2  T
   6   -126.8873549 -0.612439E-07  0.137E-03    2.39       8.6  T
   7   -126.8873549 -0.284150E-07  0.973E-04    2.39      12.1  T
   8   -126.8873549 -0.956629E-08  0.647E-04    2.39      18.2  T
     SCC iter.                  ...        0 min,  0.202 sec
     gradient                   ...        0 min,  0.122 sec
 * total energy  :  -124.9653628 Eh     change       -0.2341149E-03 Eh
   gradient norm :     0.0046968 Eh/α   predicted    -0.1778078E-03 ( -24.05%)
   displ. norm   :     0.4234585 α      lambda       -0.2408416E-03
   maximum displ.:     0.2201972 α      in ANC's #9, #10, #12, ...

........................................................................
.............................. CYCLE   27 ..............................
........................................................................
   1   -126.8857230 -0.126886E+03  0.836E-02    2.34       0.0  T
   2   -126.8857311 -0.813423E-05  0.485E-02    2.35       1.0  T
   3   -126.8857100  0.211325E-04  0.188E-02    2.35       1.0  T
   4   -126.8857365 -0.265562E-04  0.431E-03    2.35       2.7  T
   5   -126.8857367 -0.158920E-06  0.281E-03    2.35       4.2  T
   6   -126.8857368 -0.110102E-06  0.185E-03    2.35       6.4  T
   7   -126.8857368 -0.505507E-07  0.129E-03    2.35       9.1  T
   8   -126.8857368 -0.141373E-07  0.812E-04    2.35      14.5  T
   9   -126.8857369 -0.127408E-07  0.432E-04    2.35      27.3  T
     SCC iter.                  ...        0 min,  0.222 sec
     gradient                   ...        0 min,  0.119 sec
 * total energy  :  -124.9655226 Eh     change       -0.1597905E-03 Eh
   gradient norm :     0.0091174 Eh/α   predicted    -0.1420317E-03 ( -11.11%)
   displ. norm   :     0.4033178 α      lambda       -0.3634824E-03
   maximum displ.:     0.2325132 α      in ANC's #9, #10, #12, ...

........................................................................
.............................. CYCLE   28 ..............................
........................................................................
   1   -126.8885429 -0.126889E+03  0.638E-02    2.43       0.0  T
   2   -126.8885553 -0.124550E-04  0.362E-02    2.41       1.0  T
   3   -126.8885507  0.458911E-05  0.138E-02    2.42       1.0  T
   4   -126.8885580 -0.731555E-05  0.385E-03    2.41       3.1  T
   5   -126.8885584 -0.351173E-06  0.235E-03    2.41       5.0  T
   6   -126.8885585 -0.147220E-06  0.115E-03    2.41      10.2  T
   7   -126.8885585 -0.127897E-07  0.806E-04    2.41      14.6  T
   8   -126.8885586 -0.696680E-08  0.575E-04    2.41      20.5  T
     SCC iter.                  ...        0 min,  0.202 sec
     gradient                   ...        0 min,  0.121 sec
 * total energy  :  -124.9657022 Eh     change       -0.1796403E-03 Eh
   gradient norm :     0.0093609 Eh/α   predicted    -0.2113090E-03 (  17.63%)
   displ. norm   :     0.3875654 α      lambda       -0.2254675E-03
   maximum displ.:     0.2190892 α      in ANC's #9, #10, #7, ...

........................................................................
.............................. CYCLE   29 ..............................
........................................................................
   1   -126.8860896 -0.126886E+03  0.673E-02    2.35       0.0  T
   2   -126.8860959 -0.628185E-05  0.390E-02    2.37       1.0  T
   3   -126.8860831  0.127969E-04  0.153E-02    2.36       1.0  T
   4   -126.8860994 -0.163181E-04  0.376E-03    2.37       3.1  T
   5   -126.8860996 -0.165215E-06  0.241E-03    2.37       4.9  T
   6   -126.8860996 -0.803635E-07  0.157E-03    2.37       7.5  T
   7   -126.8860997 -0.283378E-07  0.115E-03    2.37      10.3  T
   8   -126.8860997 -0.128959E-07  0.701E-04    2.37      16.8  T
   9   -126.8860997 -0.875764E-08  0.341E-04    2.37      34.6  T
     SCC iter.                  ...        0 min,  0.226 sec
     gradient                   ...        0 min,  0.103 sec
 * total energy  :  -124.9658610 Eh     change       -0.1588384E-03 Eh
   gradient norm :     0.0070156 Eh/α   predicted    -0.1297088E-03 ( -18.34%)
   displ. norm   :     0.2829653 α      lambda       -0.2010063E-03
   maximum displ.:     0.1695845 α      in ANC's #9, #10, #7, ...

........................................................................
.............................. CYCLE   30 ..............................
........................................................................
   1   -126.8867269 -0.126887E+03  0.486E-02    2.36       0.0  T
   2   -126.8867316 -0.469442E-05  0.283E-02    2.36       1.0  T
   3   -126.8867273  0.432290E-05  0.982E-03    2.36       1.2  T
   4   -126.8867328 -0.557244E-05  0.300E-03    2.36       3.9  T
   5   -126.8867331 -0.299536E-06  0.170E-03    2.36       6.9  T
   6   -126.8867332 -0.466045E-07  0.103E-03    2.36      11.4  T
   7   -126.8867332 -0.882874E-08  0.715E-04    2.36      16.5  T
   8   -126.8867332 -0.205944E-08  0.451E-04    2.36      26.2  T
     SCC iter.                  ...        0 min,  0.204 sec
     gradient                   ...        0 min,  0.119 sec
 * total energy  :  -124.9660032 Eh     change       -0.1421821E-03 Eh
   gradient norm :     0.0080933 Eh/α   predicted    -0.1085559E-03 ( -23.65%)
   displ. norm   :     0.3277631 α      lambda       -0.1724742E-03
   maximum displ.:     0.1975936 α      in ANC's #9, #7, #10, ...

........................................................................
.............................. CYCLE   31 ..............................
........................................................................
   1   -126.8869811 -0.126887E+03  0.533E-02    2.37       0.0  T
   2   -126.8869855 -0.438037E-05  0.304E-02    2.36       1.0  T
   3   -126.8869814  0.404149E-05  0.951E-03    2.36       1.2  T
   4   -126.8869865 -0.507889E-05  0.301E-03    2.36       3.9  T
   5   -126.8869868 -0.259694E-06  0.168E-03    2.36       7.0  T
   6   -126.8869868 -0.241134E-07  0.109E-03    2.36      10.8  T
   7   -126.8869868 -0.138990E-07  0.785E-04    2.36      15.0  T
   8   -126.8869868 -0.403752E-08  0.444E-04    2.36      26.5  T
     SCC iter.                  ...        0 min,  0.209 sec
     gradient                   ...        0 min,  0.130 sec
 * total energy  :  -124.9661330 Eh     change       -0.1297793E-03 Eh
   gradient norm :     0.0057559 Eh/α   predicted    -0.9550233E-04 ( -26.41%)
   displ. norm   :     0.3679591 α      lambda       -0.1648843E-03
   maximum displ.:     0.2253215 α      in ANC's #9, #7, #4, ...

........................................................................
.............................. CYCLE   32 ..............................
........................................................................
   1   -126.8878005 -0.126888E+03  0.596E-02    2.38       0.0  T
   2   -126.8878041 -0.356185E-05  0.341E-02    2.37       1.0  T
   3   -126.8877992  0.487030E-05  0.102E-02    2.37       1.2  T
   4   -126.8878055 -0.627977E-05  0.326E-03    2.37       3.6  T
   5   -126.8878057 -0.155887E-06  0.203E-03    2.37       5.8  T
   6   -126.8878057 -0.668058E-07  0.125E-03    2.37       9.4  T
   7   -126.8878057 -0.994967E-08  0.923E-04    2.37      12.8  T
   8   -126.8878057 -0.766939E-08  0.441E-04    2.37      26.7  T
     SCC iter.                  ...        0 min,  0.204 sec
     gradient                   ...        0 min,  0.140 sec
 * total energy  :  -124.9662588 Eh     change       -0.1257670E-03 Eh
   gradient norm :     0.0040114 Eh/α   predicted    -0.9360772E-04 ( -25.57%)
   displ. norm   :     0.5379307 α      lambda       -0.1804734E-03
   maximum displ.:     0.3267379 α      in ANC's #9, #7, #4, ...

........................................................................
.............................. CYCLE   33 ..............................
........................................................................
   1   -126.8852215 -0.126885E+03  0.846E-02    2.33       0.0  T
   2   -126.8852308 -0.924831E-05  0.481E-02    2.33       1.0  T
   3   -126.8852150  0.157543E-04  0.177E-02    2.33       1.0  T
   4   -126.8852352 -0.202161E-04  0.490E-03    2.33       2.4  T
   5   -126.8852356 -0.396710E-06  0.300E-03    2.33       3.9  T
   6   -126.8852357 -0.907446E-07  0.196E-03    2.33       6.0  T
   7   -126.8852358 -0.373026E-07  0.141E-03    2.33       8.4  T
   8   -126.8852358 -0.156296E-07  0.781E-04    2.33      15.1  T
   9   -126.8852358 -0.137538E-07  0.316E-04    2.33      37.3  T
     SCC iter.                  ...        0 min,  0.227 sec
     gradient                   ...        0 min,  0.123 sec
 * total energy  :  -124.9663704 Eh     change       -0.1116803E-03 Eh
   gradient norm :     0.0074162 Eh/α   predicted    -0.1163499E-03 (   4.18%)
   displ. norm   :     0.3842244 α      lambda       -0.2715177E-03
   maximum displ.:     0.1795829 α      in ANC's #9, #4, #7, ...

........................................................................
.............................. CYCLE   34 ..............................
........................................................................
   1   -126.8894003 -0.126889E+03  0.769E-02    2.39       0.0  T
   2   -126.8894076 -0.724430E-05  0.449E-02    2.37       1.0  T
   3   -126.8893995  0.808452E-05  0.137E-02    2.38       1.0  T
   4   -126.8894100 -0.104838E-04  0.425E-03    2.37       2.8  T
   5   -126.8894103 -0.355274E-06  0.288E-03    2.37       4.1  T
   6   -126.8894105 -0.122974E-06  0.179E-03    2.37       6.6  T
   7   -126.8894105 -0.173421E-07  0.133E-03    2.37       8.9  T
   8   -126.8894105 -0.220203E-07  0.609E-04    2.37      19.3  T
   9   -126.8894105 -0.976603E-08  0.289E-04    2.37      40.8  T
     SCC iter.                  ...        0 min,  0.229 sec
     gradient                   ...        0 min,  0.131 sec
 * total energy  :  -124.9665127 Eh     change       -0.1422458E-03 Eh
   gradient norm :     0.0065874 Eh/α   predicted    -0.1558010E-03 (   9.53%)
   displ. norm   :     0.3663966 α      lambda       -0.1583150E-03
   maximum displ.:     0.2028947 α      in ANC's #9, #4, #7, ...

........................................................................
.............................. CYCLE   35 ..............................
........................................................................
   1   -126.8876992 -0.126888E+03  0.627E-02    2.34       0.0  T
   2   -126.8877020 -0.273966E-05  0.361E-02    2.35       1.0  T
   3   -126.8876948  0.720244E-05  0.110E-02    2.35       1.1  T
   4   -126.8877037 -0.895436E-05  0.329E-03    2.35       3.6  T
   5   -126.8877038 -0.866583E-07  0.203E-03    2.35       5.8  T
   6   -126.8877039 -0.577668E-07  0.138E-03    2.35       8.5  T
   7   -126.8877039 -0.122693E-07  0.952E-04    2.35      12.4  T
   8   -126.8877039 -0.943847E-08  0.416E-04    2.35      28.3  T
     SCC iter.                  ...        0 min,  0.204 sec
     gradient                   ...        0 min,  0.129 sec
 * total energy  :  -124.9666472 Eh     change       -0.1344677E-03 Eh
   gradient norm :     0.0049730 Eh/α   predicted    -0.8978585E-04 ( -33.23%)
   displ. norm   :     0.4484868 α      lambda       -0.3055944E-03
   maximum displ.:     0.2149033 α      in ANC's #4, #9, #7, ...

........................................................................
.............................. CYCLE   36 ..............................
........................................................................
   1   -126.8874790 -0.126887E+03  0.885E-02    2.32       0.0  T
   2   -126.8874834 -0.443999E-05  0.516E-02    2.32       1.0  T
   3   -126.8874711  0.123326E-04  0.139E-02    2.33       1.0  T
   4   -126.8874861 -0.149531E-04  0.410E-03    2.33       2.9  T
   5   -126.8874863 -0.191450E-06  0.258E-03    2.33       4.6  T
   6   -126.8874863 -0.837180E-07  0.178E-03    2.32       6.6  T
   7   -126.8874864 -0.212496E-07  0.123E-03    2.32       9.6  T
   8   -126.8874864 -0.172126E-07  0.584E-04    2.32      20.2  T
   9   -126.8874864 -0.824645E-08  0.291E-04    2.32      40.5  T
     SCC iter.                  ...        0 min,  0.226 sec
     gradient                   ...        0 min,  0.134 sec
 * total energy  :  -124.9668575 Eh     change       -0.2102989E-03 Eh
   gradient norm :     0.0085193 Eh/α   predicted    -0.1835335E-03 ( -12.73%)
   displ. norm   :     0.4617809 α      lambda       -0.1771616E-03
   maximum displ.:     0.2204863 α      in ANC's #4, #9, #7, ...

........................................................................
.............................. CYCLE   37 ..............................
........................................................................
   1   -126.8846746 -0.126885E+03  0.858E-02    2.33       0.0  T
   2   -126.8846804 -0.577909E-05  0.494E-02    2.32       1.0  T
   3   -126.8846721  0.821988E-05  0.124E-02    2.32       1.0  T
   4   -126.8846823 -0.101189E-04  0.414E-03    2.32       2.8  T
   5   -126.8846826 -0.379247E-06  0.242E-03    2.32       4.9  T
   6   -126.8846827 -0.427798E-07  0.165E-03    2.32       7.1  T
   7   -126.8846827 -0.305994E-07  0.116E-03    2.32      10.2  T
   8   -126.8846827 -0.828810E-08  0.570E-04    2.32      20.7  T
   9   -126.8846827 -0.885908E-08  0.247E-04    2.32      47.7  T
     SCC iter.                  ...        0 min,  0.226 sec
     gradient                   ...        0 min,  0.119 sec
 * total energy  :  -124.9669837 Eh     change       -0.1262853E-03 Eh
   gradient norm :     0.0082263 Eh/α   predicted    -0.1074711E-03 ( -14.90%)
   displ. norm   :     0.3063224 α      lambda       -0.1647211E-03
   maximum displ.:     0.1468306 α      in ANC's #4, #14, #2, ...

........................................................................
.............................. CYCLE   38 ..............................
........................................................................
   1   -126.8874335 -0.126887E+03  0.588E-02    2.36       0.0  T
   2   -126.8874388 -0.521652E-05  0.342E-02    2.35       1.0  T
   3   -126.8874327  0.603709E-05  0.113E-02    2.35       1.0  T
   4   -126.8874402 -0.752402E-05  0.299E-03    2.35       3.9  T
   5   -126.8874406 -0.314437E-06  0.172E-03    2.35       6.9  T
   6   -126.8874406 -0.424182E-07  0.102E-03    2.35      11.5  T
   7   -126.8874406 -0.800158E-08  0.741E-04    2.35      15.9  T
   8   -126.8874406 -0.302295E-08  0.437E-04    2.35      27.0  T
     SCC iter.                  ...        0 min,  0.201 sec
     gradient                   ...        0 min,  0.133 sec
 * total energy  :  -124.9670685 Eh     change       -0.8480001E-04 Eh
   gradient norm :     0.0045497 Eh/α   predicted    -0.9008992E-04 (   6.24%)
   displ. norm   :     0.4104284 α      lambda       -0.1187402E-03
   maximum displ.:     0.2258701 α      in ANC's #9, #4, #7, ...

........................................................................
.............................. CYCLE   39 ..............................
........................................................................
   1   -126.8847837 -0.126885E+03  0.690E-02    2.32       0.0  T
   2   -126.8847894 -0.566460E-05  0.390E-02    2.32       1.0  T
   3   -126.8847823  0.703138E-05  0.124E-02    2.32       1.0  T
   4   -126.8847913 -0.902162E-05  0.407E-03    2.32       2.9  T
   5   -126.8847917 -0.320376E-06  0.249E-03    2.32       4.7  T
   6   -126.8847917 -0.631333E-07  0.159E-03    2.32       7.4  T
   7   -126.8847918 -0.203732E-07  0.110E-03    2.32      10.7  T
   8   -126.8847918 -0.702482E-08  0.525E-04    2.32      22.4  T
   9   -126.8847918 -0.793140E-08  0.204E-04    2.32      57.7  T
     SCC iter.                  ...        0 min,  0.224 sec
     gradient                   ...        0 min,  0.138 sec
 * total energy  :  -124.9671413 Eh     change       -0.7277938E-04 Eh
   gradient norm :     0.0058292 Eh/α   predicted    -0.6937242E-04 (  -4.68%)
   displ. norm   :     0.1693365 α      lambda       -0.8923743E-04
   maximum displ.:     0.0889511 α      in ANC's #9, #4, #7, ...

........................................................................
.............................. CYCLE   40 ..............................
........................................................................
   1   -126.8867722 -0.126887E+03  0.301E-02    2.33       0.0  T
   2   -126.8867741 -0.194173E-05  0.173E-02    2.32       1.0  T
   3   -126.8867719  0.222998E-05  0.708E-03    2.33       1.7  T
   4   -126.8867748 -0.290843E-05  0.213E-03    2.32       5.5  T
   5   -126.8867749 -0.144275E-06  0.127E-03    2.32       9.3  T
   6   -126.8867750 -0.154896E-07  0.813E-04    2.32      14.5  T
   7   -126.8867750 -0.466839E-08  0.588E-04    2.32      20.1  T
     SCC iter.                  ...        0 min,  0.182 sec
     gradient                   ...        0 min,  0.113 sec
 * total energy  :  -124.9672081 Eh     change       -0.6674164E-04 Eh
   gradient norm :     0.0049738 Eh/α   predicted    -0.4589949E-04 ( -31.23%)
   displ. norm   :     0.3086103 α      lambda       -0.1113384E-03
   maximum displ.:     0.1680791 α      in ANC's #4, #9, #7, ...

........................................................................
.............................. CYCLE   41 ..............................
........................................................................
   1   -126.8884434 -0.126888E+03  0.535E-02    2.34       0.0  T
   2   -126.8884462 -0.278341E-05  0.306E-02    2.33       1.0  T
   3   -126.8884400  0.621585E-05  0.107E-02    2.33       1.1  T
   4   -126.8884477 -0.771826E-05  0.344E-03    2.33       3.4  T
   5   -126.8884479 -0.171341E-06  0.221E-03    2.33       5.3  T
   6   -126.8884479 -0.628128E-07  0.137E-03    2.33       8.6  T
   7   -126.8884479 -0.690507E-08  0.875E-04    2.33      13.5  T
   8   -126.8884479 -0.108847E-07  0.312E-04    2.33      37.7  T
     SCC iter.                  ...        0 min,  0.204 sec
     gradient                   ...        0 min,  0.148 sec
 * total energy  :  -124.9672894 Eh     change       -0.8134491E-04 Eh
   gradient norm :     0.0044309 Eh/α   predicted    -0.6097622E-04 ( -25.04%)
   displ. norm   :     0.3754648 α      lambda       -0.9524752E-04
   maximum displ.:     0.2062875 α      in ANC's #4, #9, #2, ...

........................................................................
.............................. CYCLE   42 ..............................
........................................................................
   1   -126.8884484 -0.126888E+03  0.642E-02    2.34       0.0  T
   2   -126.8884514 -0.291603E-05  0.366E-02    2.33       1.0  T
   3   -126.8884439  0.745726E-05  0.114E-02    2.33       1.0  T
   4   -126.8884530 -0.913384E-05  0.369E-03    2.33       3.2  T
   5   -126.8884532 -0.156138E-06  0.228E-03    2.33       5.2  T
   6   -126.8884533 -0.630724E-07  0.148E-03    2.33       8.0  T
   7   -126.8884533 -0.777177E-08  0.998E-04    2.33      11.8  T
   8   -126.8884533 -0.139983E-07  0.363E-04    2.33      32.5  T
     SCC iter.                  ...        0 min,  0.205 sec
     gradient                   ...        0 min,  0.137 sec
 * total energy  :  -124.9673635 Eh     change       -0.7404998E-04 Eh
   gradient norm :     0.0048185 Eh/α   predicted    -0.5433885E-04 ( -26.62%)
   displ. norm   :     0.3732497 α      lambda       -0.9943038E-04
   maximum displ.:     0.2064255 α      in ANC's #4, #9, #2, ...
 * RMSD in coord.:     0.7505179 α      energy gain  -0.3123129E-02 Eh

generating ANC from model Hessian ...
Using Lindh-Hessian (1995)
 Shifting diagonal of input Hessian by    9.8760040745898819E-003
 Lowest  eigenvalues of input Hessian
    0.000000    0.000000    0.000000    0.000000    0.000000    0.000000
    0.010000    0.010091    0.010192    0.010211    0.010430    0.010450
    0.010674    0.010716    0.010777    0.011421    0.011549    0.011973
 Highest eigenvalues
    2.036620    2.125568    2.127462    2.342030    2.349831    2.394904


........................................................................
.............................. CYCLE   43 ..............................
........................................................................
   1   -126.8899068 -0.126890E+03  0.636E-02    2.34       0.0  T
   2   -126.8899091 -0.233552E-05  0.361E-02    2.33       1.0  T
   3   -126.8899018  0.727613E-05  0.112E-02    2.34       1.1  T
   4   -126.8899107 -0.890883E-05  0.360E-03    2.33       3.3  T
   5   -126.8899108 -0.754555E-07  0.206E-03    2.33       5.7  T
   6   -126.8899109 -0.533834E-07  0.146E-03    2.33       8.0  T
   7   -126.8899109 -0.110806E-07  0.989E-04    2.33      11.9  T
   8   -126.8899109 -0.117514E-07  0.415E-04    2.33      28.4  T
     SCC iter.                  ...        0 min,  0.201 sec
     gradient                   ...        0 min,  0.141 sec
 * total energy  :  -124.9674369 Eh     change       -0.7340096E-04 Eh
   gradient norm :     0.0040411 Eh/α   predicted     0.0000000E+00 (-100.00%)
   displ. norm   :     0.0340491 α      lambda       -0.3832094E-04
   maximum displ.:     0.0204387 α      in ANC's #2, #6, #21, ...

........................................................................
.............................. CYCLE   44 ..............................
........................................................................
   1   -126.8895714 -0.126890E+03  0.100E-02    2.34       0.0  T
   2   -126.8895716 -0.200312E-06  0.578E-03    2.34       2.0  T
   3   -126.8895714  0.249087E-06  0.239E-03    2.34       4.9  T
   4   -126.8895717 -0.327837E-06  0.671E-04    2.34      17.6  T
   5   -126.8895717 -0.775105E-08  0.401E-04    2.34      29.4  T
     SCC iter.                  ...        0 min,  0.131 sec
     gradient                   ...        0 min,  0.141 sec
 * total energy  :  -124.9674649 Eh     change       -0.2803778E-04 Eh
   gradient norm :     0.0015940 Eh/α   predicted    -0.1919256E-04 ( -31.55%)
   displ. norm   :     0.1003023 α      lambda       -0.3467081E-04
   maximum displ.:     0.0647159 α      in ANC's #2, #6, #21, ...

........................................................................
.............................. CYCLE   45 ..............................
........................................................................
   1   -126.8889996 -0.126889E+03  0.210E-02    2.33       0.0  T
   2   -126.8890002 -0.556129E-06  0.123E-02    2.34       1.0  T
   3   -126.8889991  0.110433E-05  0.461E-03    2.34       2.6  T
   4   -126.8890004 -0.136821E-05  0.114E-03    2.34      10.3  T
   5   -126.8890005 -0.313249E-07  0.733E-04    2.34      16.1  T
   6   -126.8890005 -0.615370E-08  0.465E-04    2.34      25.3  T
     SCC iter.                  ...        0 min,  0.151 sec
     gradient                   ...        0 min,  0.135 sec
 * total energy  :  -124.9674933 Eh     change       -0.2841395E-04 Eh
   gradient norm :     0.0029458 Eh/α   predicted    -0.1743826E-04 ( -38.63%)
   displ. norm   :     0.0449306 α      lambda       -0.1550046E-04
   maximum displ.:     0.0310850 α      in ANC's #2, #6, #5, ...

........................................................................
.............................. CYCLE   46 ..............................
........................................................................
   1   -126.8890199 -0.126889E+03  0.801E-03    2.33       0.0  T
   2   -126.8890200 -0.770959E-07  0.465E-03    2.34       2.5  T
   3   -126.8890199  0.907187E-07  0.132E-03    2.34       9.0  T
   4   -126.8890200 -0.108211E-06  0.413E-04    2.34      28.6  T
   5   -126.8890200 -0.569706E-08  0.227E-04    2.34      51.9  T
     SCC iter.                  ...        0 min,  0.127 sec
     gradient                   ...        0 min,  0.116 sec
 * total energy  :  -124.9675073 Eh     change       -0.1401714E-04 Eh
   gradient norm :     0.0022216 Eh/α   predicted    -0.7772574E-05 ( -44.55%)
   displ. norm   :     0.1085631 α      lambda       -0.3486476E-04
   maximum displ.:     0.0715749 α      in ANC's #2, #6, #5, ...

........................................................................
.............................. CYCLE   47 ..............................
........................................................................
   1   -126.8890632 -0.126889E+03  0.197E-02    2.33       0.0  T
   2   -126.8890635 -0.334058E-06  0.114E-02    2.33       1.0  T
   3   -126.8890630  0.519956E-06  0.296E-03    2.33       4.0  T
   4   -126.8890636 -0.623102E-06  0.916E-04    2.33      12.9  T
   5   -126.8890636 -0.212073E-07  0.481E-04    2.33      24.5  T
     SCC iter.                  ...        0 min,  0.127 sec
     gradient                   ...        0 min,  0.124 sec
 * total energy  :  -124.9675356 Eh     change       -0.2825115E-04 Eh
   gradient norm :     0.0011185 Eh/α   predicted    -0.1768796E-04 ( -37.39%)
   displ. norm   :     0.2207274 α      lambda       -0.3310831E-04
   maximum displ.:     0.1445602 α      in ANC's #2, #6, #5, ...

........................................................................
.............................. CYCLE   48 ..............................
........................................................................
   1   -126.8888417 -0.126889E+03  0.391E-02    2.32       0.0  T
   2   -126.8888425 -0.806337E-06  0.226E-02    2.33       1.0  T
   3   -126.8888403  0.221064E-05  0.580E-03    2.33       2.0  T
   4   -126.8888430 -0.262512E-05  0.159E-03    2.33       7.4  T
   5   -126.8888430 -0.359608E-07  0.828E-04    2.33      14.2  T
   6   -126.8888430 -0.692187E-08  0.531E-04    2.33      22.2  T
     SCC iter.                  ...        0 min,  0.151 sec
     gradient                   ...        0 min,  0.135 sec
 * total energy  :  -124.9675729 Eh     change       -0.3731645E-04 Eh
   gradient norm :     0.0027858 Eh/α   predicted    -0.1692396E-04 ( -54.65%)
   displ. norm   :     0.1240140 α      lambda       -0.2561173E-04
   maximum displ.:     0.0810601 α      in ANC's #2, #6, #5, ...

........................................................................
.............................. CYCLE   49 ..............................
........................................................................
   1   -126.8888564 -0.126889E+03  0.219E-02    2.33       0.0  T
   2   -126.8888566 -0.186382E-06  0.126E-02    2.33       1.0  T
   3   -126.8888558  0.729881E-06  0.336E-03    2.33       3.5  T
   4   -126.8888567 -0.866001E-06  0.947E-04    2.33      12.4  T
   5   -126.8888567 -0.436896E-08  0.549E-04    2.33      21.4  T
     SCC iter.                  ...        0 min,  0.151 sec
     gradient                   ...        0 min,  0.137 sec
 * total energy  :  -124.9675969 Eh     change       -0.2397001E-04 Eh
   gradient norm :     0.0026103 Eh/α   predicted    -0.1300361E-04 ( -45.75%)
   displ. norm   :     0.2004678 α      lambda       -0.4586178E-04
   maximum displ.:     0.1291275 α      in ANC's #2, #6, #5, ...

........................................................................
.............................. CYCLE   50 ..............................
........................................................................
   1   -126.8889401 -0.126889E+03  0.351E-02    2.33       0.0  T
   2   -126.8889406 -0.509703E-06  0.202E-02    2.33       1.0  T
   3   -126.8889390  0.161121E-05  0.505E-03    2.33       2.3  T
   4   -126.8889409 -0.192377E-05  0.149E-03    2.33       7.9  T
   5   -126.8889409 -0.157408E-07  0.856E-04    2.33      13.8  T
   6   -126.8889409 -0.835884E-08  0.621E-04    2.33      19.0  T
     SCC iter.                  ...        0 min,  0.150 sec
     gradient                   ...        0 min,  0.127 sec
 * total energy  :  -124.9676375 Eh     change       -0.4066744E-04 Eh
   gradient norm :     0.0015880 Eh/α   predicted    -0.2385337E-04 ( -41.35%)
   displ. norm   :     0.4264656 α      lambda       -0.5525820E-04
   maximum displ.:     0.2744617 α      in ANC's #2, #6, #5, ...

........................................................................
.............................. CYCLE   51 ..............................
........................................................................
   1   -126.8884714 -0.126888E+03  0.739E-02    2.34       0.0  T
   2   -126.8884734 -0.203376E-05  0.424E-02    2.34       1.0  T
   3   -126.8884680  0.537966E-05  0.954E-03    2.34       1.2  T
   4   -126.8884745 -0.647257E-05  0.319E-03    2.34       3.7  T
   5   -126.8884746 -0.915211E-07  0.179E-03    2.34       6.6  T
   6   -126.8884747 -0.391935E-07  0.131E-03    2.34       9.0  T
   7   -126.8884747 -0.130588E-07  0.101E-03    2.34      11.7  T
   8   -126.8884747 -0.119828E-07  0.502E-04    2.34      23.5  T
   9   -126.8884747 -0.671282E-08  0.189E-04    2.34      62.5  T
     SCC iter.                  ...        0 min,  0.225 sec
     gradient                   ...        0 min,  0.140 sec
 * total energy  :  -124.9676987 Eh     change       -0.6118470E-04 Eh
   gradient norm :     0.0017487 Eh/α   predicted    -0.2987153E-04 ( -51.18%)
   displ. norm   :     0.2833406 α      lambda       -0.2789137E-04
   maximum displ.:     0.1854925 α      in ANC's #2, #6, #5, ...

........................................................................
.............................. CYCLE   52 ..............................
........................................................................
   1   -126.8889773 -0.126889E+03  0.476E-02    2.34       0.0  T
   2   -126.8889779 -0.587054E-06  0.274E-02    2.34       1.0  T
   3   -126.8889766  0.128857E-05  0.497E-03    2.34       2.4  T
   4   -126.8889782 -0.159025E-05  0.193E-03    2.34       6.1  T
   5   -126.8889783 -0.409842E-07  0.100E-03    2.34      11.8  T
   6   -126.8889783 -0.115413E-07  0.755E-04    2.34      15.6  T
   7   -126.8889783 -0.305185E-08  0.552E-04    2.34      21.3  T
     SCC iter.                  ...        0 min,  0.181 sec
     gradient                   ...        0 min,  0.117 sec
 * total energy  :  -124.9677348 Eh     change       -0.3610942E-04 Eh
   gradient norm :     0.0018304 Eh/α   predicted    -0.1444366E-04 ( -60.00%)
   displ. norm   :     0.2752521 α      lambda       -0.3244588E-04
   maximum displ.:     0.1811712 α      in ANC's #2, #6, #5, ...

........................................................................
.............................. CYCLE   53 ..............................
........................................................................
   1   -126.8897765 -0.126890E+03  0.458E-02    2.34       0.0  T
   2   -126.8897769 -0.436636E-06  0.263E-02    2.34       1.0  T
   3   -126.8897764  0.568592E-06  0.394E-03    2.34       3.0  T
   4   -126.8897771 -0.762128E-06  0.192E-03    2.34       6.1  T
   5   -126.8897772 -0.489144E-07  0.102E-03    2.34      11.6  T
   6   -126.8897772 -0.170292E-07  0.770E-04    2.34      15.3  T
   7   -126.8897772 -0.149073E-08  0.532E-04    2.34      22.1  T
     SCC iter.                  ...        0 min,  0.187 sec
     gradient                   ...        0 min,  0.149 sec
 * total energy  :  -124.9677783 Eh     change       -0.4352292E-04 Eh
   gradient norm :     0.0013248 Eh/α   predicted    -0.1676957E-04 ( -61.47%)
   displ. norm   :     0.4065351 α      lambda       -0.4878411E-04
   maximum displ.:     0.2668115 α      in ANC's #2, #6, #5, ...

........................................................................
.............................. CYCLE   54 ..............................
........................................................................
   1   -126.8894712 -0.126889E+03  0.674E-02    2.33       0.0  T
   2   -126.8894721 -0.985460E-06  0.389E-02    2.33       1.0  T
   3   -126.8894710  0.110143E-05  0.547E-03    2.33       2.2  T
   4   -126.8894725 -0.150093E-05  0.261E-03    2.33       4.5  T
   5   -126.8894726 -0.834498E-07  0.152E-03    2.33       7.7  T
   6   -126.8894727 -0.444643E-07  0.109E-03    2.33      10.8  T
   7   -126.8894727 -0.452310E-08  0.806E-04    2.33      14.6  T
   8   -126.8894727 -0.143328E-07  0.274E-04    2.33      43.1  T
     SCC iter.                  ...        0 min,  0.202 sec
     gradient                   ...        0 min,  0.140 sec
 * total energy  :  -124.9678398 Eh     change       -0.6146772E-04 Eh
   gradient norm :     0.0011341 Eh/α   predicted    -0.2619620E-04 ( -57.38%)
   displ. norm   :     0.4946957 α      lambda       -0.5149225E-04
   maximum displ.:     0.3252013 α      in ANC's #2, #6, #5, ...

........................................................................
.............................. CYCLE   55 ..............................
........................................................................
   1   -126.8888724 -0.126889E+03  0.845E-02    2.33       0.0  T
   2   -126.8888739 -0.152391E-05  0.486E-02    2.33       1.0  T
   3   -126.8888726  0.132527E-05  0.678E-03    2.33       1.7  T
   4   -126.8888745 -0.190090E-05  0.360E-03    2.33       3.3  T
   5   -126.8888747 -0.174549E-06  0.201E-03    2.33       5.9  T
   6   -126.8888748 -0.816511E-07  0.148E-03    2.33       8.0  T
   7   -126.8888748 -0.125648E-07  0.103E-03    2.33      11.5  T
   8   -126.8888748 -0.213359E-07  0.360E-04    2.33      32.7  T
   9   -126.8888748 -0.355553E-08  0.196E-04    2.33      60.1  T
     SCC iter.                  ...        0 min,  0.225 sec
     gradient                   ...        0 min,  0.059 sec
 * total energy  :  -124.9678990 Eh     change       -0.5921132E-04 Eh
   gradient norm :     0.0015868 Eh/α   predicted    -0.2854973E-04 ( -51.78%)
   displ. norm   :     0.4094522 α      lambda       -0.3464811E-04
   maximum displ.:     0.2720169 α      in ANC's #2, #6, #5, ...

........................................................................
.............................. CYCLE   56 ..............................
........................................................................
   1   -126.8892253 -0.126889E+03  0.707E-02    2.33       0.0  T
   2   -126.8892264 -0.102910E-05  0.410E-02    2.33       1.0  T
   3   -126.8892253  0.107473E-05  0.541E-03    2.33       2.2  T
   4   -126.8892268 -0.149783E-05  0.261E-03    2.33       4.5  T
   5   -126.8892269 -0.744714E-07  0.161E-03    2.33       7.3  T
   6   -126.8892269 -0.474514E-07  0.114E-03    2.33      10.3  T
   7   -126.8892269 -0.733885E-08  0.839E-04    2.33      14.1  T
   8   -126.8892269 -0.133210E-07  0.297E-04    2.33      39.7  T
     SCC iter.                  ...        0 min,  0.197 sec
     gradient                   ...        0 min,  0.121 sec
 * total energy  :  -124.9679386 Eh     change       -0.3956363E-04 Eh
   gradient norm :     0.0012107 Eh/α   predicted    -0.1861516E-04 ( -52.95%)
   displ. norm   :     0.3089216 α      lambda       -0.2243165E-04
   maximum displ.:     0.2060763 α      in ANC's #2, #6, #8, ...

........................................................................
.............................. CYCLE   57 ..............................
........................................................................
   1   -126.8892701 -0.126889E+03  0.557E-02    2.32       0.0  T
   2   -126.8892707 -0.562453E-06  0.322E-02    2.32       1.0  T
   3   -126.8892701  0.534360E-06  0.406E-03    2.32       2.9  T
   4   -126.8892709 -0.766301E-06  0.214E-03    2.32       5.5  T
   5   -126.8892709 -0.523468E-07  0.126E-03    2.32       9.3  T
   6   -126.8892710 -0.337199E-07  0.912E-04    2.32      12.9  T
   7   -126.8892710 -0.494218E-08  0.612E-04    2.32      19.3  T
     SCC iter.                  ...        0 min,  0.181 sec
     gradient                   ...        0 min,  0.134 sec
 * total energy  :  -124.9679664 Eh     change       -0.2782390E-04 Eh
   gradient norm :     0.0009434 Eh/α   predicted    -0.1169189E-04 ( -57.98%)
   displ. norm   :     0.2800280 α      lambda       -0.2345380E-04
   maximum displ.:     0.1859811 α      in ANC's #2, #6, #8, ...

........................................................................
.............................. CYCLE   58 ..............................
........................................................................
   1   -126.8897842 -0.126890E+03  0.529E-02    2.32       0.0  T
   2   -126.8897848 -0.558137E-06  0.306E-02    2.32       1.0  T
   3   -126.8897843  0.509643E-06  0.391E-03    2.32       3.0  T
[...]
       105        2.0000           -0.4114801             -11.1969
       106        2.0000           -0.4104748             -11.1696
       107        2.0000           -0.4083582             -11.1120
       108        2.0000           -0.4063808             -11.0582
       109        2.0000           -0.4047967             -11.0151
       110        2.0000           -0.3986141             -10.8468
       111        2.0000           -0.3952304             -10.7548
       112        2.0000           -0.3804019             -10.3513
       113        2.0000           -0.3752252             -10.2104 (HOMO)
       114                         -0.2905139              -7.9053 (LUMO)
       115                         -0.2650627              -7.2127
       116                         -0.2620705              -7.1313
       117                         -0.2591558              -7.0520
       118                         -0.2590235              -7.0484
       119                         -0.2575472              -7.0082
       120                         -0.2568390              -6.9889
       121                         -0.2345719              -6.3830
       122                         -0.2309530              -6.2846
       123                         -0.2277815              -6.1983
       124                         -0.2254360              -6.1344
       ...                                ...                  ...
       220                          0.7020632              19.1041
      -------------------------------------------------------------
                  HL-Gap            0.0847113 Eh            2.3051 eV
             Fermi-level           -0.3328696 Eh           -9.0578 eV

     #   Z          covCN         q      C6AA      α(0)
     1   6 C        2.919    -0.033    28.829     8.805
     2   6 C        2.917    -0.032    28.805     8.801
     3   6 C        2.987     0.015    27.667     8.628
     4   6 C        2.918    -0.034    28.850     8.808
     5   6 C        2.916    -0.028    28.707     8.786
     6   6 C        2.916    -0.028    28.702     8.785
     7   6 C        2.919    -0.034    28.840     8.806
     8   6 C        2.988     0.017    27.634     8.623
     9   6 C        2.923    -0.043    29.059     8.840
    10   6 C        2.970    -0.003    28.090     8.694
    11   6 C        3.830     0.039    19.898     6.347
    12   6 C        3.823     0.041    19.862     6.342
    13   6 C        2.969     0.006    27.895     8.663
    14   6 C        2.923    -0.034    28.837     8.806
    15   6 C        2.987     0.017    27.619     8.621
    16   6 C        2.919    -0.032    28.809     8.802
    17   6 C        2.916    -0.029    28.717     8.788
    18   6 C        2.916    -0.029    28.725     8.789
    19   6 C        2.918    -0.034    28.857     8.809
    20   6 C        2.987     0.014    27.704     8.634
    21   6 C        2.917    -0.035    28.872     8.811
    22   6 C        2.919    -0.037    28.920     8.819
    23   7 N        2.769    -0.108    23.361     7.179
    24   6 C        2.766     0.277    22.319     7.737
    25   6 C        3.046    -0.026    28.614     8.773
    26   6 C        2.920     0.079    26.235     8.399
    27  35 Br       1.078    -0.150   189.199    22.178
    28   6 C        2.999    -0.027    28.653     8.781
    29   6 C        2.923    -0.021    28.536     8.760
    30   6 C        2.918    -0.027    28.672     8.781
    31   6 C        2.927    -0.026    28.640     8.776
    32   8 O        0.859    -0.411    21.899     6.274
    33   6 C        3.751     0.094    19.080     6.229
    34   6 C        2.687     0.353    21.003     7.500
    35   8 O        1.659    -0.355    19.997     6.037
    36   8 O        0.856    -0.401    21.699     6.245
    37   7 N        2.771    -0.104    23.272     7.165
    38   6 C        2.764     0.277    22.316     7.736
    39   6 C        3.038    -0.027    28.634     8.777
    40   6 C        2.926    -0.025    28.631     8.775
    41   6 C        2.918    -0.029    28.716     8.787
    42   6 C        2.923    -0.021    28.530     8.759
    43   6 C        2.994    -0.026    28.646     8.780
    44   6 C        2.918     0.081    26.188     8.392
    45  35 Br       1.064    -0.155   189.334    22.186
    46   8 O        0.859    -0.413    21.932     6.279
    47   1 H        0.926     0.046     2.370     2.407
    48   1 H        0.926     0.039     2.467     2.456
    49   1 H        0.926     0.033     2.540     2.492
    50   1 H        0.926     0.032     2.557     2.500
    51   1 H        0.926     0.034     2.527     2.486
    52   1 H        0.926     0.043     2.413     2.429
    53   1 H        0.926     0.041     2.432     2.439
    54   1 H        0.924     0.077     2.007     2.216
    55   1 H        0.924     0.070     2.088     2.259
    56   1 H        0.926     0.042     2.422     2.434
    57   1 H        0.926     0.036     2.497     2.471
    58   1 H        0.926     0.033     2.549     2.497
    59   1 H        0.926     0.032     2.565     2.504
    60   1 H        0.926     0.031     2.566     2.505
    61   1 H        0.926     0.033     2.548     2.496
    62   1 H        0.926     0.038     2.482     2.464
    63   1 H        0.926     0.063     2.169     2.303
    64   1 H        0.926     0.052     2.292     2.368
    65   1 H        0.926     0.047     2.352     2.399
    66   1 H        0.926     0.047     2.353     2.399
    67   1 H        0.922     0.076     2.023     2.224
    68   1 H        0.804     0.342     0.607     1.223
    69   1 H        0.926     0.051     2.307     2.375
    70   1 H        0.926     0.049     2.338     2.391
    71   1 H        0.926     0.054     2.274     2.358
    72   1 H        0.926     0.066     2.132     2.283

 Mol. C6AA /au·bohr⁶  :      85460.651854
 Mol. C8AA /au·bohr⁸  :    2389076.364971
 Mol. α(0) /au        :        466.471648


Wiberg/Mayer (AO) data.
largest (>0.10) Wiberg bond orders for each atom

 ---------------------------------------------------------------------------
     #   Z sym  total        # sym  WBO       # sym  WBO       # sym  WBO
 ---------------------------------------------------------------------------
     1   6 C    3.989 --     2 C    1.561    10 C    1.296    47 H    0.967
     2   6 C    3.991 --     1 C    1.561     3 C    1.278    48 H    0.968
                             9 C    0.115
     3   6 C    3.989 --     4 C    1.280     2 C    1.278     8 C    1.251
     4   6 C    3.992 --     5 C    1.558     3 C    1.280    49 H    0.968
                             7 C    0.119
     5   6 C    3.990 --     4 C    1.558     6 C    1.320    50 H    0.971
     6   6 C    3.992 --     7 C    1.559     5 C    1.320    51 H    0.971
     7   6 C    3.989 --     6 C    1.559     8 C    1.277    52 H    0.967
                             4 C    0.119
     8   6 C    3.990 --     9 C    1.282     7 C    1.277     3 C    1.251
     9   6 C    3.990 --    10 C    1.526     8 C    1.282    53 H    0.960
                             2 C    0.115
    10   6 C    3.983 --     9 C    1.526     1 C    1.296    11 C    0.982
    11   6 C    3.952 --    10 C    0.982    12 C    0.966    54 H    0.954
                            37 N    0.941
    12   6 C    3.957 --    13 C    0.987    11 C    0.966    55 H    0.952
                            23 N    0.946
    13   6 C    3.985 --    14 C    1.527    22 C    1.295    12 C    0.987
    14   6 C    3.989 --    13 C    1.527    15 C    1.282    56 H    0.965
                            21 C    0.114
    15   6 C    3.990 --    14 C    1.282    16 C    1.278    20 C    1.251
    16   6 C    3.989 --    17 C    1.558    15 C    1.278    57 H    0.968
                            19 C    0.118
    17   6 C    3.992 --    16 C    1.558    18 C    1.321    58 H    0.971
    18   6 C    3.990 --    19 C    1.556    17 C    1.321    59 H    0.971
    19   6 C    3.992 --    18 C    1.556    20 C    1.282    60 H    0.968
                            16 C    0.118
    20   6 C    3.990 --    19 C    1.282    21 C    1.276    15 C    1.251
    21   6 C    3.992 --    22 C    1.564    20 C    1.276    61 H    0.968
                            14 C    0.114
    22   6 C    3.991 --    21 C    1.564    13 C    1.295    62 H    0.965
    23   7 N    3.474 --    24 C    1.222    33 C    0.979    12 C    0.946
                            32 O    0.199
    24   6 C    3.952 --    32 O    1.696    23 N    1.222    25 C    0.950
    25   6 C    3.987 --    31 C    1.399    26 C    1.383    24 C    0.950
                            29 C    0.107
    26   6 C    3.943 --    28 C    1.415    25 C    1.383    27 Br   0.981
                            30 C    0.100
    27  35 Br   1.136 --    26 C    0.981
    28   6 C    3.989 --    29 C    1.438    26 C    1.415    63 H    0.967
                            31 C    0.109
    29   6 C    3.990 --    28 C    1.438    30 C    1.433    64 H    0.968
                            25 C    0.107
    30   6 C    3.991 --    31 C    1.443    29 C    1.433    65 H    0.969
                            26 C    0.100
    31   6 C    3.990 --    30 C    1.443    25 C    1.399    66 H    0.968
                            28 C    0.109
    32   8 O    2.034 --    24 C    1.696    23 N    0.199
    33   6 C    3.969 --    37 N    0.988    23 N    0.979    67 H    0.931
                            34 C    0.919
    34   6 C    3.919 --    36 O    1.765    35 O    1.156    33 C    0.919
    35   8 O    2.226 --    34 C    1.156    68 H    0.856    36 O    0.179
    36   8 O    2.048 --    34 C    1.765    35 O    0.179
    37   7 N    3.477 --    38 C    1.220    33 C    0.988    11 C    0.941
                            46 O    0.197
    38   6 C    3.951 --    46 O    1.692    37 N    1.220    39 C    0.954
    39   6 C    3.987 --    40 C    1.398    44 C    1.376    38 C    0.954
                            42 C    0.106
    40   6 C    3.989 --    41 C    1.444    39 C    1.398    69 H    0.967
                            43 C    0.108
    41   6 C    3.991 --    40 C    1.444    42 C    1.432    70 H    0.969
    42   6 C    3.990 --    43 C    1.438    41 C    1.432    71 H    0.968
                            39 C    0.106
    43   6 C    3.988 --    42 C    1.438    44 C    1.413    72 H    0.966
                            40 C    0.108
    44   6 C    3.942 --    43 C    1.413    39 C    1.376    45 Br   0.987
    45  35 Br   1.142 --    44 C    0.987
    46   8 O    2.030 --    38 C    1.692    37 N    0.197
    47   1 H    0.997 --     1 C    0.967
    48   1 H    0.997 --     2 C    0.968
    49   1 H    0.998 --     4 C    0.968
    50   1 H    0.999 --     5 C    0.971
    51   1 H    0.998 --     6 C    0.971
    52   1 H    0.998 --     7 C    0.967
    53   1 H    0.998 --     9 C    0.960
    54   1 H    0.993 --    11 C    0.954
    55   1 H    0.994 --    12 C    0.952
    56   1 H    0.998 --    14 C    0.965
    57   1 H    0.998 --    16 C    0.968
    58   1 H    0.998 --    17 C    0.971
    59   1 H    0.999 --    18 C    0.971
    60   1 H    0.999 --    19 C    0.968
    61   1 H    0.998 --    21 C    0.968
    62   1 H    0.998 --    22 C    0.965
    63   1 H    0.995 --    28 C    0.967
    64   1 H    0.997 --    29 C    0.968
    65   1 H    0.996 --    30 C    0.969
    66   1 H    0.998 --    31 C    0.968
    67   1 H    0.994 --    33 C    0.931
    68   1 H    0.883 --    35 O    0.856
    69   1 H    0.997 --    40 C    0.967
    70   1 H    0.996 --    41 C    0.969
    71   1 H    0.997 --    42 C    0.968
    72   1 H    0.995 --    43 C    0.966
 ---------------------------------------------------------------------------

Topologies differ in total number of bonds
Writing topology from bond orders to xtbtopo.mol

molecular dipole:
                 x           y           z       tot (Debye)
 q only:        0.155      -1.094      -0.921
   full:        0.425      -2.059      -1.756       6.963
molecular quadrupole (traceless):
                xx          xy          yy          xz          yz          zz
 q only:      -20.527       4.416      22.019     -11.391      14.399      -1.492
  q+dip:      -25.680       4.141      27.727     -11.028      15.981      -2.048
   full:      -21.397       2.208      27.439      -7.418      17.055      -6.043

           -------------------------------------------------
          |                Geometry Summary                 |
           -------------------------------------------------

      molecular mass/u    :      734.4325054
   center of mass at/Å    :       -0.3096633      -0.3514358       0.4366095
  moments of inertia/u·Å² :        0.7141189E+04   0.9768800E+04   0.1103126E+05
rotational constants/cm⁻¹ :        0.2360620E-02   0.1725660E-02   0.1528170E-02

 * 73 selected distances

     #   Z          #   Z                                           value/Å
     1   6 C        2   6 C                                       1.3653856
     2   6 C        3   6 C                                       1.4102613
     3   6 C        4   6 C                                       1.4100227
     4   6 C        5   6 C                                       1.3665931
     5   6 C        6   6 C                                       1.4041664
     6   6 C        7   6 C                                       1.3663029
     3   6 C        8   6 C                                       1.4182539
     7   6 C        8   6 C                                       1.4102430
     8   6 C        9   6 C                                       1.4081419
     1   6 C       10   6 C                                       1.4081434
     9   6 C       10   6 C                                       1.3709112
    11   6 C       12   6 C                                       1.5341482
    13   6 C       14   6 C                                       1.3689419
    14   6 C       15   6 C                                       1.4089138
    15   6 C       16   6 C                                       1.4104479
    16   6 C       17   6 C                                       1.3665037
    17   6 C       18   6 C                                       1.4037610
    18   6 C       19   6 C                                       1.3666331
    15   6 C       20   6 C                                       1.4189703
    19   6 C       20   6 C                                       1.4100045
    20   6 C       21   6 C                                       1.4103591
    13   6 C       22   6 C                                       1.4085235
    21   6 C       22   6 C                                       1.3650828
    12   6 C       23   7 N                                       1.4631368
    23   7 N       24   6 C                                       1.3540869
    25   6 C       26   6 C                                       1.3882032
    26   6 C       27  35 Br                                      1.8993794
    26   6 C       28   6 C                                       1.3828944
    28   6 C       29   6 C                                       1.3832712
    29   6 C       30   6 C                                       1.3850945
    25   6 C       31   6 C                                       1.3899093
    30   6 C       31   6 C                                       1.3833599
    24   6 C       32   8 O                                       1.2109129
    23   7 N       33   6 C                                       1.4484497
    34   6 C       35   8 O                                       1.3284257
    34   6 C       36   8 O                                       1.2005291
    11   6 C       37   7 N                                       1.4627780
    33   6 C       37   7 N                                       1.4403572
    37   7 N       38   6 C                                       1.3540733
    39   6 C       40   6 C                                       1.3902712
    40   6 C       41   6 C                                       1.3830605
    41   6 C       42   6 C                                       1.3852134
    42   6 C       43   6 C                                       1.3832523
    39   6 C       44   6 C                                       1.3901758
    43   6 C       44   6 C                                       1.3838289
    44   6 C       45  35 Br                                      1.9082616 (max)
    38   6 C       46   8 O                                       1.2115800
     1   6 C       47   1 H                                       1.0795241
     2   6 C       48   1 H                                       1.0803775
     4   6 C       49   1 H                                       1.0807299
     5   6 C       50   1 H                                       1.0803680
     6   6 C       51   1 H                                       1.0799128
     7   6 C       52   1 H                                       1.0806104
     9   6 C       53   1 H                                       1.0794666
    11   6 C       54   1 H                                       1.0944899
    12   6 C       55   1 H                                       1.0955811
    14   6 C       56   1 H                                       1.0801762
    16   6 C       57   1 H                                       1.0803289
    17   6 C       58   1 H                                       1.0801878
    18   6 C       59   1 H                                       1.0802755
    19   6 C       60   1 H                                       1.0809098
    21   6 C       61   1 H                                       1.0809383
    22   6 C       62   1 H                                       1.0792122
    28   6 C       63   1 H                                       1.0790361
    29   6 C       64   1 H                                       1.0790102
    30   6 C       65   1 H                                       1.0793732
    31   6 C       66   1 H                                       1.0804372
    33   6 C       67   1 H                                       1.1067642
    35   8 O       68   1 H                                       0.9712031 (min)
    40   6 C       69   1 H                                       1.0803073
    41   6 C       70   1 H                                       1.0794023
    42   6 C       71   1 H                                       1.0790472
    43   6 C       72   1 H                                       1.0786682

 * 6 distinct bonds (by element types)

   Z      Z             #   av. dist./Å        max./Å        min./Å
   1 H    6 C          25     1.0822054     1.1067642     1.0786682
   6 C    6 C          35     1.3954071     1.5341482     1.3650828
   6 C    7 N           6     1.4204803     1.4631368     1.3540733
   1 H    8 O           1     0.9712031     0.9712031     0.9712031
   6 C    8 O           4     1.2378619     1.3284257     1.2005291
   6 C   35 Br          2     1.9038205     1.9082616     1.8993794


optimized geometry written to: xtbopt.xyz


           -------------------------------------------------
          | TOTAL ENERGY             -124.969023901964 Eh   |
          | GRADIENT NORM               0.000497222270 Eh/α |
          | HOMO-LUMO GAP               2.305112932001 eV   |
           -------------------------------------------------

------------------------------------------------------------------------
 * finished run on 2022/03/17 at 02:05:44.785     
------------------------------------------------------------------------
 total:
 * wall-time:     0 d,  0 h,  0 min, 49.127 sec
 *  cpu-time:     0 d,  0 h, 15 min, 54.153 sec
 * ratio c/w:    19.422 speedup
 SCF:
 * wall-time:     0 d,  0 h,  0 min,  0.718 sec
 *  cpu-time:     0 d,  0 h,  0 min, 10.403 sec
 * ratio c/w:    14.481 speedup
 ANC optimizer:
 * wall-time:     0 d,  0 h,  0 min, 48.278 sec
 *  cpu-time:     0 d,  0 h, 15 min, 39.915 sec
 * ratio c/w:    19.469 speedup

