      -----------------------------------------------------------      
     |                   =====================                   |     
     |                           x T B                           |     
     |                   =====================                   |     
     |                         S. Grimme                         |     
     |          Mulliken Center for Theoretical Chemistry        |     
     |                    University of Bonn                     |     
      -----------------------------------------------------------      

   * xtb version 6.3.3 (4ae9cef) compiled by 'conda@95abc7406d43' on 2020-10-14

   xtb is free software: you can redistribute it and/or modify it under
   the terms of the GNU Lesser General Public License as published by
   the Free Software Foundation, either version 3 of the License, or
   (at your option) any later version.
   
   xtb is distributed in the hope that it will be useful,
   but WITHOUT ANY WARRANTY; without even the implied warranty of
   MERCHANTABILITY or FITNESS FOR A PARTICULAR PURPOSE.  See the
   GNU Lesser General Public License for more details.
   
   Cite this work as:
   * C. Bannwarth, E. Caldeweyher, S. Ehlert, A. Hansen, P. Pracht,
     J. Seibert, S. Spicher, S. Grimme, WIREs Comput. Mol. Sci., 2020,
     e01493. DOI: 10.1002/wcms.1493
   
   for GFN2-xTB:
   * S. Grimme, C. Bannwarth, P. Shushkov, J. Chem. Theory Comput., 2017,
     13, 1989-2009. DOI: 10.1021/acs.jctc.7b00118
   for GFN1-xTB:
   * C. Bannwarth, S. Ehlert and S. Grimme., J. Chem. Theory Comput., 2019,
     15, 1652-1671. DOI: 10.1021/acs.jctc.8b01176
   for GFN0-xTB:
   * P. Pracht, E. Caldeweyher, S. Ehlert, S. Grimme, ChemRxiv, 2019, preprint.
     DOI: 10.26434/chemrxiv.8326202.v1
   for GFN-FF:
   * S. Spicher and S. Grimme, Angew. Chem. Int. Ed., 2020, 59, 15665-15673.
     DOI: 10.1002/anie.202004239
   
   for DFT-D4:
   * E. Caldeweyher, C. Bannwarth and S. Grimme, J. Chem. Phys., 2017,
     147, 034112. DOI: 10.1063/1.4993215
   * E. Caldeweyher, S. Ehlert, A. Hansen, H. Neugebauer, S. Spicher,
     C. Bannwarth and S. Grimme, J. Chem. Phys., 2019, 150, 154122.
     DOI: 10.1063/1.5090222
   * E. Caldeweyher, J.-M. Mewes, S. Ehlert and S. Grimme, Phys. Chem. Chem. Phys.
     2020, 22, 8499-8512. DOI: 10.1039/D0CP00502A
   
   for sTDA-xTB:
   * S. Grimme and C. Bannwarth, J. Chem. Phys., 2016, 145, 054103.
     DOI: 10.1063/1.4959605
   
   in the mass-spec context:
   * V. Asgeirsson, C. Bauer and S. Grimme, Chem. Sci., 2017, 8, 4879.
     DOI: 10.1039/c7sc00601b
   * J. Koopman and S. Grimme, ACS Omega 2019, 4, 12, 15120-15133.
     DOI: 10.1021/acsomega.9b02011
   
   for metadynamics refer to:
   * S. Grimme, J. Chem. Theory Comput., 2019, 155, 2847-2862
     DOI: 10.1021/acs.jctc.9b00143
   
   with help from (in alphabetical order)
   C. Bannwarth, F. Bohle, G. Brandenburg, E. Caldeweyher, M. Checinski,
   S. Dohm, S. Ehlert, S. Ehrlich, F. März, H. Neugebauer, J. Pisarek,
   P. Pracht, P. Shushkov, and S. Spicher.
   
 * started run on 2022/03/17 at 00:31:54.470     

           -------------------------------------------------
          |                Calculation Setup                |
           -------------------------------------------------

          program call               : xtb acid_382.xyz --opt --chrg 0 --uhf 0 --gfn 2
          coordinate file            : acid_382.xyz
          omp threads                :                    64
          number of atoms            :                    72
          number of electrons        :                   254
          charge                     :                     0
          spin                       :                   0.0
          first test random number   :      0.05275259710271

   ID    Z sym.   atoms
    1    6 C      1-22, 24-27, 32, 33, 35, 36, 40-43, 48, 49
    2    7 N      23, 39
    3    9 F      28-30, 44-46
    4    8 O      31, 34, 37, 38, 47, 50
    5    1 H      51-72

           -------------------------------------------------
          |                 G F N 2 - x T B                 |
           -------------------------------------------------

        Reference                      10.1021/acs.jctc.8b01176
      * Hamiltonian:
        H0-scaling (s, p, d)           1.850000    2.230000    2.230000
        zeta-weighting                 0.500000
      * Dispersion:
        s8                             2.700000
        a1                             0.520000
        a2                             5.000000
        s9                             5.000000
      * Repulsion:
        kExp                           1.500000    1.000000
        rExp                           1.000000
      * Coulomb:
        alpha                          2.000000
        third order                    shell-resolved
        anisotropic                    true
        a3                             3.000000
        a5                             4.000000
        cn-shift                       1.200000
        cn-exp                         4.000000
        max-rad                        5.000000


          ...................................................
          :                      SETUP                      :
          :.................................................:
          :  # basis functions                 222          :
          :  # atomic orbitals                 222          :
          :  # shells                          122          :
          :  # electrons                       254          :
          :  max. iterations                   250          :
          :  Hamiltonian                  GFN2-xTB          :
          :  restarted?                      false          :
          :  GBSA solvation                  false          :
          :  PC potential                    false          :
          :  electronic temp.          300.0000000     K    :
          :  accuracy                    1.0000000          :
          :  -> integral cutoff          0.2500000E+02      :
          :  -> integral neglect         0.1000000E-07      :
          :  -> SCF convergence          0.1000000E-05 Eh   :
          :  -> wf. convergence          0.1000000E-03 e    :
          :  Broyden damping             0.4000000          :
          ...................................................

 iter      E             dE          RMSdq      gap      omega  full diag
   1   -148.3828143 -0.148383E+03  0.471E+00    2.49       0.0  T
   2   -148.5915190 -0.208705E+00  0.275E+00    2.43       1.0  T
   3   -148.5841694  0.734955E-02  0.137E+00    2.17       1.0  T
   4   -148.6141366 -0.299671E-01  0.411E-01    1.75       1.0  T
   5   -148.6251204 -0.109838E-01  0.128E-01    1.76       1.0  T
   6   -148.6256357 -0.515360E-03  0.705E-02    1.79       1.0  T
   7   -148.6258627 -0.226912E-03  0.301E-02    1.80       1.0  T
   8   -148.6258881 -0.254123E-04  0.124E-02    1.81       1.0  T
   9   -148.6258918 -0.371595E-05  0.430E-03    1.81       2.7  T
  10   -148.6258920 -0.182237E-06  0.237E-03    1.81       5.0  T
  11   -148.6258921 -0.152646E-06  0.897E-04    1.81      13.1  T
  12   -148.6258921 -0.155173E-07  0.359E-04    1.81      32.8  T

   *** convergence criteria satisfied after 12 iterations ***

         #    Occupation            Energy/Eh            Energy/eV
      -------------------------------------------------------------
         1        2.0000           -0.8916498             -24.2630
       ...           ...                  ...                  ...
       121        2.0000           -0.4197145             -11.4210
       122        2.0000           -0.4169165             -11.3449
       123        2.0000           -0.4084736             -11.1151
       124        2.0000           -0.4070792             -11.0772
       125        2.0000           -0.4043605             -11.0032
       126        2.0000           -0.3870864             -10.5332
       127        2.0000           -0.3781572             -10.2902 (HOMO)
       128                         -0.3116465              -8.4803 (LUMO)
       129                         -0.2935521              -7.9880
       130                         -0.2835381              -7.7155
       131                         -0.2762059              -7.5159
       132                         -0.2719104              -7.3991
       ...                                ...                  ...
       222                          0.6728951              18.3104
      -------------------------------------------------------------
                  HL-Gap            0.0665107 Eh            1.8098 eV
             Fermi-level           -0.3449019 Eh           -9.3853 eV

 SCC (total)                   0 d,  0 h,  0 min,  0.599 sec
 SCC setup                      ...        0 min,  0.019 sec (  3.177%)
 Dispersion                     ...        0 min,  0.023 sec (  3.852%)
 classical contributions        ...        0 min,  0.009 sec (  1.486%)
 integral evaluation            ...        0 min,  0.112 sec ( 18.752%)
 iterations                     ...        0 min,  0.307 sec ( 51.264%)
 molecular gradient             ...        0 min,  0.125 sec ( 20.864%)
 printout                       ...        0 min,  0.004 sec (  0.590%)

         :::::::::::::::::::::::::::::::::::::::::::::::::::::
         ::                     SUMMARY                     ::
         :::::::::::::::::::::::::::::::::::::::::::::::::::::
         :: total energy            -146.958294788519 Eh    ::
         :: gradient norm              0.152853612620 Eh/a0 ::
         :: HOMO-LUMO gap              1.809848198058 eV    ::
         ::.................................................::
         :: SCC energy              -148.625892130718 Eh    ::
         :: -> isotropic ES            0.210955347980 Eh    ::
         :: -> anisotropic ES          0.006133229679 Eh    ::
         :: -> anisotropic XC          0.004832939242 Eh    ::
         :: -> dispersion             -0.107216497777 Eh    ::
         :: repulsion energy           1.663236717565 Eh    ::
         :: add. restraining           0.000000000000 Eh    ::
         :: total charge              -0.000000000000 e     ::
         :::::::::::::::::::::::::::::::::::::::::::::::::::::

      ----------------------------------------------------------- 
     |                   =====================                   |
     |                        A N C O P T                        |
     |                   =====================                   |
     |               Approximate Normal Coordinate               |
     |                Rational Function Optimizer                |
      ----------------------------------------------------------- 

          ...................................................
          :                      SETUP                      :
          :.................................................:
          :   optimization level            normal          :
          :   max. optcycles                   216          :
          :   ANC micro-cycles                  20          :
          :   degrees of freedom               210          :
          :.................................................:
          :   RF solver                   davidson          :
          :   write xtbopt.log                true          :
          :   linear?                        false          :
          :   energy convergence         0.5000000E-05 Eh   :
          :   grad. convergence          0.1000000E-02 Eh/α :
          :   maximium RF displ.         1.0000000          :
          :   Hlow (freq-cutoff)         0.1000000E-01      :
          :   Hmax (freq-cutoff)         5.0000000          :
          :   S6 in model hess.         20.0000000          :
          ...................................................

generating ANC from model Hessian ...
Using Lindh-Hessian (1995)
 Shifting diagonal of input Hessian by    9.8756152079547636E-003
 Lowest  eigenvalues of input Hessian
    0.000000    0.000000    0.000000    0.000000    0.000000    0.000000
    0.010000    0.010127    0.010181    0.010295    0.010381    0.010398
    0.010475    0.010667    0.010917    0.011242    0.011682    0.012270
 Highest eigenvalues
    1.994710    2.049077    2.054861    2.226556    2.261078    2.274529


........................................................................
.............................. CYCLE    1 ..............................
........................................................................
   1   -148.6258921 -0.148626E+03  0.173E-04    1.81       0.0  T
   2   -148.6258921 -0.731291E-10  0.134E-04    1.81      88.0  T
   3   -148.6258921 -0.720490E-09  0.780E-05    1.81     151.0  T
     SCC iter.                  ...        0 min,  0.086 sec
     gradient                   ...        0 min,  0.147 sec
 * total energy  :  -146.9582948 Eh     change       -0.3783839E-08 Eh
   gradient norm :     0.1528596 Eh/α   predicted     0.0000000E+00 (-100.00%)
   displ. norm   :     0.3619657 α      lambda       -0.2595400E-01
   maximum displ.:     0.1010706 α      in ANC's #42, #57, #29, ...

........................................................................
.............................. CYCLE    2 ..............................
........................................................................
   1   -148.7082526 -0.148708E+03  0.181E-01    2.03       0.0  T
   2   -148.7085351 -0.282581E-03  0.116E-01    2.02       1.0  T
   3   -148.7085459 -0.107246E-04  0.652E-02    2.01       1.0  T
   4   -148.7086672 -0.121305E-03  0.148E-02    2.00       1.0  T
   5   -148.7086792 -0.119984E-04  0.413E-03    2.01       2.9  T
   6   -148.7086797 -0.520522E-06  0.221E-03    2.01       5.3  T
   7   -148.7086798 -0.964088E-07  0.114E-03    2.01      10.4  T
   8   -148.7086798 -0.416911E-07  0.376E-04    2.01      31.4  T
   9   -148.7086798 -0.310197E-08  0.201E-04    2.01      58.6  T
     SCC iter.                  ...        0 min,  0.235 sec
     gradient                   ...        0 min,  0.140 sec
 * total energy  :  -146.9767334 Eh     change       -0.1843863E-01 Eh
   gradient norm :     0.0647532 Eh/α   predicted    -0.1467724E-01 ( -20.40%)
   displ. norm   :     0.4378062 α      lambda       -0.1107774E-01
   maximum displ.:     0.1279332 α      in ANC's #32, #29, #16, ...

........................................................................
.............................. CYCLE    3 ..............................
........................................................................
   1   -148.7590874 -0.148759E+03  0.162E-01    2.16       0.0  T
   2   -148.7592709 -0.183468E-03  0.105E-01    2.17       1.0  T
   3   -148.7592614  0.944567E-05  0.585E-02    2.17       1.0  T
   4   -148.7593814 -0.119938E-03  0.105E-02    2.16       1.1  T
   5   -148.7593867 -0.527937E-05  0.354E-03    2.16       3.3  T
   6   -148.7593870 -0.381588E-06  0.187E-03    2.16       6.3  T
   7   -148.7593871 -0.504431E-07  0.895E-04    2.16      13.2  T
   8   -148.7593871 -0.303156E-07  0.312E-04    2.16      37.7  T
     SCC iter.                  ...        0 min,  0.204 sec
     gradient                   ...        0 min,  0.158 sec
 * total energy  :  -146.9837130 Eh     change       -0.6979574E-02 Eh
   gradient norm :     0.0218726 Eh/α   predicted    -0.6600530E-02 (  -5.43%)
   displ. norm   :     0.4291451 α      lambda       -0.3942957E-02
   maximum displ.:     0.1397796 α      in ANC's #16, #11, #32, ...

........................................................................
.............................. CYCLE    4 ..............................
........................................................................
   1   -148.7658843 -0.148766E+03  0.128E-01    2.18       0.0  T
   2   -148.7659909 -0.106561E-03  0.782E-02    2.20       1.0  T
   3   -148.7659533  0.375855E-04  0.377E-02    2.20       1.0  T
   4   -148.7660089 -0.556696E-04  0.131E-02    2.20       1.0  T
   5   -148.7660210 -0.120125E-04  0.297E-03    2.20       4.0  T
   6   -148.7660212 -0.285846E-06  0.157E-03    2.20       7.5  T
   7   -148.7660213 -0.437589E-07  0.699E-04    2.20      16.9  T
   8   -148.7660213 -0.123878E-07  0.289E-04    2.20      40.8  T
     SCC iter.                  ...        0 min,  0.209 sec
     gradient                   ...        0 min,  0.134 sec
 * total energy  :  -146.9867182 Eh     change       -0.3005205E-02 Eh
   gradient norm :     0.0255803 Eh/α   predicted    -0.2334558E-02 ( -22.32%)
   displ. norm   :     0.5609819 α      lambda       -0.3711142E-02
   maximum displ.:     0.2195823 α      in ANC's #16, #11, #12, ...

........................................................................
.............................. CYCLE    5 ..............................
........................................................................
   1   -148.7672132 -0.148767E+03  0.147E-01    2.20       0.0  T
   2   -148.7673868 -0.173535E-03  0.884E-02    2.22       1.0  T
   3   -148.7673577  0.290652E-04  0.441E-02    2.22       1.0  T
   4   -148.7674069 -0.491900E-04  0.177E-02    2.22       1.0  T
   5   -148.7674311 -0.242066E-04  0.319E-03    2.22       3.7  T
   6   -148.7674314 -0.255351E-06  0.179E-03    2.22       6.6  T
   7   -148.7674314 -0.651279E-07  0.816E-04    2.22      14.4  T
   8   -148.7674314 -0.166444E-07  0.359E-04    2.22      32.9  T
     SCC iter.                  ...        0 min,  0.210 sec
     gradient                   ...        0 min,  0.133 sec
 * total energy  :  -146.9895743 Eh     change       -0.2856112E-02 Eh
   gradient norm :     0.0239765 Eh/α   predicted    -0.2439524E-02 ( -14.59%)
   displ. norm   :     0.5519391 α      lambda       -0.2836028E-02
   maximum displ.:     0.2294958 α      in ANC's #11, #16, #12, ...

........................................................................
.............................. CYCLE    6 ..............................
........................................................................
   1   -148.7691752 -0.148769E+03  0.136E-01    2.23       0.0  T
   2   -148.7693066 -0.131430E-03  0.806E-02    2.25       1.0  T
   3   -148.7692729  0.337175E-04  0.436E-02    2.25       1.0  T
   4   -148.7693339 -0.609645E-04  0.152E-02    2.25       1.0  T
   5   -148.7693506 -0.167753E-04  0.313E-03    2.25       3.8  T
   6   -148.7693509 -0.256091E-06  0.184E-03    2.25       6.4  T
   7   -148.7693510 -0.843211E-07  0.806E-04    2.25      14.6  T
   8   -148.7693510 -0.136762E-07  0.326E-04    2.25      36.2  T
     SCC iter.                  ...        0 min,  0.206 sec
     gradient                   ...        0 min,  0.036 sec
 * total energy  :  -146.9917890 Eh     change       -0.2214724E-02 Eh
   gradient norm :     0.0165886 Eh/α   predicted    -0.1849994E-02 ( -16.47%)
   displ. norm   :     0.5882182 α      lambda       -0.2343429E-02
   maximum displ.:     0.2518865 α      in ANC's #11, #16, #12, ...

........................................................................
.............................. CYCLE    7 ..............................
........................................................................
   1   -148.7698183 -0.148770E+03  0.153E-01    2.23       0.0  T
   2   -148.7700506 -0.232266E-03  0.898E-02    2.26       1.0  T
   3   -148.7700424  0.820594E-05  0.498E-02    2.26       1.0  T
   4   -148.7700903 -0.478893E-04  0.195E-02    2.26       1.0  T
   5   -148.7701190 -0.287337E-04  0.359E-03    2.26       3.3  T
   6   -148.7701194 -0.429231E-06  0.196E-03    2.26       6.0  T
   7   -148.7701195 -0.917515E-07  0.886E-04    2.26      13.3  T
   8   -148.7701195 -0.185109E-07  0.384E-04    2.26      30.7  T
     SCC iter.                  ...        0 min,  0.205 sec
     gradient                   ...        0 min,  0.134 sec
 * total energy  :  -146.9936431 Eh     change       -0.1854097E-02 Eh
   gradient norm :     0.0232189 Eh/α   predicted    -0.1577133E-02 ( -14.94%)
   displ. norm   :     0.6020650 α      lambda       -0.2548070E-02
   maximum displ.:     0.2732676 α      in ANC's #11, #12, #16, ...

........................................................................
.............................. CYCLE    8 ..............................
........................................................................
   1   -148.7793802 -0.148779E+03  0.141E-01    2.32       0.0  T
   2   -148.7794256 -0.454083E-04  0.839E-02    2.32       1.0  T
   3   -148.7793303  0.952490E-04  0.452E-02    2.32       1.0  T
   4   -148.7794538 -0.123500E-03  0.773E-03    2.32       1.5  T
   5   -148.7794566 -0.272064E-05  0.328E-03    2.32       3.6  T
   6   -148.7794567 -0.176132E-06  0.195E-03    2.32       6.1  T
   7   -148.7794569 -0.135600E-06  0.845E-04    2.32      13.9  T
   8   -148.7794569 -0.928873E-08  0.282E-04    2.32      41.8  T
     SCC iter.                  ...        0 min,  0.204 sec
     gradient                   ...        0 min,  0.141 sec
 * total energy  :  -146.9952686 Eh     change       -0.1625486E-02 Eh
   gradient norm :     0.0219898 Eh/α   predicted    -0.1735880E-02 (   6.79%)
   displ. norm   :     0.6302940 α      lambda       -0.2303373E-02
   maximum displ.:     0.2529778 α      in ANC's #11, #12, #5, ...

........................................................................
.............................. CYCLE    9 ..............................
........................................................................
   1   -148.7746682 -0.148775E+03  0.173E-01    2.28       0.0  T
   2   -148.7750271 -0.358838E-03  0.103E-01    2.31       1.0  T
   3   -148.7750368 -0.978752E-05  0.559E-02    2.31       1.0  T
   4   -148.7750753 -0.385003E-04  0.224E-02    2.32       1.0  T
   5   -148.7751155 -0.401894E-04  0.434E-03    2.32       2.7  T
   6   -148.7751162 -0.660652E-06  0.221E-03    2.32       5.3  T
   7   -148.7751163 -0.125008E-06  0.110E-03    2.32      10.7  T
   8   -148.7751163 -0.274319E-07  0.508E-04    2.32      23.2  T
   9   -148.7751163 -0.396261E-08  0.194E-04    2.32      60.8  T
     SCC iter.                  ...        0 min,  0.233 sec
     gradient                   ...        0 min,  0.124 sec
 * total energy  :  -146.9967071 Eh     change       -0.1438462E-02 Eh
   gradient norm :     0.0319452 Eh/α   predicted    -0.1609224E-02 (  11.87%)
   displ. norm   :     0.3981014 α      lambda       -0.1527103E-02
   maximum displ.:     0.1521578 α      in ANC's #5, #3, #15, ...

........................................................................
.............................. CYCLE   10 ..............................
........................................................................
   1   -148.7809583 -0.148781E+03  0.956E-02    2.37       0.0  T
   2   -148.7809930 -0.347047E-04  0.566E-02    2.37       1.0  T
   3   -148.7809658  0.272531E-04  0.273E-02    2.37       1.0  T
   4   -148.7810012 -0.354331E-04  0.704E-03    2.37       1.7  T
   5   -148.7810047 -0.354149E-05  0.206E-03    2.37       5.7  T
   6   -148.7810049 -0.127415E-06  0.114E-03    2.37      10.4  T
   7   -148.7810049 -0.340601E-07  0.523E-04    2.37      22.6  T
   8   -148.7810049 -0.339602E-08  0.206E-04    2.37      57.3  T
     SCC iter.                  ...        0 min,  0.204 sec
     gradient                   ...        0 min,  0.133 sec
 * total energy  :  -146.9978910 Eh     change       -0.1183907E-02 Eh
   gradient norm :     0.0268593 Eh/α   predicted    -0.8845611E-03 ( -25.28%)
   displ. norm   :     0.5998697 α      lambda       -0.2771784E-02
   maximum displ.:     0.2601782 α      in ANC's #5, #15, #3, ...

........................................................................
.............................. CYCLE   11 ..............................
........................................................................
   1   -148.7936842 -0.148794E+03  0.153E-01    2.38       0.0  T
   2   -148.7939819 -0.297633E-03  0.921E-02    2.39       1.0  T
   3   -148.7939860 -0.418765E-05  0.481E-02    2.38       1.0  T
   4   -148.7940019 -0.159047E-04  0.184E-02    2.38       1.0  T
   5   -148.7940276 -0.257011E-04  0.424E-03    2.38       2.8  T
   6   -148.7940283 -0.634277E-06  0.231E-03    2.38       5.1  T
   7   -148.7940284 -0.140952E-06  0.109E-03    2.38      10.8  T
   8   -148.7940284 -0.173954E-07  0.475E-04    2.38      24.8  T
   9   -148.7940284 -0.422452E-08  0.174E-04    2.38      67.8  T
     SCC iter.                  ...        0 min,  0.233 sec
     gradient                   ...        0 min,  0.135 sec
 * total energy  :  -146.9983578 Eh     change       -0.4667738E-03 Eh
   gradient norm :     0.0487804 Eh/α   predicted    -0.1884596E-02 ( 303.75%)
   displ. norm   :     0.3894537 α      lambda       -0.2636872E-02
   maximum displ.:     0.1419080 α      in ANC's #11, #3, #5, ...

........................................................................
.............................. CYCLE   12 ..............................
........................................................................
   1   -148.7823300 -0.148782E+03  0.998E-02    2.41       0.0  T
   2   -148.7824795 -0.149496E-03  0.602E-02    2.41       1.0  T
   3   -148.7824894 -0.996387E-05  0.317E-02    2.41       1.0  T
   4   -148.7824922 -0.274074E-05  0.117E-02    2.41       1.0  T
   5   -148.7825022 -0.999658E-05  0.319E-03    2.41       3.7  T
   6   -148.7825026 -0.409014E-06  0.159E-03    2.41       7.4  T
   7   -148.7825026 -0.745789E-07  0.772E-04    2.41      15.3  T
   8   -148.7825027 -0.102044E-07  0.341E-04    2.41      34.5  T
     SCC iter.                  ...        0 min,  0.204 sec
     gradient                   ...        0 min,  0.122 sec
 * total energy  :  -146.9999779 Eh     change       -0.1620127E-02 Eh
   gradient norm :     0.0115230 Eh/α   predicted    -0.1518412E-02 (  -6.28%)
   displ. norm   :     0.5378191 α      lambda       -0.9446924E-03
   maximum displ.:     0.2235480 α      in ANC's #5, #3, #15, ...

........................................................................
.............................. CYCLE   13 ..............................
........................................................................
   1   -148.7775548 -0.148778E+03  0.115E-01    2.41       0.0  T
   2   -148.7776021 -0.473458E-04  0.678E-02    2.42       1.0  T
   3   -148.7775610  0.410876E-04  0.331E-02    2.42       1.0  T
   4   -148.7776161 -0.550918E-04  0.850E-03    2.42       1.4  T
   5   -148.7776215 -0.536126E-05  0.229E-03    2.42       5.1  T
   6   -148.7776216 -0.114443E-06  0.134E-03    2.42       8.8  T
   7   -148.7776216 -0.525760E-07  0.570E-04    2.42      20.7  T
   8   -148.7776216 -0.587445E-08  0.234E-04    2.42      50.3  T
     SCC iter.                  ...        0 min,  0.207 sec
     gradient                   ...        0 min,  0.128 sec
 * total energy  :  -147.0007106 Eh     change       -0.7326664E-03 Eh
   gradient norm :     0.0159540 Eh/α   predicted    -0.6089734E-03 ( -16.88%)
   displ. norm   :     0.5498807 α      lambda       -0.1340882E-02
   maximum displ.:     0.2290399 α      in ANC's #5, #3, #15, ...

........................................................................
.............................. CYCLE   14 ..............................
........................................................................
   1   -148.7859729 -0.148786E+03  0.113E-01    2.46       0.0  T
   2   -148.7860127 -0.397816E-04  0.672E-02    2.46       1.0  T
   3   -148.7859845  0.281350E-04  0.282E-02    2.46       1.0  T
   4   -148.7860211 -0.365541E-04  0.693E-03    2.46       1.7  T
   5   -148.7860244 -0.328097E-05  0.210E-03    2.46       5.6  T
   6   -148.7860245 -0.945159E-07  0.127E-03    2.46       9.3  T
   7   -148.7860245 -0.474369E-07  0.539E-04    2.46      21.9  T
   8   -148.7860245 -0.562557E-08  0.210E-04    2.46      56.1  T
     SCC iter.                  ...        0 min,  0.207 sec
     gradient                   ...        0 min,  0.115 sec
 * total energy  :  -147.0014967 Eh     change       -0.7861709E-03 Eh
   gradient norm :     0.0226557 Eh/α   predicted    -0.8731744E-03 (  11.07%)
   displ. norm   :     0.5936310 α      lambda       -0.1240745E-02
   maximum displ.:     0.2474984 α      in ANC's #5, #3, #15, ...

........................................................................
.............................. CYCLE   15 ..............................
........................................................................
   1   -148.7828010 -0.148783E+03  0.124E-01    2.43       0.0  T
   2   -148.7828765 -0.755111E-04  0.728E-02    2.44       1.0  T
   3   -148.7828446  0.319868E-04  0.334E-02    2.44       1.0  T
   4   -148.7828879 -0.433326E-04  0.996E-03    2.44       1.2  T
   5   -148.7828954 -0.750882E-05  0.252E-03    2.44       4.7  T
   6   -148.7828955 -0.152288E-06  0.152E-03    2.44       7.7  T
   7   -148.7828956 -0.626472E-07  0.686E-04    2.44      17.2  T
   8   -148.7828956 -0.904086E-08  0.260E-04    2.44      45.4  T
     SCC iter.                  ...        0 min,  0.205 sec
     gradient                   ...        0 min,  0.160 sec
 * total energy  :  -147.0023809 Eh     change       -0.8842098E-03 Eh
   gradient norm :     0.0120496 Eh/α   predicted    -0.8389939E-03 (  -5.11%)
   displ. norm   :     0.5294850 α      lambda       -0.8295312E-03
   maximum displ.:     0.2150838 α      in ANC's #5, #3, #9, ...

........................................................................
.............................. CYCLE   16 ..............................
........................................................................
   1   -148.7854187 -0.148785E+03  0.108E-01    2.44       0.0  T
   2   -148.7854462 -0.275288E-04  0.635E-02    2.44       1.0  T
   3   -148.7854118  0.343787E-04  0.263E-02    2.44       1.0  T
   4   -148.7854529 -0.411113E-04  0.631E-03    2.44       1.9  T
   5   -148.7854558 -0.286852E-05  0.183E-03    2.44       6.5  T
   6   -148.7854559 -0.718514E-07  0.110E-03    2.44      10.7  T
   7   -148.7854559 -0.309284E-07  0.454E-04    2.44      26.0  T
   8   -148.7854559 -0.385796E-08  0.173E-04    2.44      68.3  T
     SCC iter.                  ...        0 min,  0.206 sec
     gradient                   ...        0 min,  0.145 sec
 * total energy  :  -147.0030247 Eh     change       -0.6437796E-03 Eh
   gradient norm :     0.0155117 Eh/α   predicted    -0.5310480E-03 ( -17.51%)
   displ. norm   :     0.6145134 α      lambda       -0.9432882E-03
   maximum displ.:     0.2139110 α      in ANC's #5, #3, #9, ...

........................................................................
.............................. CYCLE   17 ..............................
........................................................................
   1   -148.7897755 -0.148790E+03  0.121E-01    2.45       0.0  T
   2   -148.7897904 -0.149100E-04  0.714E-02    2.45       1.0  T
   3   -148.7897525  0.378590E-04  0.244E-02    2.45       1.0  T
   4   -148.7897970 -0.445028E-04  0.482E-03    2.45       2.4  T
   5   -148.7897983 -0.130162E-05  0.203E-03    2.45       5.8  T
   6   -148.7897984 -0.426978E-07  0.115E-03    2.45      10.2  T
   7   -148.7897984 -0.414346E-07  0.371E-04    2.45      31.8  T
   8   -148.7897984 -0.272294E-08  0.159E-04    2.45      74.3  T
     SCC iter.                  ...        0 min,  0.205 sec
     gradient                   ...        0 min,  0.042 sec
 * total energy  :  -147.0037137 Eh     change       -0.6889334E-03 Eh
   gradient norm :     0.0142579 Eh/α   predicted    -0.6497598E-03 (  -5.69%)
   displ. norm   :     0.5771151 α      lambda       -0.8809405E-03
   maximum displ.:     0.2119947 α      in ANC's #1, #3, #9, ...

........................................................................
.............................. CYCLE   18 ..............................
........................................................................
   1   -148.7942085 -0.148794E+03  0.116E-01    2.46       0.0  T
   2   -148.7942367 -0.282175E-04  0.681E-02    2.46       1.0  T
   3   -148.7942166  0.201029E-04  0.209E-02    2.46       1.0  T
   4   -148.7942397 -0.231450E-04  0.666E-03    2.46       1.8  T
   5   -148.7942433 -0.357130E-05  0.184E-03    2.46       6.4  T
   6   -148.7942434 -0.518090E-07  0.103E-03    2.46      11.5  T
   7   -148.7942434 -0.256887E-07  0.396E-04    2.46      29.8  T
   8   -148.7942434 -0.321776E-08  0.177E-04    2.46      66.5  T
     SCC iter.                  ...        0 min,  0.210 sec
     gradient                   ...        0 min,  0.147 sec
 * total energy  :  -147.0042948 Eh     change       -0.5811816E-03 Eh
   gradient norm :     0.0087221 Eh/α   predicted    -0.5871750E-03 (   1.03%)
   displ. norm   :     0.6442856 α      lambda       -0.6107574E-03
   maximum displ.:     0.2470329 α      in ANC's #3, #1, #5, ...

........................................................................
.............................. CYCLE   19 ..............................
........................................................................
   1   -148.7855598 -0.148786E+03  0.122E-01    2.45       0.0  T
   2   -148.7855808 -0.210569E-04  0.717E-02    2.45       1.0  T
   3   -148.7855399  0.409321E-04  0.270E-02    2.45       1.0  T
   4   -148.7855892 -0.492654E-04  0.534E-03    2.45       2.2  T
   5   -148.7855909 -0.173002E-05  0.207E-03    2.45       5.7  T
   6   -148.7855909 -0.428374E-07  0.125E-03    2.45       9.4  T
   7   -148.7855910 -0.508398E-07  0.410E-04    2.45      28.8  T
   8   -148.7855910 -0.319429E-08  0.171E-04    2.45      68.8  T
     SCC iter.                  ...        0 min,  0.206 sec
     gradient                   ...        0 min,  0.135 sec
 * total energy  :  -147.0046777 Eh     change       -0.3828269E-03 Eh
   gradient norm :     0.0141417 Eh/α   predicted    -0.4321441E-03 (  12.88%)
   displ. norm   :     0.4541716 α      lambda       -0.6569379E-03
   maximum displ.:     0.2009905 α      in ANC's #1, #12, #9, ...

........................................................................
.............................. CYCLE   20 ..............................
........................................................................
   1   -148.7935878 -0.148794E+03  0.890E-02    2.46       0.0  T
   2   -148.7936039 -0.161347E-04  0.528E-02    2.46       1.0  T
   3   -148.7935878  0.161178E-04  0.195E-02    2.46       1.0  T
   4   -148.7936078 -0.200277E-04  0.406E-03    2.46       2.9  T
   5   -148.7936087 -0.871240E-06  0.133E-03    2.46       8.8  T
   6   -148.7936087 -0.103314E-07  0.836E-04    2.46      14.1  T
   7   -148.7936087 -0.263580E-07  0.353E-04    2.46      33.4  T
     SCC iter.                  ...        0 min,  0.183 sec
     gradient                   ...        0 min,  0.154 sec
 * total energy  :  -147.0050055 Eh     change       -0.3278875E-03 Eh
   gradient norm :     0.0136181 Eh/α   predicted    -0.3962254E-03 (  20.84%)
   displ. norm   :     0.4081478 α      lambda       -0.5865130E-03
   maximum displ.:     0.1778251 α      in ANC's #1, #3, #7, ...
 * RMSD in coord.:     0.9596312 α      energy gain  -0.4671076E-01 Eh

generating ANC from model Hessian ...
Using Lindh-Hessian (1995)
 Shifting diagonal of input Hessian by    9.9132224136733327E-003
 Lowest  eigenvalues of input Hessian
    0.000000    0.000000    0.000000    0.000000    0.000000    0.000000
    0.010000    0.010160    0.010252    0.010428    0.010474    0.010524
    0.010623    0.011073    0.011189    0.011536    0.011924    0.012406
 Highest eigenvalues
    2.069220    2.108260    2.111790    2.357373    2.388033    2.397151


........................................................................
.............................. CYCLE   21 ..............................
........................................................................
   1   -148.7923492 -0.148792E+03  0.762E-02    2.47       0.0  T
   2   -148.7923675 -0.183479E-04  0.461E-02    2.47       1.0  T
   3   -148.7923515  0.160711E-04  0.199E-02    2.47       1.0  T
   4   -148.7923722 -0.207103E-04  0.486E-03    2.47       2.4  T
   5   -148.7923737 -0.148577E-05  0.152E-03    2.47       7.8  T
   6   -148.7923737 -0.651642E-08  0.966E-04    2.47      12.2  T
   7   -148.7923737 -0.310026E-07  0.320E-04    2.47      36.8  T
     SCC iter.                  ...        0 min,  0.181 sec
     gradient                   ...        0 min,  0.123 sec
 * total energy  :  -147.0052796 Eh     change       -0.2740482E-03 Eh
   gradient norm :     0.0136892 Eh/α   predicted     0.0000000E+00 (-100.00%)
   displ. norm   :     0.1006333 α      lambda       -0.3683750E-03
   maximum displ.:     0.0394023 α      in ANC's #17, #1, #2, ...

........................................................................
.............................. CYCLE   22 ..............................
........................................................................
   1   -148.7927179 -0.148793E+03  0.261E-02    2.47       0.0  T
   2   -148.7927218 -0.389046E-05  0.161E-02    2.47       1.0  T
   3   -148.7927209  0.869051E-06  0.710E-03    2.47       1.7  T
   4   -148.7927226 -0.161916E-05  0.198E-03    2.47       6.0  T
   5   -148.7927228 -0.225302E-06  0.669E-04    2.47      17.6  T
   6   -148.7927228 -0.508396E-08  0.404E-04    2.47      29.2  T
     SCC iter.                  ...        0 min,  0.161 sec
     gradient                   ...        0 min,  0.140 sec
 * total energy  :  -147.0055577 Eh     change       -0.2781138E-03 Eh
   gradient norm :     0.0049434 Eh/α   predicted    -0.1861496E-03 ( -33.07%)
   displ. norm   :     0.2247660 α      lambda       -0.3776435E-03
   maximum displ.:     0.0831331 α      in ANC's #1, #17, #2, ...

........................................................................
.............................. CYCLE   23 ..............................
........................................................................
   1   -148.7932760 -0.148793E+03  0.457E-02    2.47       0.0  T
   2   -148.7932807 -0.467982E-05  0.276E-02    2.47       1.0  T
   3   -148.7932762  0.447155E-05  0.997E-03    2.47       1.2  T
   4   -148.7932821 -0.584539E-05  0.274E-03    2.47       4.3  T
   5   -148.7932825 -0.423230E-06  0.111E-03    2.47      10.6  T
   6   -148.7932825 -0.956894E-08  0.646E-04    2.47      18.3  T
   7   -148.7932825 -0.129087E-07  0.221E-04    2.47      53.4  T
     SCC iter.                  ...        0 min,  0.178 sec
     gradient                   ...        0 min,  0.135 sec
 * total energy  :  -147.0058321 Eh     change       -0.2744130E-03 Eh
   gradient norm :     0.0062304 Eh/α   predicted    -0.1984512E-03 ( -27.68%)
   displ. norm   :     0.3244539 α      lambda       -0.3413901E-03
   maximum displ.:     0.1226015 α      in ANC's #1, #2, #17, ...

........................................................................
.............................. CYCLE   24 ..............................
........................................................................
   1   -148.7929710 -0.148793E+03  0.603E-02    2.47       0.0  T
   2   -148.7929752 -0.421950E-05  0.361E-02    2.47       1.0  T
   3   -148.7929708  0.438512E-05  0.911E-03    2.47       1.3  T
   4   -148.7929772 -0.640252E-05  0.266E-03    2.47       4.4  T
   5   -148.7929775 -0.254978E-06  0.143E-03    2.47       8.3  T
   6   -148.7929775 -0.274230E-07  0.665E-04    2.47      17.7  T
   7   -148.7929775 -0.135919E-07  0.199E-04    2.47      59.2  T
     SCC iter.                  ...        0 min,  0.180 sec
     gradient                   ...        0 min,  0.131 sec
 * total energy  :  -147.0061140 Eh     change       -0.2819119E-03 Eh
   gradient norm :     0.0097346 Eh/α   predicted    -0.1886908E-03 ( -33.07%)
   displ. norm   :     0.5353410 α      lambda       -0.5106556E-03
   maximum displ.:     0.2056655 α      in ANC's #1, #2, #12, ...

........................................................................
.............................. CYCLE   25 ..............................
........................................................................
   1   -148.7908579 -0.148791E+03  0.950E-02    2.48       0.0  T
   2   -148.7908706 -0.126630E-04  0.568E-02    2.48       1.0  T
   3   -148.7908633  0.733058E-05  0.135E-02    2.48       1.0  T
   4   -148.7908758 -0.125747E-04  0.451E-03    2.48       2.6  T
   5   -148.7908766 -0.792148E-06  0.238E-03    2.48       4.9  T
   6   -148.7908767 -0.775087E-07  0.106E-03    2.48      11.1  T
   7   -148.7908767 -0.357611E-07  0.344E-04    2.48      34.3  T
   8   -148.7908767 -0.256640E-08  0.123E-04    2.48      96.0  T
     SCC iter.                  ...        0 min,  0.204 sec
     gradient                   ...        0 min,  0.120 sec
 * total energy  :  -147.0064868 Eh     change       -0.3727670E-03 Eh
   gradient norm :     0.0128008 Eh/α   predicted    -0.3285023E-03 ( -11.87%)
   displ. norm   :     0.3716235 α      lambda       -0.3756073E-03
   maximum displ.:     0.1629097 α      in ANC's #1, #2, #10, ...

........................................................................
.............................. CYCLE   26 ..............................
........................................................................
   1   -148.7910881 -0.148791E+03  0.634E-02    2.48       0.0  T
   2   -148.7910953 -0.715587E-05  0.378E-02    2.48       1.0  T
   3   -148.7910907  0.459184E-05  0.110E-02    2.48       1.1  T
   4   -148.7910977 -0.698403E-05  0.326E-03    2.48       3.6  T
   5   -148.7910981 -0.470486E-06  0.162E-03    2.48       7.3  T
   6   -148.7910982 -0.424968E-07  0.809E-04    2.48      14.6  T
   7   -148.7910982 -0.146694E-07  0.311E-04    2.48      37.9  T
     SCC iter.                  ...        0 min,  0.185 sec
     gradient                   ...        0 min,  0.141 sec
 * total energy  :  -147.0067731 Eh     change       -0.2862591E-03 Eh
   gradient norm :     0.0120813 Eh/α   predicted    -0.2137523E-03 ( -25.33%)
   displ. norm   :     0.3202935 α      lambda       -0.4964479E-03
   maximum displ.:     0.1652763 α      in ANC's #1, #2, #10, ...

........................................................................
.............................. CYCLE   27 ..............................
........................................................................
   1   -148.7958779 -0.148796E+03  0.541E-02    2.48       0.0  T
   2   -148.7958927 -0.147663E-04  0.323E-02    2.48       1.0  T
   3   -148.7958901  0.256683E-05  0.118E-02    2.48       1.0  T
   4   -148.7958940 -0.391579E-05  0.381E-03    2.48       3.1  T
   5   -148.7958950 -0.956848E-06  0.135E-03    2.48       8.7  T
   6   -148.7958950 -0.545313E-07  0.749E-04    2.48      15.7  T
   7   -148.7958950 -0.810596E-08  0.351E-04    2.48      33.6  T
     SCC iter.                  ...        0 min,  0.186 sec
     gradient                   ...        0 min,  0.140 sec
 * total energy  :  -147.0070789 Eh     change       -0.3058692E-03 Eh
   gradient norm :     0.0095482 Eh/α   predicted    -0.2737874E-03 ( -10.49%)
   displ. norm   :     0.4379373 α      lambda       -0.3241698E-03
   maximum displ.:     0.2143238 α      in ANC's #1, #2, #10, ...

........................................................................
.............................. CYCLE   28 ..............................
........................................................................
   1   -148.7945957 -0.148795E+03  0.681E-02    2.48       0.0  T
   2   -148.7946021 -0.639023E-05  0.404E-02    2.48       1.0  T
   3   -148.7945977  0.445576E-05  0.109E-02    2.48       1.1  T
   4   -148.7946047 -0.703164E-05  0.286E-03    2.48       4.1  T
   5   -148.7946050 -0.240668E-06  0.156E-03    2.48       7.5  T
   6   -148.7946050 -0.158383E-07  0.838E-04    2.48      14.1  T
   7   -148.7946050 -0.246630E-07  0.263E-04    2.48      44.7  T
     SCC iter.                  ...        0 min,  0.179 sec
     gradient                   ...        0 min,  0.126 sec
 * total energy  :  -147.0073301 Eh     change       -0.2511299E-03 Eh
   gradient norm :     0.0112729 Eh/α   predicted    -0.1931833E-03 ( -23.07%)
   displ. norm   :     0.4251448 α      lambda       -0.3903993E-03
   maximum displ.:     0.2299902 α      in ANC's #1, #2, #3, ...

........................................................................
.............................. CYCLE   29 ..............................
........................................................................
   1   -148.7952795 -0.148795E+03  0.606E-02    2.49       0.0  T
   2   -148.7952852 -0.568831E-05  0.360E-02    2.49       1.0  T
   3   -148.7952821  0.303093E-05  0.881E-03    2.49       1.3  T
   4   -148.7952866 -0.451270E-05  0.249E-03    2.49       4.7  T
   5   -148.7952869 -0.268688E-06  0.121E-03    2.49       9.7  T
   6   -148.7952869 -0.342862E-08  0.695E-04    2.49      17.0  T
   7   -148.7952869 -0.190870E-07  0.212E-04    2.49      55.7  T
     SCC iter.                  ...        0 min,  0.185 sec
     gradient                   ...        0 min,  0.130 sec
 * total energy  :  -147.0076102 Eh     change       -0.2801609E-03 Eh
   gradient norm :     0.0077811 Eh/α   predicted    -0.2304818E-03 ( -17.73%)
   displ. norm   :     0.4417542 α      lambda       -0.2875553E-03
   maximum displ.:     0.2435860 α      in ANC's #1, #2, #3, ...

........................................................................
.............................. CYCLE   30 ..............................
........................................................................
   1   -148.7934221 -0.148793E+03  0.654E-02    2.49       0.0  T
   2   -148.7934257 -0.360029E-05  0.389E-02    2.49       1.0  T
   3   -148.7934206  0.517418E-05  0.936E-03    2.49       1.3  T
   4   -148.7934275 -0.691787E-05  0.240E-03    2.49       4.9  T
   5   -148.7934277 -0.180387E-06  0.137E-03    2.49       8.6  T
   6   -148.7934277 -0.162199E-07  0.666E-04    2.49      17.7  T
   7   -148.7934277 -0.185072E-07  0.176E-04    2.49      67.1  T
     SCC iter.                  ...        0 min,  0.181 sec
     gradient                   ...        0 min,  0.149 sec
 * total energy  :  -147.0078246 Eh     change       -0.2144239E-03 Eh
   gradient norm :     0.0061294 Eh/α   predicted    -0.1718425E-03 ( -19.86%)
   displ. norm   :     0.3821430 α      lambda       -0.2492031E-03
   maximum displ.:     0.2207508 α      in ANC's #1, #2, #3, ...

........................................................................
.............................. CYCLE   31 ..............................
........................................................................
   1   -148.7954329 -0.148795E+03  0.538E-02    2.50       0.0  T
   2   -148.7954376 -0.469364E-05  0.321E-02    2.50       1.0  T
   3   -148.7954295  0.816043E-05  0.122E-02    2.50       1.0  T
   4   -148.7954395 -0.998336E-05  0.260E-03    2.50       4.5  T
   5   -148.7954398 -0.359787E-06  0.107E-03    2.50      11.1  T
   6   -148.7954398 -0.470365E-08  0.641E-04    2.50      18.4  T
   7   -148.7954398 -0.128674E-07  0.219E-04    2.50      53.9  T
     SCC iter.                  ...        0 min,  0.190 sec
     gradient                   ...        0 min,  0.115 sec
 * total energy  :  -147.0079951 Eh     change       -0.1704682E-03 Eh
   gradient norm :     0.0059401 Eh/α   predicted    -0.1427997E-03 ( -16.23%)
   displ. norm   :     0.5050927 α      lambda       -0.2426308E-03
   maximum displ.:     0.2844015 α      in ANC's #1, #2, #3, ...

........................................................................
.............................. CYCLE   32 ..............................
........................................................................
   1   -148.7934211 -0.148793E+03  0.793E-02    2.51       0.0  T
   2   -148.7934279 -0.679397E-05  0.471E-02    2.51       1.0  T
   3   -148.7934149  0.129465E-04  0.145E-02    2.51       1.0  T
   4   -148.7934310 -0.160881E-04  0.323E-03    2.51       3.6  T
   5   -148.7934314 -0.387483E-06  0.174E-03    2.51       6.8  T
   6   -148.7934314 -0.276361E-07  0.949E-04    2.51      12.4  T
   7   -148.7934314 -0.262915E-07  0.291E-04    2.51      40.5  T
     SCC iter.                  ...        0 min,  0.182 sec
     gradient                   ...        0 min,  0.142 sec
 * total energy  :  -147.0081586 Eh     change       -0.1634391E-03 Eh
   gradient norm :     0.0085895 Eh/α   predicted    -0.1522823E-03 (  -6.83%)
   displ. norm   :     0.3561030 α      lambda       -0.2188311E-03
   maximum displ.:     0.2029186 α      in ANC's #1, #2, #3, ...

........................................................................
.............................. CYCLE   33 ..............................
........................................................................
   1   -148.7958140 -0.148796E+03  0.556E-02    2.52       0.0  T
   2   -148.7958186 -0.463288E-05  0.331E-02    2.52       1.0  T
   3   -148.7958066  0.120664E-04  0.142E-02    2.52       1.0  T
   4   -148.7958210 -0.144354E-04  0.270E-03    2.52       4.4  T
   5   -148.7958214 -0.415902E-06  0.111E-03    2.52      10.6  T
   6   -148.7958214 -0.132160E-07  0.667E-04    2.52      17.7  T
   7   -148.7958214 -0.124859E-07  0.229E-04    2.52      51.5  T
     SCC iter.                  ...        0 min,  0.181 sec
     gradient                   ...        0 min,  0.155 sec
 * total energy  :  -147.0083275 Eh     change       -0.1689065E-03 Eh
   gradient norm :     0.0087208 Eh/α   predicted    -0.1232966E-03 ( -27.00%)
   displ. norm   :     0.5140056 α      lambda       -0.2994492E-03
   maximum displ.:     0.2860626 α      in ANC's #1, #2, #3, ...

........................................................................
.............................. CYCLE   34 ..............................
........................................................................
   1   -148.7966866 -0.148797E+03  0.751E-02    2.53       0.0  T
   2   -148.7966996 -0.130177E-04  0.445E-02    2.54       1.0  T
   3   -148.7966798  0.198157E-04  0.190E-02    2.54       1.0  T
   4   -148.7967036 -0.237688E-04  0.443E-03    2.54       2.7  T
   5   -148.7967048 -0.118971E-05  0.166E-03    2.54       7.1  T
   6   -148.7967048 -0.487636E-07  0.996E-04    2.54      11.8  T
   7   -148.7967048 -0.187298E-07  0.391E-04    2.54      30.1  T
     SCC iter.                  ...        0 min,  0.180 sec
     gradient                   ...        0 min,  0.134 sec
 * total energy  :  -147.0085012 Eh     change       -0.1737572E-03 Eh
   gradient norm :     0.0070847 Eh/α   predicted    -0.1893336E-03 (   8.96%)
   displ. norm   :     0.4214876 α      lambda       -0.2642518E-03
   maximum displ.:     0.2281929 α      in ANC's #1, #2, #13, ...

........................................................................
.............................. CYCLE   35 ..............................
........................................................................
   1   -148.7973724 -0.148797E+03  0.729E-02    2.55       0.0  T
   2   -148.7973805 -0.810760E-05  0.433E-02    2.55       1.0  T
   3   -148.7973619  0.185295E-04  0.172E-02    2.56       1.0  T
   4   -148.7973838 -0.218206E-04  0.361E-03    2.56       3.3  T
   5   -148.7973845 -0.769915E-06  0.147E-03    2.56       8.0  T
   6   -148.7973845 -0.139830E-07  0.876E-04    2.56      13.4  T
   7   -148.7973846 -0.259337E-07  0.284E-04    2.56      41.5  T
     SCC iter.                  ...        0 min,  0.179 sec
     gradient                   ...        0 min,  0.138 sec
 * total energy  :  -147.0086697 Eh     change       -0.1684356E-03 Eh
   gradient norm :     0.0069809 Eh/α   predicted    -0.1555992E-03 (  -7.62%)
   displ. norm   :     0.4505218 α      lambda       -0.1840320E-03
   maximum displ.:     0.2532052 α      in ANC's #1, #2, #3, ...

........................................................................
.............................. CYCLE   36 ..............................
........................................................................
   1   -148.7947358 -0.148795E+03  0.706E-02    2.56       0.0  T
   2   -148.7947430 -0.714250E-05  0.417E-02    2.56       1.0  T
   3   -148.7947286  0.143996E-04  0.158E-02    2.57       1.0  T
   4   -148.7947458 -0.172190E-04  0.320E-03    2.57       3.7  T
   5   -148.7947463 -0.505861E-06  0.149E-03    2.57       7.9  T
   6   -148.7947464 -0.450445E-07  0.850E-04    2.57      13.9  T
   7   -148.7947464 -0.137665E-07  0.309E-04    2.57      38.1  T
     SCC iter.                  ...        0 min,  0.181 sec
     gradient                   ...        0 min,  0.126 sec
 * total energy  :  -147.0087959 Eh     change       -0.1262697E-03 Eh
   gradient norm :     0.0085420 Eh/α   predicted    -0.1106980E-03 ( -12.33%)
   displ. norm   :     0.3450057 α      lambda       -0.2012784E-03
   maximum displ.:     0.1731072 α      in ANC's #1, #2, #3, ...

........................................................................
.............................. CYCLE   37 ..............................
........................................................................
   1   -148.7974995 -0.148797E+03  0.602E-02    2.58       0.0  T
   2   -148.7975054 -0.592152E-05  0.355E-02    2.58       1.0  T
   3   -148.7974927  0.127194E-04  0.151E-02    2.58       1.0  T
   4   -148.7975080 -0.152879E-04  0.283E-03    2.58       4.2  T
   5   -148.7975084 -0.457341E-06  0.119E-03    2.58       9.9  T
   6   -148.7975084 -0.253562E-07  0.674E-04    2.58      17.5  T
   7   -148.7975084 -0.106951E-07  0.278E-04    2.58      42.4  T
     SCC iter.                  ...        0 min,  0.184 sec
     gradient                   ...        0 min,  0.038 sec
 * total energy  :  -147.0089217 Eh     change       -0.1257412E-03 Eh
   gradient norm :     0.0055365 Eh/α   predicted    -0.1126202E-03 ( -10.43%)
   displ. norm   :     0.5383142 α      lambda       -0.2177936E-03
   maximum displ.:     0.2960168 α      in ANC's #1, #2, #3, ...

........................................................................
.............................. CYCLE   38 ..............................
........................................................................
   1   -148.7932644 -0.148793E+03  0.888E-02    2.58       0.0  T
   2   -148.7932899 -0.255638E-04  0.523E-02    2.59       1.0  T
   3   -148.7932768  0.131549E-04  0.202E-02    2.59       1.0  T
   4   -148.7932942 -0.174064E-04  0.553E-03    2.59       2.1  T
   5   -148.7932962 -0.198427E-05  0.200E-03    2.59       5.9  T
   6   -148.7932963 -0.870442E-07  0.117E-03    2.59      10.0  T
   7   -148.7932963 -0.105838E-07  0.553E-04    2.59      21.3  T
   8   -148.7932963 -0.137812E-07  0.117E-04    2.59     101.0  T
     SCC iter.                  ...        0 min,  0.204 sec
     gradient                   ...        0 min,  0.144 sec
 * total energy  :  -147.0090145 Eh     change       -0.9282701E-04 Eh
   gradient norm :     0.0101021 Eh/α   predicted    -0.1404592E-03 (  51.31%)
   displ. norm   :     0.1145090 α      lambda       -0.1585019E-03
   maximum displ.:     0.0440483 α      in ANC's #9, #11, #21, ...

........................................................................
.............................. CYCLE   39 ..............................
........................................................................
   1   -148.7968887 -0.148797E+03  0.244E-02    2.59       0.0  T
   2   -148.7968906 -0.188703E-05  0.148E-02    2.59       1.0  T
   3   -148.7968893  0.124272E-05  0.654E-03    2.59       1.8  T
   4   -148.7968911 -0.182450E-05  0.137E-03    2.59       8.6  T
   5   -148.7968913 -0.109047E-06  0.454E-04    2.59      25.9  T
   6   -148.7968913  0.876241E-09  0.277E-04    2.59      42.5  T
     SCC iter.                  ...        0 min,  0.156 sec
     gradient                   ...        0 min,  0.120 sec
 * total energy  :  -147.0091298 Eh     change       -0.1153444E-03 Eh
   gradient norm :     0.0061262 Eh/α   predicted    -0.8029416E-04 ( -30.39%)
   displ. norm   :     0.3932569 α      lambda       -0.1956233E-03
   maximum displ.:     0.1930402 α      in ANC's #1, #2, #3, ...

........................................................................
.............................. CYCLE   40 ..............................
........................................................................
   1   -148.7974267 -0.148797E+03  0.666E-02    2.60       0.0  T
   2   -148.7974340 -0.728975E-05  0.393E-02    2.60       1.0  T
   3   -148.7974234  0.106414E-04  0.153E-02    2.60       1.0  T
   4   -148.7974365 -0.131492E-04  0.322E-03    2.60       3.7  T
   5   -148.7974371 -0.569406E-06  0.128E-03    2.60       9.2  T
   6   -148.7974371 -0.192611E-07  0.754E-04    2.60      15.6  T
   7   -148.7974371 -0.148590E-07  0.331E-04    2.60      35.6  T
     SCC iter.                  ...        0 min,  0.178 sec
     gradient                   ...        0 min,  0.112 sec
 * total energy  :  -147.0092750 Eh     change       -0.1451291E-03 Eh
   gradient norm :     0.0048034 Eh/α   predicted    -0.1129430E-03 ( -22.18%)
   displ. norm   :     0.4743008 α      lambda       -0.2234829E-03
   maximum displ.:     0.2170922 α      in ANC's #2, #1, #3, ...

........................................................................
.............................. CYCLE   41 ..............................
........................................................................
   1   -148.7991121 -0.148799E+03  0.831E-02    2.61       0.0  T
   2   -148.7991227 -0.106120E-04  0.492E-02    2.61       1.0  T
   3   -148.7990998  0.229216E-04  0.211E-02    2.61       1.0  T
   4   -148.7991278 -0.280261E-04  0.371E-03    2.61       3.2  T
   5   -148.7991285 -0.680263E-06  0.169E-03    2.61       7.0  T
   6   -148.7991285 -0.302934E-07  0.105E-03    2.61      11.2  T
   7   -148.7991285 -0.329555E-07  0.356E-04    2.61      33.1  T
   8   -148.7991285 -0.354703E-08  0.120E-04    2.61      98.3  T
     SCC iter.                  ...        0 min,  0.206 sec
     gradient                   ...        0 min,  0.141 sec
 * total energy  :  -147.0094497 Eh     change       -0.1746976E-03 Eh
   gradient norm :     0.0069939 Eh/α   predicted    -0.1368792E-03 ( -21.65%)
   displ. norm   :     0.5729652 α      lambda       -0.2721514E-03
   maximum displ.:     0.2569180 α      in ANC's #2, #1, #3, ...

........................................................................
.............................. CYCLE   42 ..............................
........................................................................
   1   -148.7990242 -0.148799E+03  0.973E-02    2.62       0.0  T
   2   -148.7990337 -0.951156E-05  0.574E-02    2.63       1.0  T
   3   -148.7990112  0.224957E-04  0.202E-02    2.63       1.0  T
   4   -148.7990382 -0.269725E-04  0.387E-03    2.63       3.0  T
   5   -148.7990389 -0.689389E-06  0.193E-03    2.63       6.1  T
   6   -148.7990389 -0.178488E-07  0.115E-03    2.63      10.2  T
   7   -148.7990389 -0.520685E-07  0.331E-04    2.63      35.6  T
   8   -148.7990389 -0.300068E-08  0.123E-04    2.63      95.7  T
     SCC iter.                  ...        0 min,  0.206 sec
     gradient                   ...        0 min,  0.132 sec
 * total energy  :  -147.0096706 Eh     change       -0.2209435E-03 Eh
   gradient norm :     0.0087990 Eh/α   predicted    -0.1807514E-03 ( -18.19%)
   displ. norm   :     0.5110472 α      lambda       -0.3519231E-03
   maximum displ.:     0.2090561 α      in ANC's #9, #11, #2, ...
 * RMSD in coord.:     0.8768433 α      energy gain  -0.4665056E-02 Eh

generating ANC from model Hessian ...
Using Lindh-Hessian (1995)
 Shifting diagonal of input Hessian by    9.9304346951385129E-003
 Lowest  eigenvalues of input Hessian
    0.000000    0.000000    0.000000    0.000000    0.000000    0.000000
    0.010000    0.010145    0.010256    0.010422    0.010520    0.010529
    0.010662    0.011095    0.011329    0.011710    0.012034    0.012531
 Highest eigenvalues
    2.078587    2.109979    2.110900    2.355351    2.385912    2.400082


........................................................................
.............................. CYCLE   43 ..............................
........................................................................
   1   -148.8024364 -0.148802E+03  0.933E-02    2.64       0.0  T
   2   -148.8024445 -0.810218E-05  0.551E-02    2.64       1.0  T
   3   -148.8024263  0.181593E-04  0.179E-02    2.64       1.0  T
   4   -148.8024483 -0.219103E-04  0.322E-03    2.64       3.7  T
   5   -148.8024487 -0.402104E-06  0.180E-03    2.64       6.6  T
   6   -148.8024487 -0.739278E-07  0.101E-03    2.64      11.7  T
   7   -148.8024488 -0.251972E-07  0.364E-04    2.64      32.4  T
   8   -148.8024488 -0.405635E-08  0.119E-04    2.64      99.3  T
     SCC iter.                  ...        0 min,  0.209 sec
     gradient                   ...        0 min,  0.124 sec
 * total energy  :  -147.0099208 Eh     change       -0.2501568E-03 Eh
   gradient norm :     0.0099697 Eh/α   predicted     0.0000000E+00 (-100.00%)
   displ. norm   :     0.0804249 α      lambda       -0.2076746E-03
   maximum displ.:     0.0436523 α      in ANC's #25, #10, #13, ...

........................................................................
.............................. CYCLE   44 ..............................
........................................................................
   1   -148.8008056 -0.148801E+03  0.243E-02    2.64       0.0  T
   2   -148.8008073 -0.173495E-05  0.145E-02    2.64       1.0  T
   3   -148.8008055  0.178786E-05  0.741E-03    2.64       1.6  T
   4   -148.8008080 -0.250743E-05  0.133E-03    2.64       8.8  T
   5   -148.8008081 -0.108164E-06  0.537E-04    2.64      22.0  T
   6   -148.8008082 -0.857574E-08  0.298E-04    2.64      39.6  T
     SCC iter.                  ...        0 min,  0.154 sec
     gradient                   ...        0 min,  0.134 sec
 * total energy  :  -147.0100886 Eh     change       -0.1678093E-03 Eh
   gradient norm :     0.0051425 Eh/α   predicted    -0.1045666E-03 ( -37.69%)
   displ. norm   :     0.2131970 α      lambda       -0.3314037E-03
   maximum displ.:     0.1086571 α      in ANC's #25, #10, #7, ...

........................................................................
.............................. CYCLE   45 ..............................
........................................................................
   1   -148.7981393 -0.148798E+03  0.624E-02    2.64       0.0  T
   2   -148.7981436 -0.425029E-05  0.369E-02    2.64       1.0  T
   3   -148.7981290  0.146170E-04  0.165E-02    2.64       1.0  T
   4   -148.7981467 -0.177859E-04  0.226E-03    2.64       5.2  T
   5   -148.7981469 -0.163678E-06  0.136E-03    2.64       8.7  T
   6   -148.7981470 -0.481329E-07  0.685E-04    2.64      17.2  T
   7   -148.7981470 -0.894499E-08  0.242E-04    2.64      48.6  T
     SCC iter.                  ...        0 min,  0.189 sec
     gradient                   ...        0 min,  0.119 sec
 * total energy  :  -147.0103056 Eh     change       -0.2170004E-03 Eh
   gradient norm :     0.0053027 Eh/α   predicted    -0.1732345E-03 ( -20.17%)
   displ. norm   :     0.1956003 α      lambda       -0.1627847E-03
   maximum displ.:     0.0888811 α      in ANC's #25, #10, #7, ...

........................................................................
.............................. CYCLE   46 ..............................
........................................................................
   1   -148.7973420 -0.148797E+03  0.505E-02    2.64       0.0  T
   2   -148.7973458 -0.377514E-05  0.296E-02    2.64       1.0  T
   3   -148.7973423  0.347451E-05  0.852E-03    2.64       1.4  T
   4   -148.7973467 -0.442757E-05  0.225E-03    2.64       5.2  T
   5   -148.7973469 -0.237923E-06  0.110E-03    2.64      10.7  T
   6   -148.7973470 -0.208523E-07  0.660E-04    2.64      17.9  T
   7   -148.7973470 -0.759437E-08  0.233E-04    2.64      50.5  T
     SCC iter.                  ...        0 min,  0.183 sec
     gradient                   ...        0 min,  0.117 sec
 * total energy  :  -147.0104333 Eh     change       -0.1277663E-03 Eh
   gradient norm :     0.0083090 Eh/α   predicted    -0.8454609E-04 ( -33.83%)
   displ. norm   :     0.3313692 α      lambda       -0.2609563E-03
   maximum displ.:     0.1285339 α      in ANC's #25, #10, #7, ...

........................................................................
.............................. CYCLE   47 ..............................
........................................................................
   1   -148.7967067 -0.148797E+03  0.834E-02    2.65       0.0  T
   2   -148.7967262 -0.194989E-04  0.489E-02    2.65       1.0  T
   3   -148.7967208  0.540106E-05  0.145E-02    2.65       1.0  T
   4   -148.7967291 -0.826092E-05  0.381E-03    2.65       3.1  T
   5   -148.7967298 -0.770319E-06  0.191E-03    2.65       6.2  T
   6   -148.7967299 -0.888191E-07  0.114E-03    2.65      10.4  T
   7   -148.7967299 -0.141290E-07  0.435E-04    2.65      27.1  T
   8   -148.7967299 -0.100868E-07  0.106E-04    2.65     110.9  T
     SCC iter.                  ...        0 min,  0.207 sec
     gradient                   ...        0 min,  0.123 sec
 * total energy  :  -147.0106011 Eh     change       -0.1677923E-03 Eh
   gradient norm :     0.0122059 Eh/α   predicted    -0.1448056E-03 ( -13.70%)
   displ. norm   :     0.1802295 α      lambda       -0.2200750E-03
   maximum displ.:     0.0741968 α      in ANC's #7, #10, #26, ...

........................................................................
.............................. CYCLE   48 ..............................
........................................................................
   1   -148.7992760 -0.148799E+03  0.386E-02    2.66       0.0  T
   2   -148.7992833 -0.726690E-05  0.224E-02    2.66       1.0  T
   3   -148.7992810  0.224768E-05  0.101E-02    2.66       1.2  T
   4   -148.7992843 -0.326689E-05  0.269E-03    2.66       4.4  T
   5   -148.7992847 -0.400430E-06  0.790E-04    2.66      14.9  T
   6   -148.7992847 -0.764624E-08  0.474E-04    2.66      24.9  T
     SCC iter.                  ...        0 min,  0.154 sec
     gradient                   ...        0 min,  0.131 sec
 * total energy  :  -147.0107697 Eh     change       -0.1685713E-03 Eh
   gradient norm :     0.0081305 Eh/α   predicted    -0.1136711E-03 ( -32.57%)
   displ. norm   :     0.2573906 α      lambda       -0.2671727E-03
   maximum displ.:     0.1114666 α      in ANC's #7, #10, #26, ...

........................................................................
.............................. CYCLE   49 ..............................
........................................................................
   1   -148.8008872 -0.148801E+03  0.576E-02    2.67       0.0  T
   2   -148.8008932 -0.602900E-05  0.339E-02    2.67       1.0  T
   3   -148.8008832  0.100618E-04  0.163E-02    2.67       1.0  T
   4   -148.8008965 -0.133403E-04  0.245E-03    2.67       4.8  T
   5   -148.8008968 -0.236720E-06  0.118E-03    2.67      10.0  T
   6   -148.8008967  0.305027E-08  0.760E-04    2.67      15.5  T
   7   -148.8008968 -0.246940E-07  0.232E-04    2.67      50.8  T
     SCC iter.                  ...        0 min,  0.178 sec
     gradient                   ...        0 min,  0.127 sec
 * total energy  :  -147.0109575 Eh     change       -0.1877732E-03 Eh
   gradient norm :     0.0057386 Eh/α   predicted    -0.1424373E-03 ( -24.14%)
   displ. norm   :     0.3117314 α      lambda       -0.1959348E-03
   maximum displ.:     0.1332872 α      in ANC's #7, #10, #26, ...

........................................................................
.............................. CYCLE   50 ..............................
........................................................................
   1   -148.8004808 -0.148800E+03  0.628E-02    2.67       0.0  T
   2   -148.8004892 -0.834412E-05  0.368E-02    2.68       1.0  T
   3   -148.8004801  0.905295E-05  0.153E-02    2.68       1.0  T
   4   -148.8004919 -0.118364E-04  0.287E-03    2.68       4.1  T
   5   -148.8004923 -0.319588E-06  0.124E-03    2.68       9.5  T
   6   -148.8004923 -0.712188E-08  0.729E-04    2.68      16.2  T
   7   -148.8004923 -0.573772E-08  0.320E-04    2.68      36.8  T
     SCC iter.                  ...        0 min,  0.177 sec
     gradient                   ...        0 min,  0.118 sec
 * total energy  :  -147.0111008 Eh     change       -0.1433593E-03 Eh
   gradient norm :     0.0078807 Eh/α   predicted    -0.1075131E-03 ( -25.00%)
   displ. norm   :     0.3274236 α      lambda       -0.2829253E-03
   maximum displ.:     0.1381831 α      in ANC's #7, #9, #2, ...

........................................................................
.............................. CYCLE   51 ..............................
........................................................................
   1   -148.8025615 -0.148803E+03  0.644E-02    2.69       0.0  T
   2   -148.8025776 -0.160817E-04  0.387E-02    2.69       1.0  T
   3   -148.8025717  0.584473E-05  0.181E-02    2.69       1.0  T
   4   -148.8025823 -0.105562E-04  0.390E-03    2.69       3.0  T
   5   -148.8025831 -0.831441E-06  0.130E-03    2.69       9.0  T
   6   -148.8025831  0.101784E-08  0.799E-04    2.69      14.7  T
   7   -148.8025831 -0.193090E-07  0.353E-04    2.69      33.3  T
     SCC iter.                  ...        0 min,  0.180 sec
     gradient                   ...        0 min,  0.121 sec
 * total energy  :  -147.0111945 Eh     change       -0.9363694E-04 Eh
   gradient norm :     0.0130174 Eh/α   predicted    -0.1566371E-03 (  67.28%)
   displ. norm   :     0.4662489 α      lambda       -0.3710900E-03
   maximum displ.:     0.1945460 α      in ANC's #7, #10, #2, ...

........................................................................
.............................. CYCLE   52 ..............................
........................................................................
   1   -148.7963839 -0.148796E+03  0.989E-02    2.68       0.0  T
   2   -148.7964072 -0.233664E-04  0.586E-02    2.68       1.0  T
   3   -148.7963972  0.999161E-05  0.201E-02    2.68       1.0  T
   4   -148.7964135 -0.162208E-04  0.431E-03    2.68       2.7  T
   5   -148.7964141 -0.651285E-06  0.242E-03    2.68       4.9  T
   6   -148.7964142 -0.110475E-06  0.117E-03    2.68      10.1  T
   7   -148.7964142 -0.128125E-07  0.492E-04    2.68      24.0  T
   8   -148.7964142 -0.125494E-07  0.140E-04    2.68      84.0  T
     SCC iter.                  ...        0 min,  0.208 sec
     gradient                   ...        0 min,  0.125 sec
 * total energy  :  -147.0113237 Eh     change       -0.1291821E-03 Eh
   gradient norm :     0.0149886 Eh/α   predicted    -0.2258820E-03 (  74.86%)
   displ. norm   :     0.1264403 α      lambda       -0.2371467E-03
   maximum displ.:     0.0507584 α      in ANC's #26, #7, #10, ...

........................................................................
.............................. CYCLE   53 ..............................
........................................................................
   1   -148.8001095 -0.148800E+03  0.356E-02    2.69       0.0  T
   2   -148.8001149 -0.544669E-05  0.212E-02    2.68       1.0  T
   3   -148.8001127  0.223604E-05  0.118E-02    2.68       1.0  T
   4   -148.8001172 -0.450169E-05  0.232E-03    2.68       5.1  T
   5   -148.8001174 -0.260455E-06  0.816E-04    2.68      14.4  T
   6   -148.8001174  0.119473E-08  0.507E-04    2.68      23.2  T
     SCC iter.                  ...        0 min,  0.154 sec
     gradient                   ...        0 min,  0.129 sec
 * total energy  :  -147.0114602 Eh     change       -0.1365309E-03 Eh
   gradient norm :     0.0045070 Eh/α   predicted    -0.1204777E-03 ( -11.76%)
   displ. norm   :     0.2424234 α      lambda       -0.1380801E-03
   maximum displ.:     0.0961984 α      in ANC's #7, #2, #9, ...

........................................................................
.............................. CYCLE   54 ..............................
........................................................................
   1   -148.8004632 -0.148800E+03  0.424E-02    2.68       0.0  T
   2   -148.8004656 -0.239766E-05  0.251E-02    2.69       1.0  T
   3   -148.8004619  0.376286E-05  0.919E-03    2.69       1.3  T
   4   -148.8004665 -0.467437E-05  0.162E-03    2.69       7.3  T
   5   -148.8004666 -0.891966E-07  0.815E-04    2.69      14.5  T
   6   -148.8004666 -0.883833E-08  0.496E-04    2.69      23.7  T
     SCC iter.                  ...        0 min,  0.158 sec
     gradient                   ...        0 min,  0.146 sec
 * total energy  :  -147.0115707 Eh     change       -0.1105432E-03 Eh
   gradient norm :     0.0032290 Eh/α   predicted    -0.7309982E-04 ( -33.87%)
   displ. norm   :     0.4415083 α      lambda       -0.1795557E-03
   maximum displ.:     0.1751852 α      in ANC's #7, #2, #4, ...

........................................................................
.............................. CYCLE   55 ..............................
........................................................................
   1   -148.7994636 -0.148799E+03  0.770E-02    2.69       0.0  T
   2   -148.7994679 -0.432132E-05  0.457E-02    2.69       1.0  T
   3   -148.7994592  0.869605E-05  0.132E-02    2.69       1.0  T
   4   -148.7994703 -0.110864E-04  0.246E-03    2.69       4.8  T
   5   -148.7994704 -0.116535E-06  0.140E-03    2.69       8.4  T
   6   -148.7994704 -0.105038E-07  0.557E-04    2.69      21.2  T
   7   -148.7994704 -0.100244E-07  0.228E-04    2.69      51.8  T
     SCC iter.                  ...        0 min,  0.178 sec
     gradient                   ...        0 min,  0.147 sec
 * total energy  :  -147.0116969 Eh     change       -0.1261501E-03 Eh
   gradient norm :     0.0044684 Eh/α   predicted    -0.1072803E-03 ( -14.96%)
   displ. norm   :     0.3402487 α      lambda       -0.9419389E-04
   maximum displ.:     0.1373972 α      in ANC's #2, #7, #4, ...

........................................................................
.............................. CYCLE   56 ..............................
........................................................................
   1   -148.7989649 -0.148799E+03  0.572E-02    2.69       0.0  T
   2   -148.7989698 -0.490573E-05  0.337E-02    2.70       1.0  T
   3   -148.7989654  0.435710E-05  0.982E-03    2.70       1.2  T
   4   -148.7989709 -0.550562E-05  0.243E-03    2.70       4.8  T
   5   -148.7989712 -0.257736E-06  0.104E-03    2.70      11.4  T
   6   -148.7989712 -0.433965E-08  0.621E-04    2.70      19.0  T
   7   -148.7989712 -0.893991E-08  0.234E-04    2.70      50.4  T
     SCC iter.                  ...        0 min,  0.180 sec
     gradient                   ...        0 min,  0.036 sec
 * total energy  :  -147.0117612 Eh     change       -0.6435072E-04 Eh
   gradient norm :     0.0049134 Eh/α   predicted    -0.5254969E-04 ( -18.34%)
   displ. norm   :     0.2544731 α      lambda       -0.1137287E-03
   maximum displ.:     0.1135675 α      in ANC's #2, #4, #7, ...

........................................................................
.............................. CYCLE   57 ..............................
........................................................................
   1   -148.8017876 -0.148802E+03  0.431E-02    2.71       0.0  T
   2   -148.8017960 -0.833896E-05  0.259E-02    2.71       1.0  T
   3   -148.8017934  0.254644E-05  0.118E-02    2.71       1.0  T
   4   -148.8017977 -0.428053E-05  0.293E-03    2.71       4.0  T
   5   -148.8017983 -0.563994E-06  0.104E-03    2.71      11.3  T
   6   -148.8017983 -0.367143E-07  0.557E-04    2.71      21.2  T
   7   -148.8017983 -0.541732E-08  0.301E-04    2.71      39.2  T
     SCC iter.                  ...        0 min,  0.177 sec
     gradient                   ...        0 min,  0.128 sec
 * total energy  :  -147.0118188 Eh     change       -0.5760642E-04 Eh
   gradient norm :     0.0047979 Eh/α   predicted    -0.6054940E-04 (   5.11%)
   displ. norm   :     0.2011126 α      lambda       -0.6453739E-04
   maximum displ.:     0.0921101 α      in ANC's #2, #4, #7, ...

........................................................................
.............................. CYCLE   58 ..............................
........................................................................
   1   -148.8017127 -0.148802E+03  0.353E-02    2.71       0.0  T
   2   -148.8017180 -0.530749E-05  0.206E-02    2.71       1.0  T
   3   -148.8017162  0.172952E-05  0.840E-03    2.71       1.4  T
   4   -148.8017185 -0.230198E-05  0.246E-03    2.71       4.8  T
   5   -148.8017189 -0.347764E-06  0.719E-04    2.71      16.4  T
   6   -148.8017189 -0.117683E-07  0.421E-04    2.71      28.0  T
     SCC iter.                  ...        0 min,  0.161 sec
     gradient                   ...        0 min,  0.132 sec
 * total energy  :  -147.0118628 Eh     change       -0.4401316E-04 Eh
   gradient norm :     0.0021948 Eh/α   predicted    -0.3357544E-04 ( -23.71%)
   displ. norm   :     0.1341506 α      lambda       -0.4769144E-04
   maximum displ.:     0.0638131 α      in ANC's #2, #4, #1, ...

........................................................................
.............................. CYCLE   59 ..............................
........................................................................
   1   -148.8019893 -0.148802E+03  0.242E-02    2.72       0.0  T
   2   -148.8019899 -0.640627E-06  0.143E-02    2.72       1.0  T
   3   -148.8019884  0.144902E-05  0.529E-03    2.72       2.2  T
   4   -148.8019902 -0.174783E-05  0.815E-04    2.72      14.5  T
   5   -148.8019902 -0.245902E-07  0.402E-04    2.72      29.3  T
   6   -148.8019902 -0.159349E-08  0.232E-04    2.72      50.9  T
     SCC iter.                  ...        0 min,  0.152 sec
     gradient                   ...        0 min,  0.145 sec
 * total energy  :  -147.0119021 Eh     change       -0.3929841E-04 Eh
   gradient norm :     0.0022454 Eh/α   predicted    -0.2428116E-04 ( -38.21%)
   displ. norm   :     0.2412083 α      lambda       -0.8310157E-04
   maximum displ.:     0.1063367 α      in ANC's #1, #2, #4, ...

........................................................................
.............................. CYCLE   60 ..............................
........................................................................
   1   -148.8018587 -0.148802E+03  0.422E-02    2.73       0.0  T
   2   -148.8018600 -0.129002E-05  0.250E-02    2.73       1.0  T
   3   -148.8018571  0.290128E-05  0.712E-03    2.73       1.7  T
   4   -148.8018605 -0.348730E-05  0.125E-03    2.73       9.4  T
   5   -148.8018606 -0.508948E-07  0.646E-04    2.73      18.2  T
   6   -148.8018606 -0.382425E-08  0.329E-04    2.73      35.8  T
     SCC iter.                  ...        0 min,  0.156 sec
     gradient                   ...        0 min,  0.124 sec
 * total energy  :  -147.0119641 Eh     change       -0.6191091E-04 Eh
   gradient norm :     0.0025322 Eh/α   predicted    -0.4397400E-04 ( -28.97%)
   displ. norm   :     0.2624013 α      lambda       -0.6541375E-04
   maximum displ.:     0.1227006 α      in ANC's #1, #2, #4, ...

........................................................................
.............................. CYCLE   61 ..............................
........................................................................
[...]
       115        2.0000           -0.4367482             -11.8845
       116        2.0000           -0.4336176             -11.7993
       117        2.0000           -0.4319017             -11.7526
       118        2.0000           -0.4297724             -11.6947
       119        2.0000           -0.4232333             -11.5168
       120        2.0000           -0.4196419             -11.4190
       121        2.0000           -0.4185242             -11.3886
       122        2.0000           -0.4163275             -11.3288
       123        2.0000           -0.4153832             -11.3032
       124        2.0000           -0.4113006             -11.1921
       125        2.0000           -0.4025364             -10.9536
       126        2.0000           -0.3931831             -10.6991
       127        2.0000           -0.3803453             -10.3497 (HOMO)
       128                         -0.2797476              -7.6123 (LUMO)
       129                         -0.2742649              -7.4631
       130                         -0.2724578              -7.4140
       131                         -0.2655958              -7.2272
       132                         -0.2634317              -7.1683
       133                         -0.2456796              -6.6853
       134                         -0.2442809              -6.6472
       135                         -0.2393887              -6.5141
       136                         -0.2304667              -6.2713
       137                         -0.2141921              -5.8285
       138                         -0.2093793              -5.6975
       ...                                ...                  ...
       222                          0.6904817              18.7890
      -------------------------------------------------------------
                  HL-Gap            0.1005977 Eh            2.7374 eV
             Fermi-level           -0.3300464 Eh           -8.9810 eV

     #   Z          covCN         q      C6AA      α(0)
     1   6 C        2.922    -0.033    28.820     8.804
     2   6 C        2.915    -0.030    28.756     8.793
     3   6 C        2.917    -0.030    28.756     8.794
     4   6 C        2.917    -0.040    28.991     8.829
     5   6 C        2.981     0.004    27.920     8.668
     6   6 C        2.989     0.013    27.714     8.636
     7   6 C        2.921    -0.034    28.845     8.807
     8   6 C        2.914    -0.029    28.721     8.788
     9   6 C        2.923    -0.041    29.026     8.835
    10   6 C        2.966    -0.011    28.294     8.725
    11   6 C        3.824     0.034    19.986     6.362
    12   6 C        3.859     0.039    19.879     6.341
    13   6 C        2.965     0.010    27.802     8.649
    14   6 C        2.920    -0.034    28.858     8.809
    15   6 C        2.915    -0.028    28.691     8.783
    16   6 C        2.919    -0.032    28.806     8.801
    17   6 C        2.989     0.020    27.550     8.610
    18   6 C        2.987     0.018    27.605     8.619
    19   6 C        2.917    -0.034    28.837     8.806
    20   6 C        2.917    -0.028    28.705     8.786
    21   6 C        2.915    -0.029    28.719     8.788
    22   6 C        2.921    -0.032    28.796     8.800
    23   7 N        2.768    -0.113    23.460     7.194
    24   6 C        2.754     0.281    22.247     7.724
    25   6 C        3.074    -0.035    28.802     8.799
    26   6 C        3.142     0.075    26.098     8.359
    27   6 C        3.330     0.489    17.325     6.605
    28   9 F        0.791    -0.189    11.118     3.939
    29   9 F        0.791    -0.190    11.130     3.941
    30   9 F        0.791    -0.209    11.326     3.975
    31   8 O        1.729    -0.143    16.463     5.479
    32   6 C        3.081     0.083    26.060     8.369
    33   6 C        3.021    -0.054    29.324     8.883
    34   8 O        0.858    -0.386    21.412     6.204
    35   6 C        3.801     0.091    19.084     6.220
    36   6 C        2.688     0.366    20.791     7.462
    37   8 O        1.660    -0.353    19.964     6.032
    38   8 O        0.856    -0.384    21.360     6.196
    39   7 N        2.774    -0.113    23.471     7.195
    40   6 C        2.765     0.278    22.305     7.734
    41   6 C        3.072    -0.028    28.625     8.772
    42   6 C        3.138     0.083    25.936     8.335
    43   6 C        3.330     0.490    17.321     6.604
    44   9 F        0.792    -0.188    11.111     3.937
    45   9 F        0.791    -0.191    11.143     3.943
    46   9 F        0.792    -0.196    11.196     3.953
    47   8 O        1.730    -0.145    16.483     5.482
    48   6 C        3.077     0.082    26.099     8.376
    49   6 C        3.021    -0.057    29.391     8.893
    50   8 O        0.860    -0.424    22.174     6.313
    51   1 H        0.926     0.040     2.447     2.446
    52   1 H        0.926     0.037     2.484     2.464
    53   1 H        0.926     0.037     2.485     2.465
    54   1 H        0.926     0.031     2.566     2.505
    55   1 H        0.926     0.045     2.379     2.412
    56   1 H        0.926     0.049     2.330     2.387
    57   1 H        0.926     0.058     2.217     2.328
    58   1 H        0.924     0.062     2.173     2.305
    59   1 H        0.923     0.081     1.968     2.194
    60   1 H        0.926     0.036     2.506     2.475
    61   1 H        0.926     0.037     2.489     2.467
    62   1 H        0.926     0.039     2.464     2.455
    63   1 H        0.926     0.026     2.645     2.543
    64   1 H        0.926     0.031     2.573     2.508
    65   1 H        0.926     0.034     2.535     2.490
    66   1 H        0.926     0.036     2.500     2.473
    67   1 H        0.926     0.085     1.931     2.173
    68   1 H        0.927     0.071     2.077     2.253
    69   1 H        0.924     0.072     2.066     2.248
    70   1 H        0.804     0.351     0.587     1.203
    71   1 H        0.926     0.081     1.965     2.192
    72   1 H        0.927     0.071     2.071     2.250

 Mol. C6AA /au·bohr⁶  :      74192.413635
 Mol. C8AA /au·bohr⁸  :    1818746.298094
 Mol. α(0) /au        :        423.989014


Wiberg/Mayer (AO) data.
largest (>0.10) Wiberg bond orders for each atom

 ---------------------------------------------------------------------------
     #   Z sym  total        # sym  WBO       # sym  WBO       # sym  WBO
 ---------------------------------------------------------------------------
     1   6 C    3.991 --     2 C    1.558     6 C    1.279    51 H    0.968
                             4 C    0.118
     2   6 C    3.992 --     1 C    1.558     3 C    1.322    52 H    0.970
     3   6 C    3.990 --     4 C    1.554     2 C    1.322    53 H    0.971
     4   6 C    3.992 --     3 C    1.554     5 C    1.282    54 H    0.958
                             1 C    0.118
     5   6 C    3.988 --     4 C    1.282    10 C    1.253     6 C    1.252
     6   6 C    3.990 --     7 C    1.281     1 C    1.279     5 C    1.252
     7   6 C    3.989 --     8 C    1.549     6 C    1.281    55 H    0.967
                            10 C    0.114
     8   6 C    3.991 --     7 C    1.549     9 C    1.331    56 H    0.969
     9   6 C    3.988 --    10 C    1.517     8 C    1.331    57 H    0.960
    10   6 C    3.983 --     9 C    1.517     5 C    1.253    11 C    0.995
                             7 C    0.114
    11   6 C    3.956 --    10 C    0.995    12 C    0.954    58 H    0.946
                            39 N    0.944
    12   6 C    3.950 --    13 C    0.997    11 C    0.954    23 N    0.939
                            59 H    0.934
    13   6 C    3.981 --    14 C    1.535    18 C    1.239    12 C    0.997
                            16 C    0.114
    14   6 C    3.990 --    13 C    1.535    15 C    1.316    60 H    0.962
    15   6 C    3.992 --    16 C    1.562    14 C    1.316    61 H    0.970
    16   6 C    3.991 --    15 C    1.562    17 C    1.272    62 H    0.968
                            13 C    0.114
    17   6 C    3.990 --    22 C    1.282    16 C    1.272    18 C    1.259
    18   6 C    3.989 --    19 C    1.289    17 C    1.259    13 C    1.239
    19   6 C    3.993 --    20 C    1.551    18 C    1.289    63 H    0.966
                            22 C    0.118
    20   6 C    3.992 --    19 C    1.551    21 C    1.326    64 H    0.971
    21   6 C    3.992 --    22 C    1.554    20 C    1.326    65 H    0.971
    22   6 C    3.991 --    21 C    1.554    17 C    1.282    66 H    0.968
                            19 C    0.118
    23   7 N    3.464 --    24 C    1.210    35 C    0.990    12 C    0.939
                            34 O    0.195
    24   6 C    3.955 --    34 O    1.717    23 N    1.210    25 C    0.951
    25   6 C    3.979 --    26 C    1.525    33 C    1.275    24 C    0.951
    26   6 C    3.898 --    25 C    1.525    31 O    1.125    27 C    0.959
                            32 C    0.147
    27   6 C    3.848 --    26 C    0.959    29 F    0.958    28 F    0.954
                            30 F    0.940
    28   9 F    1.090 --    27 C    0.954
    29   9 F    1.086 --    27 C    0.958
    30   9 F    1.065 --    27 C    0.940
    31   8 O    2.479 --    32 C    1.155    26 C    1.125
    32   6 C    3.903 --    33 C    1.598    31 O    1.155    67 H    0.961
                            26 C    0.147
    33   6 C    3.980 --    32 C    1.598    25 C    1.275    68 H    0.972
    34   8 O    2.062 --    24 C    1.717    23 N    0.195
    35   6 C    3.965 --    23 N    0.990    39 N    0.965    69 H    0.947
                            36 C    0.910
    36   6 C    3.924 --    38 O    1.771    37 O    1.169    35 C    0.910
    37   8 O    2.231 --    36 C    1.169    70 H    0.851    38 O    0.183
    38   8 O    2.065 --    36 C    1.771    37 O    0.183
    39   7 N    3.473 --    40 C    1.237    35 C    0.965    11 C    0.944
                            50 O    0.197
    40   6 C    3.955 --    50 O    1.659    39 N    1.237    41 C    0.978
    41   6 C    3.980 --    42 C    1.522    49 C    1.265    40 C    0.978
    42   6 C    3.903 --    41 C    1.522    47 O    1.131    43 C    0.957
                            48 C    0.143
    43   6 C    3.853 --    44 F    0.963    42 C    0.957    45 F    0.948
                            46 F    0.948
    44   9 F    1.089 --    43 C    0.963
    45   9 F    1.084 --    43 C    0.948
    46   9 F    1.077 --    43 C    0.948
    47   8 O    2.478 --    48 C    1.150    42 C    1.131
    48   6 C    3.903 --    49 C    1.604    47 O    1.150    71 H    0.962
                            42 C    0.143
    49   6 C    3.980 --    48 C    1.604    41 C    1.265    72 H    0.971
    50   8 O    2.023 --    40 C    1.659    39 N    0.197
    51   1 H    0.998 --     1 C    0.968
    52   1 H    0.998 --     2 C    0.970
    53   1 H    0.998 --     3 C    0.971
    54   1 H    0.999 --     4 C    0.958
    55   1 H    0.997 --     7 C    0.967
    56   1 H    0.996 --     8 C    0.969
    57   1 H    0.996 --     9 C    0.960
    58   1 H    0.996 --    11 C    0.946
    59   1 H    0.993 --    12 C    0.934
    60   1 H    0.998 --    14 C    0.962
    61   1 H    0.998 --    15 C    0.970
    62   1 H    0.997 --    16 C    0.968
    63   1 H    0.999 --    19 C    0.966
    64   1 H    0.999 --    20 C    0.971
    65   1 H    0.998 --    21 C    0.971
    66   1 H    0.998 --    22 C    0.968
    67   1 H    0.991 --    32 C    0.961
    68   1 H    0.995 --    33 C    0.972
    69   1 H    0.994 --    35 C    0.947
    70   1 H    0.877 --    37 O    0.851
    71   1 H    0.992 --    48 C    0.962
    72   1 H    0.995 --    49 C    0.971
 ---------------------------------------------------------------------------

Topologies differ in total number of bonds
Writing topology from bond orders to xtbtopo.mol

molecular dipole:
                 x           y           z       tot (Debye)
 q only:        0.930       0.487      -0.242
   full:        0.707       0.134      -0.247       1.934
molecular quadrupole (traceless):
                xx          xy          yy          xz          yz          zz
 q only:       -7.373     -18.053      21.069      33.435     -20.209     -13.696
  q+dip:      -11.006     -23.270      19.171      38.264     -23.288      -8.165
   full:       -9.059     -20.693      20.731      36.456     -21.122     -11.672

           -------------------------------------------------
          |                Geometry Summary                 |
           -------------------------------------------------

      molecular mass/u    :      692.5614438
   center of mass at/Å    :       -0.2991145      -0.4225541       0.0397476
  moments of inertia/u·Å² :        0.6154410E+04   0.9289467E+04   0.1088939E+05
rotational constants/cm⁻¹ :        0.2739114E-02   0.1814704E-02   0.1548079E-02

 * 72 selected distances

     #   Z          #   Z                                           value/Å
     1   6 C        2   6 C                                       1.3649213
     2   6 C        3   6 C                                       1.4014473
     3   6 C        4   6 C                                       1.3670200
     4   6 C        5   6 C                                       1.4135931
     1   6 C        6   6 C                                       1.4111420
     5   6 C        6   6 C                                       1.4236485
     6   6 C        7   6 C                                       1.4094565
     7   6 C        8   6 C                                       1.3648806
     8   6 C        9   6 C                                       1.3993773
     5   6 C       10   6 C                                       1.4229966
     9   6 C       10   6 C                                       1.3752189
    13   6 C       14   6 C                                       1.3693769
    14   6 C       15   6 C                                       1.4025769
    15   6 C       16   6 C                                       1.3632244
    16   6 C       17   6 C                                       1.4105024
    13   6 C       18   6 C                                       1.4247458
    17   6 C       18   6 C                                       1.4197777
    18   6 C       19   6 C                                       1.4113440
    19   6 C       20   6 C                                       1.3677271
    20   6 C       21   6 C                                       1.4013088
    17   6 C       22   6 C                                       1.4101868
    21   6 C       22   6 C                                       1.3656678
    12   6 C       23   7 N                                       1.4697017
    23   7 N       24   6 C                                       1.3583016
    25   6 C       26   6 C                                       1.3711597
    26   6 C       27   6 C                                       1.4914877
    27   6 C       28   9 F                                       1.3390631
    27   6 C       29   9 F                                       1.3384287
    27   6 C       30   9 F                                       1.3476855
    26   6 C       31   8 O                                       1.3460784
    31   8 O       32   6 C                                       1.3366579
    25   6 C       33   6 C                                       1.4189156
    32   6 C       33   6 C                                       1.3623052
    24   6 C       34   8 O                                       1.2067271
    23   7 N       35   6 C                                       1.4398510
    36   6 C       37   8 O                                       1.3231957
    36   6 C       38   8 O                                       1.1989604
    11   6 C       39   7 N                                       1.4644621
    35   6 C       39   7 N                                       1.4562729
    39   7 N       40   6 C                                       1.3492563
    41   6 C       42   6 C                                       1.3709730
    42   6 C       43   6 C                                       1.4925428 (max)
    43   6 C       44   9 F                                       1.3335645
    43   6 C       45   9 F                                       1.3429828
    43   6 C       46   9 F                                       1.3436344
    42   6 C       47   8 O                                       1.3447758
    47   8 O       48   6 C                                       1.3367840
    41   6 C       49   6 C                                       1.4210365
    48   6 C       49   6 C                                       1.3601306
    40   6 C       50   8 O                                       1.2167697
     1   6 C       51   1 H                                       1.0802590
     2   6 C       52   1 H                                       1.0796364
     3   6 C       53   1 H                                       1.0799387
     4   6 C       54   1 H                                       1.0790852
     7   6 C       55   1 H                                       1.0797503
     8   6 C       56   1 H                                       1.0786902
     9   6 C       57   1 H                                       1.0797144
    11   6 C       58   1 H                                       1.0937283
    12   6 C       59   1 H                                       1.0981477
    14   6 C       60   1 H                                       1.0768789
    15   6 C       61   1 H                                       1.0798089
    16   6 C       62   1 H                                       1.0804282
    19   6 C       63   1 H                                       1.0792636
    20   6 C       64   1 H                                       1.0805202
    21   6 C       65   1 H                                       1.0800883
    22   6 C       66   1 H                                       1.0807267
    32   6 C       67   1 H                                       1.0719350
    33   6 C       68   1 H                                       1.0698061
    35   6 C       69   1 H                                       1.0953266
    37   8 O       70   1 H                                       0.9717820 (min)
    48   6 C       71   1 H                                       1.0716230
    49   6 C       72   1 H                                       1.0694453

 * 6 distinct bonds (by element types)

   Z      Z             #   av. dist./Å        max./Å        min./Å
   1 H    6 C          21     1.0802286     1.0981477     1.0694453
   6 C    6 C          30     1.3996231     1.4925428     1.3601306
   6 C    7 N           6     1.4229743     1.4697017     1.3492563
   1 H    8 O           1     0.9717820     0.9717820     0.9717820
   6 C    8 O           8     1.2887436     1.3460784     1.1989604
   6 C    9 F           6     1.3408932     1.3476855     1.3335645


optimized geometry written to: xtbopt.xyz


           -------------------------------------------------
          | TOTAL ENERGY             -147.012702338463 Eh   |
          | GRADIENT NORM               0.000785316781 Eh/α |
          | HOMO-LUMO GAP               2.737401917773 eV   |
           -------------------------------------------------

------------------------------------------------------------------------
 * finished run on 2022/03/17 at 00:32:40.470     
------------------------------------------------------------------------
 total:
 * wall-time:     0 d,  0 h,  0 min, 46.000 sec
 *  cpu-time:     0 d,  0 h, 15 min,  9.212 sec
 * ratio c/w:    19.765 speedup
 SCF:
 * wall-time:     0 d,  0 h,  0 min,  0.601 sec
 *  cpu-time:     0 d,  0 h,  0 min,  9.631 sec
 * ratio c/w:    16.011 speedup
 ANC optimizer:
 * wall-time:     0 d,  0 h,  0 min, 45.261 sec
 *  cpu-time:     0 d,  0 h, 14 min, 55.568 sec
 * ratio c/w:    19.787 speedup

