      -----------------------------------------------------------      
     |                   =====================                   |     
     |                           x T B                           |     
     |                   =====================                   |     
     |                         S. Grimme                         |     
     |          Mulliken Center for Theoretical Chemistry        |     
     |                    University of Bonn                     |     
      -----------------------------------------------------------      

   * xtb version 6.3.3 (4ae9cef) compiled by 'conda@95abc7406d43' on 2020-10-14

   xtb is free software: you can redistribute it and/or modify it under
   the terms of the GNU Lesser General Public License as published by
   the Free Software Foundation, either version 3 of the License, or
   (at your option) any later version.
   
   xtb is distributed in the hope that it will be useful,
   but WITHOUT ANY WARRANTY; without even the implied warranty of
   MERCHANTABILITY or FITNESS FOR A PARTICULAR PURPOSE.  See the
   GNU Lesser General Public License for more details.
   
   Cite this work as:
   * C. Bannwarth, E. Caldeweyher, S. Ehlert, A. Hansen, P. Pracht,
     J. Seibert, S. Spicher, S. Grimme, WIREs Comput. Mol. Sci., 2020,
     e01493. DOI: 10.1002/wcms.1493
   
   for GFN2-xTB:
   * S. Grimme, C. Bannwarth, P. Shushkov, J. Chem. Theory Comput., 2017,
     13, 1989-2009. DOI: 10.1021/acs.jctc.7b00118
   for GFN1-xTB:
   * C. Bannwarth, S. Ehlert and S. Grimme., J. Chem. Theory Comput., 2019,
     15, 1652-1671. DOI: 10.1021/acs.jctc.8b01176
   for GFN0-xTB:
   * P. Pracht, E. Caldeweyher, S. Ehlert, S. Grimme, ChemRxiv, 2019, preprint.
     DOI: 10.26434/chemrxiv.8326202.v1
   for GFN-FF:
   * S. Spicher and S. Grimme, Angew. Chem. Int. Ed., 2020, 59, 15665-15673.
     DOI: 10.1002/anie.202004239
   
   for DFT-D4:
   * E. Caldeweyher, C. Bannwarth and S. Grimme, J. Chem. Phys., 2017,
     147, 034112. DOI: 10.1063/1.4993215
   * E. Caldeweyher, S. Ehlert, A. Hansen, H. Neugebauer, S. Spicher,
     C. Bannwarth and S. Grimme, J. Chem. Phys., 2019, 150, 154122.
     DOI: 10.1063/1.5090222
   * E. Caldeweyher, J.-M. Mewes, S. Ehlert and S. Grimme, Phys. Chem. Chem. Phys.
     2020, 22, 8499-8512. DOI: 10.1039/D0CP00502A
   
   for sTDA-xTB:
   * S. Grimme and C. Bannwarth, J. Chem. Phys., 2016, 145, 054103.
     DOI: 10.1063/1.4959605
   
   in the mass-spec context:
   * V. Asgeirsson, C. Bauer and S. Grimme, Chem. Sci., 2017, 8, 4879.
     DOI: 10.1039/c7sc00601b
   * J. Koopman and S. Grimme, ACS Omega 2019, 4, 12, 15120-15133.
     DOI: 10.1021/acsomega.9b02011
   
   for metadynamics refer to:
   * S. Grimme, J. Chem. Theory Comput., 2019, 155, 2847-2862
     DOI: 10.1021/acs.jctc.9b00143
   
   with help from (in alphabetical order)
   C. Bannwarth, F. Bohle, G. Brandenburg, E. Caldeweyher, M. Checinski,
   S. Dohm, S. Ehlert, S. Ehrlich, F. März, H. Neugebauer, J. Pisarek,
   P. Pracht, P. Shushkov, and S. Spicher.
   
 * started run on 2022/03/17 at 02:14:31.826     

           -------------------------------------------------
          |                Calculation Setup                |
           -------------------------------------------------

          program call               : xtb acid_92.xyz --opt --chrg 0 --uhf 0 --gfn 2
          coordinate file            : acid_92.xyz
          omp threads                :                    64
          number of atoms            :                    66
          number of electrons        :                   206
          charge                     :                     0
          spin                       :                   0.0
          first test random number   :      0.86258742026948

   ID    Z sym.   atoms
    1    6 C      1-22, 24-28, 31, 32, 36-40
    2    7 N      23, 35
    3    8 O      29, 30, 33, 34, 41, 42
    4    1 H      43-66

           -------------------------------------------------
          |                 G F N 2 - x T B                 |
           -------------------------------------------------

        Reference                      10.1021/acs.jctc.8b01176
      * Hamiltonian:
        H0-scaling (s, p, d)           1.850000    2.230000    2.230000
        zeta-weighting                 0.500000
      * Dispersion:
        s8                             2.700000
        a1                             0.520000
        a2                             5.000000
        s9                             5.000000
      * Repulsion:
        kExp                           1.500000    1.000000
        rExp                           1.000000
      * Coulomb:
        alpha                          2.000000
        third order                    shell-resolved
        anisotropic                    true
        a3                             3.000000
        a5                             4.000000
        cn-shift                       1.200000
        cn-exp                         4.000000
        max-rad                        5.000000


          ...................................................
          :                      SETUP                      :
          :.................................................:
          :  # basis functions                 192          :
          :  # atomic orbitals                 192          :
          :  # shells                          108          :
          :  # electrons                       206          :
          :  max. iterations                   250          :
          :  Hamiltonian                  GFN2-xTB          :
          :  restarted?                      false          :
          :  GBSA solvation                  false          :
          :  PC potential                    false          :
          :  electronic temp.          300.0000000     K    :
          :  accuracy                    1.0000000          :
          :  -> integral cutoff          0.2500000E+02      :
          :  -> integral neglect         0.1000000E-07      :
          :  -> SCF convergence          0.1000000E-05 Eh   :
          :  -> wf. convergence          0.1000000E-03 e    :
          :  Broyden damping             0.4000000          :
          ...................................................

 iter      E             dE          RMSdq      gap      omega  full diag
   1   -116.7721728 -0.116772E+03  0.446E+00    2.27       0.0  T
   2   -116.8964969 -0.124324E+00  0.267E+00    2.51       1.0  T
   3   -116.8800678  0.164290E-01  0.126E+00    2.43       1.0  T
   4   -116.9150939 -0.350261E-01  0.367E-01    2.23       1.0  T
   5   -116.9220094 -0.691550E-02  0.128E-01    2.25       1.0  T
   6   -116.9226311 -0.621715E-03  0.738E-02    2.26       1.0  T
   7   -116.9228938 -0.262727E-03  0.274E-02    2.27       1.0  T
   8   -116.9228981 -0.425962E-05  0.137E-02    2.27       1.0  T
   9   -116.9229031 -0.498705E-05  0.486E-03    2.27       2.5  T
  10   -116.9229037 -0.674499E-06  0.258E-03    2.27       4.8  T
  11   -116.9229040 -0.232307E-06  0.110E-03    2.27      11.2  T
  12   -116.9229040 -0.216614E-07  0.504E-04    2.27      24.4  T
  13   -116.9229040 -0.481053E-08  0.210E-04    2.27      58.7  T

   *** convergence criteria satisfied after 13 iterations ***

         #    Occupation            Energy/Eh            Energy/eV
      -------------------------------------------------------------
         1        2.0000           -0.7616055             -20.7243
       ...           ...                  ...                  ...
        97        2.0000           -0.4119625             -11.2101
        98        2.0000           -0.4092160             -11.1353
        99        2.0000           -0.4052694             -11.0279
       100        2.0000           -0.4003354             -10.8937
       101        2.0000           -0.3932507             -10.7009
       102        2.0000           -0.3880597             -10.5596
       103        2.0000           -0.3710218             -10.0960 (HOMO)
       104                         -0.2875152              -7.8237 (LUMO)
       105                         -0.2834853              -7.7140
       106                         -0.2741454              -7.4599
       107                         -0.2652793              -7.2186
       108                         -0.2582850              -7.0283
       ...                                ...                  ...
       192                          0.6796727              18.4948
      -------------------------------------------------------------
                  HL-Gap            0.0835066 Eh            2.2723 eV
             Fermi-level           -0.3292685 Eh           -8.9599 eV

 SCC (total)                   0 d,  0 h,  0 min,  0.480 sec
 SCC setup                      ...        0 min,  0.011 sec (  2.264%)
 Dispersion                     ...        0 min,  0.017 sec (  3.541%)
 classical contributions        ...        0 min,  0.011 sec (  2.249%)
 integral evaluation            ...        0 min,  0.079 sec ( 16.497%)
 iterations                     ...        0 min,  0.231 sec ( 48.164%)
 molecular gradient             ...        0 min,  0.129 sec ( 26.777%)
 printout                       ...        0 min,  0.002 sec (  0.490%)

         :::::::::::::::::::::::::::::::::::::::::::::::::::::
         ::                     SUMMARY                     ::
         :::::::::::::::::::::::::::::::::::::::::::::::::::::
         :: total energy            -115.311315262194 Eh    ::
         :: gradient norm              0.138630853971 Eh/a0 ::
         :: HOMO-LUMO gap              2.272330573549 eV    ::
         ::.................................................::
         :: SCC energy              -116.922904001192 Eh    ::
         :: -> isotropic ES            0.135017045716 Eh    ::
         :: -> anisotropic ES          0.002439761490 Eh    ::
         :: -> anisotropic XC          0.042839422325 Eh    ::
         :: -> dispersion             -0.095328151227 Eh    ::
         :: repulsion energy           1.608363030895 Eh    ::
         :: add. restraining           0.000000000000 Eh    ::
         :: total charge              -0.000000000000 e     ::
         :::::::::::::::::::::::::::::::::::::::::::::::::::::

      ----------------------------------------------------------- 
     |                   =====================                   |
     |                        A N C O P T                        |
     |                   =====================                   |
     |               Approximate Normal Coordinate               |
     |                Rational Function Optimizer                |
      ----------------------------------------------------------- 

          ...................................................
          :                      SETUP                      :
          :.................................................:
          :   optimization level            normal          :
          :   max. optcycles                   200          :
          :   ANC micro-cycles                  20          :
          :   degrees of freedom               192          :
          :.................................................:
          :   RF solver                   davidson          :
          :   write xtbopt.log                true          :
          :   linear?                        false          :
          :   energy convergence         0.5000000E-05 Eh   :
          :   grad. convergence          0.1000000E-02 Eh/α :
          :   maximium RF displ.         1.0000000          :
          :   Hlow (freq-cutoff)         0.1000000E-01      :
          :   Hmax (freq-cutoff)         5.0000000          :
          :   S6 in model hess.         20.0000000          :
          ...................................................

generating ANC from model Hessian ...
Using Lindh-Hessian (1995)
 Shifting diagonal of input Hessian by    9.8408996733121475E-003
 Lowest  eigenvalues of input Hessian
    0.000000    0.000000    0.000000    0.000000    0.000000    0.000000
    0.010000    0.010140    0.010151    0.010228    0.010319    0.010577
    0.010707    0.010816    0.011327    0.012044    0.012283    0.012408
 Highest eigenvalues
    2.031190    2.054142    2.056513    2.171193    2.246911    2.256328


........................................................................
.............................. CYCLE    1 ..............................
........................................................................
   1   -116.9229040 -0.116923E+03  0.905E-05    2.27       0.0  T
   2   -116.9229040 -0.945732E-10  0.631E-05    2.27     195.0  T
   3   -116.9229040 -0.977991E-10  0.384E-05    2.27     320.2  T
     SCC iter.                  ...        0 min,  0.055 sec
     gradient                   ...        0 min,  0.136 sec
 * total energy  :  -115.3113153 Eh     change       -0.1369855E-08 Eh
   gradient norm :     0.1386329 Eh/α   predicted     0.0000000E+00 (-100.00%)
   displ. norm   :     0.3655599 α      lambda       -0.2252960E-01
   maximum displ.:     0.1178995 α      in ANC's #36, #16, #57, ...

........................................................................
.............................. CYCLE    2 ..............................
........................................................................
   1   -117.0043130 -0.117004E+03  0.174E-01    2.44       0.0  T
   2   -117.0045343 -0.221370E-03  0.109E-01    2.46       1.0  T
   3   -117.0045028  0.315416E-04  0.637E-02    2.47       1.0  T
   4   -117.0046212 -0.118417E-03  0.232E-02    2.46       1.0  T
   5   -117.0046574 -0.362058E-04  0.536E-03    2.47       2.3  T
   6   -117.0046585 -0.107581E-05  0.262E-03    2.46       4.7  T
   7   -117.0046586 -0.155762E-06  0.108E-03    2.46      11.4  T
   8   -117.0046587 -0.185405E-07  0.402E-04    2.46      30.6  T
   9   -117.0046587 -0.957968E-09  0.172E-04    2.46      71.5  T
     SCC iter.                  ...        0 min,  0.157 sec
     gradient                   ...        0 min,  0.111 sec
 * total energy  :  -115.3269005 Eh     change       -0.1558527E-01 Eh
   gradient norm :     0.0572114 Eh/α   predicted    -0.1277016E-01 ( -18.06%)
   displ. norm   :     0.4087638 α      lambda       -0.8249658E-02
   maximum displ.:     0.1620962 α      in ANC's #16, #20, #36, ...

........................................................................
.............................. CYCLE    3 ..............................
........................................................................
   1   -117.0520908 -0.117052E+03  0.136E-01    2.60       0.0  T
   2   -117.0522747 -0.183848E-03  0.862E-02    2.60       1.0  T
   3   -117.0522951 -0.204030E-04  0.489E-02    2.61       1.0  T
   4   -117.0523447 -0.496675E-04  0.202E-02    2.60       1.0  T
   5   -117.0523705 -0.257256E-04  0.420E-03    2.60       2.9  T
   6   -117.0523713 -0.810621E-06  0.185E-03    2.60       6.6  T
   7   -117.0523713 -0.676749E-07  0.822E-04    2.60      15.0  T
   8   -117.0523713 -0.932009E-08  0.268E-04    2.60      46.0  T
     SCC iter.                  ...        0 min,  0.142 sec
     gradient                   ...        0 min,  0.118 sec
 * total energy  :  -115.3317093 Eh     change       -0.4808779E-02 Eh
   gradient norm :     0.0196379 Eh/α   predicted    -0.4814041E-02 (   0.11%)
   displ. norm   :     0.3650690 α      lambda       -0.2711434E-02
   maximum displ.:     0.1401623 α      in ANC's #16, #20, #19, ...

........................................................................
.............................. CYCLE    4 ..............................
........................................................................
   1   -117.0576602 -0.117058E+03  0.112E-01    2.62       0.0  T
   2   -117.0577200 -0.598642E-04  0.679E-02    2.62       1.0  T
   3   -117.0576820  0.379859E-04  0.334E-02    2.62       1.0  T
   4   -117.0577303 -0.482302E-04  0.113E-02    2.62       1.1  T
   5   -117.0577391 -0.886448E-05  0.291E-03    2.62       4.2  T
   6   -117.0577396 -0.458312E-06  0.114E-03    2.62      10.8  T
   7   -117.0577396 -0.211414E-07  0.566E-04    2.62      21.7  T
   8   -117.0577396 -0.504626E-08  0.158E-04    2.62      77.9  T
     SCC iter.                  ...        0 min,  0.146 sec
     gradient                   ...        0 min,  0.136 sec
 * total energy  :  -115.3332813 Eh     change       -0.1572018E-02 Eh
   gradient norm :     0.0172270 Eh/α   predicted    -0.1536402E-02 (  -2.27%)
   displ. norm   :     0.3262450 α      lambda       -0.1350042E-02
   maximum displ.:     0.1114325 α      in ANC's #16, #20, #11, ...

........................................................................
.............................. CYCLE    5 ..............................
........................................................................
   1   -117.0564798 -0.117056E+03  0.765E-02    2.61       0.0  T
   2   -117.0564910 -0.111490E-04  0.450E-02    2.61       1.0  T
   3   -117.0564754  0.155939E-04  0.176E-02    2.60       1.0  T
   4   -117.0564932 -0.178031E-04  0.528E-03    2.60       2.3  T
   5   -117.0564952 -0.202848E-05  0.136E-03    2.60       9.1  T
   6   -117.0564952 -0.218064E-07  0.820E-04    2.61      15.0  T
   7   -117.0564952 -0.129888E-07  0.249E-04    2.61      49.4  T
     SCC iter.                  ...        0 min,  0.123 sec
     gradient                   ...        0 min,  0.129 sec
 * total energy  :  -115.3342099 Eh     change       -0.9285836E-03 Eh
   gradient norm :     0.0117558 Eh/α   predicted    -0.7468714E-03 ( -19.57%)
   displ. norm   :     0.3268113 α      lambda       -0.7752870E-03
   maximum displ.:     0.1315612 α      in ANC's #7, #11, #10, ...

........................................................................
.............................. CYCLE    6 ..............................
........................................................................
   1   -117.0557790 -0.117056E+03  0.791E-02    2.59       0.0  T
   2   -117.0557827 -0.367112E-05  0.464E-02    2.59       1.0  T
   3   -117.0557763  0.643172E-05  0.114E-02    2.58       1.1  T
   4   -117.0557841 -0.785053E-05  0.221E-03    2.58       5.6  T
   5   -117.0557843 -0.138425E-06  0.117E-03    2.58      10.6  T
   6   -117.0557843 -0.134329E-07  0.600E-04    2.58      20.5  T
   7   -117.0557843 -0.879244E-08  0.250E-04    2.58      49.2  T
     SCC iter.                  ...        0 min,  0.129 sec
     gradient                   ...        0 min,  0.135 sec
 * total energy  :  -115.3347709 Eh     change       -0.5609426E-03 Eh
   gradient norm :     0.0090655 Eh/α   predicted    -0.4290471E-03 ( -23.51%)
   displ. norm   :     0.3434410 α      lambda       -0.5699810E-03
   maximum displ.:     0.1564217 α      in ANC's #7, #11, #2, ...

........................................................................
.............................. CYCLE    7 ..............................
........................................................................
   1   -117.0561279 -0.117056E+03  0.837E-02    2.56       0.0  T
   2   -117.0561330 -0.509079E-05  0.493E-02    2.56       1.0  T
   3   -117.0561260  0.696090E-05  0.115E-02    2.56       1.1  T
   4   -117.0561345 -0.844700E-05  0.256E-03    2.56       4.8  T
   5   -117.0561347 -0.225635E-06  0.123E-03    2.56      10.0  T
   6   -117.0561347 -0.141324E-07  0.695E-04    2.56      17.7  T
   7   -117.0561347 -0.109122E-07  0.261E-04    2.56      47.2  T
     SCC iter.                  ...        0 min,  0.130 sec
     gradient                   ...        0 min,  0.128 sec
 * total energy  :  -115.3351938 Eh     change       -0.4229022E-03 Eh
   gradient norm :     0.0078271 Eh/α   predicted    -0.3186087E-03 ( -24.66%)
   displ. norm   :     0.3452825 α      lambda       -0.4581107E-03
   maximum displ.:     0.1591098 α      in ANC's #7, #2, #11, ...

........................................................................
.............................. CYCLE    8 ..............................
........................................................................
   1   -117.0570998 -0.117057E+03  0.867E-02    2.54       0.0  T
   2   -117.0571033 -0.347099E-05  0.510E-02    2.54       1.0  T
   3   -117.0570987  0.454961E-05  0.917E-03    2.54       1.3  T
   4   -117.0571044 -0.564162E-05  0.230E-03    2.54       5.4  T
   5   -117.0571046 -0.166396E-06  0.121E-03    2.54      10.2  T
   6   -117.0571046 -0.118677E-07  0.674E-04    2.54      18.3  T
   7   -117.0571046 -0.140373E-07  0.242E-04    2.54      50.8  T
     SCC iter.                  ...        0 min,  0.122 sec
     gradient                   ...        0 min,  0.125 sec
 * total energy  :  -115.3355405 Eh     change       -0.3467506E-03 Eh
   gradient norm :     0.0061909 Eh/α   predicted    -0.2563802E-03 ( -26.06%)
   displ. norm   :     0.3659808 α      lambda       -0.3940423E-03
   maximum displ.:     0.1879285 α      in ANC's #2, #9, #7, ...

........................................................................
.............................. CYCLE    9 ..............................
........................................................................
   1   -117.0578204 -0.117058E+03  0.941E-02    2.53       0.0  T
   2   -117.0578236 -0.322762E-05  0.552E-02    2.53       1.0  T
   3   -117.0578184  0.517297E-05  0.896E-03    2.53       1.4  T
   4   -117.0578245 -0.606857E-05  0.266E-03    2.53       4.6  T
   5   -117.0578248 -0.349654E-06  0.129E-03    2.53       9.6  T
   6   -117.0578248 -0.240845E-07  0.657E-04    2.53      18.7  T
   7   -117.0578249 -0.823589E-08  0.217E-04    2.53      56.6  T
     SCC iter.                  ...        0 min,  0.129 sec
     gradient                   ...        0 min,  0.126 sec
 * total energy  :  -115.3358469 Eh     change       -0.3063442E-03 Eh
   gradient norm :     0.0057443 Eh/α   predicted    -0.2234150E-03 ( -27.07%)
   displ. norm   :     0.3880690 α      lambda       -0.3719881E-03
   maximum displ.:     0.2139508 α      in ANC's #2, #9, #7, ...

........................................................................
.............................. CYCLE   10 ..............................
........................................................................
   1   -117.0582113 -0.117058E+03  0.998E-02    2.52       0.0  T
   2   -117.0582145 -0.317228E-05  0.584E-02    2.52       1.0  T
   3   -117.0582067  0.779018E-05  0.107E-02    2.52       1.2  T
   4   -117.0582155 -0.878736E-05  0.288E-03    2.52       4.3  T
   5   -117.0582160 -0.456597E-06  0.130E-03    2.52       9.5  T
   6   -117.0582160 -0.239331E-07  0.664E-04    2.52      18.5  T
   7   -117.0582160 -0.533109E-08  0.220E-04    2.52      55.8  T
     SCC iter.                  ...        0 min,  0.121 sec
     gradient                   ...        0 min,  0.135 sec
 * total energy  :  -115.3361482 Eh     change       -0.3013399E-03 Eh
   gradient norm :     0.0064466 Eh/α   predicted    -0.2140069E-03 ( -28.98%)
   displ. norm   :     0.4136846 α      lambda       -0.3949732E-03
   maximum displ.:     0.2417973 α      in ANC's #2, #9, #7, ...

........................................................................
.............................. CYCLE   11 ..............................
........................................................................
   1   -117.0586414 -0.117059E+03  0.104E-01    2.52       0.0  T
   2   -117.0586448 -0.335854E-05  0.612E-02    2.52       1.0  T
   3   -117.0586344  0.104398E-04  0.128E-02    2.52       1.0  T
   4   -117.0586462 -0.118471E-04  0.274E-03    2.52       4.5  T
   5   -117.0586466 -0.353261E-06  0.138E-03    2.52       8.9  T
   6   -117.0586466 -0.344604E-07  0.734E-04    2.52      16.8  T
   7   -117.0586466 -0.791330E-08  0.240E-04    2.52      51.4  T
     SCC iter.                  ...        0 min,  0.134 sec
     gradient                   ...        0 min,  0.129 sec
 * total energy  :  -115.3364756 Eh     change       -0.3274424E-03 Eh
   gradient norm :     0.0066020 Eh/α   predicted    -0.2313085E-03 ( -29.36%)
   displ. norm   :     0.4813418 α      lambda       -0.4265211E-03
   maximum displ.:     0.2903926 α      in ANC's #2, #9, #7, ...

........................................................................
.............................. CYCLE   12 ..............................
........................................................................
   1   -117.0575924 -0.117058E+03  0.121E-01    2.53       0.0  T
   2   -117.0575969 -0.449123E-05  0.711E-02    2.53       1.0  T
   3   -117.0575838  0.131609E-04  0.151E-02    2.53       1.0  T
   4   -117.0575990 -0.152564E-04  0.271E-03    2.53       4.5  T
   5   -117.0575993 -0.244691E-06  0.152E-03    2.53       8.1  T
   6   -117.0575993 -0.408649E-07  0.861E-04    2.53      14.3  T
   7   -117.0575993 -0.153432E-07  0.247E-04    2.53      49.8  T
     SCC iter.                  ...        0 min,  0.134 sec
     gradient                   ...        0 min,  0.110 sec
 * total energy  :  -115.3368179 Eh     change       -0.3422695E-03 Eh
   gradient norm :     0.0066707 Eh/α   predicted    -0.2626721E-03 ( -23.26%)
   displ. norm   :     0.4664631 α      lambda       -0.4062887E-03
   maximum displ.:     0.3033116 α      in ANC's #2, #9, #7, ...

........................................................................
.............................. CYCLE   13 ..............................
........................................................................
   1   -117.0603127 -0.117060E+03  0.111E-01    2.54       0.0  T
   2   -117.0603176 -0.495219E-05  0.654E-02    2.54       1.0  T
   3   -117.0603043  0.133559E-04  0.158E-02    2.54       1.0  T
   4   -117.0603199 -0.155854E-04  0.251E-03    2.54       4.9  T
   5   -117.0603200 -0.195770E-06  0.132E-03    2.54       9.3  T
   6   -117.0603201 -0.167209E-07  0.762E-04    2.54      16.1  T
   7   -117.0603201 -0.167388E-07  0.283E-04    2.54      43.5  T
     SCC iter.                  ...        0 min,  0.130 sec
     gradient                   ...        0 min,  0.133 sec
 * total energy  :  -115.3370825 Eh     change       -0.2645618E-03 Eh
   gradient norm :     0.0094009 Eh/α   predicted    -0.2473497E-03 (  -6.51%)
   displ. norm   :     0.5575666 α      lambda       -0.4052760E-03
   maximum displ.:     0.3483838 α      in ANC's #2, #9, #7, ...

........................................................................
.............................. CYCLE   14 ..............................
........................................................................
   1   -117.0532946 -0.117053E+03  0.147E-01    2.54       0.0  T
   2   -117.0533139 -0.192925E-04  0.866E-02    2.53       1.0  T
   3   -117.0533005  0.134145E-04  0.169E-02    2.53       1.0  T
   4   -117.0533167 -0.162633E-04  0.436E-03    2.53       2.8  T
   5   -117.0533177 -0.925608E-06  0.184E-03    2.53       6.7  T
   6   -117.0533177 -0.435495E-07  0.111E-03    2.53      11.1  T
   7   -117.0533177 -0.136781E-07  0.444E-04    2.53      27.8  T
   8   -117.0533177 -0.828157E-08  0.128E-04    2.53      96.0  T
     SCC iter.                  ...        0 min,  0.142 sec
     gradient                   ...        0 min,  0.115 sec
 * total energy  :  -115.3372174 Eh     change       -0.1349548E-03 Eh
   gradient norm :     0.0144401 Eh/α   predicted    -0.2656385E-03 (  96.84%)
   displ. norm   :     0.0910533 α      lambda       -0.2647409E-03
   maximum displ.:     0.0647388 α      in ANC's #2, #1, #20, ...

........................................................................
.............................. CYCLE   15 ..............................
........................................................................
   1   -117.0590846 -0.117059E+03  0.289E-02    2.54       0.0  T
   2   -117.0590879 -0.329792E-05  0.171E-02    2.54       1.0  T
   3   -117.0590860  0.183732E-05  0.905E-03    2.53       1.4  T
   4   -117.0590888 -0.279875E-05  0.147E-03    2.53       8.4  T
   5   -117.0590890 -0.111682E-06  0.600E-04    2.53      20.5  T
   6   -117.0590890 -0.101400E-07  0.327E-04    2.53      37.7  T
     SCC iter.                  ...        0 min,  0.114 sec
     gradient                   ...        0 min,  0.144 sec
 * total energy  :  -115.3373959 Eh     change       -0.1785097E-03 Eh
   gradient norm :     0.0054710 Eh/α   predicted    -0.1334678E-03 ( -25.23%)
   displ. norm   :     0.3628664 α      lambda       -0.2525961E-03
   maximum displ.:     0.2480793 α      in ANC's #2, #9, #1, ...

........................................................................
.............................. CYCLE   16 ..............................
........................................................................
   1   -117.0593459 -0.117059E+03  0.919E-02    2.53       0.0  T
   2   -117.0593555 -0.953826E-05  0.541E-02    2.53       1.0  T
   3   -117.0593453  0.101595E-04  0.142E-02    2.53       1.0  T
   4   -117.0593572 -0.119339E-04  0.295E-03    2.53       4.2  T
   5   -117.0593577 -0.452632E-06  0.108E-03    2.53      11.3  T
   6   -117.0593577 -0.168573E-07  0.623E-04    2.53      19.8  T
   7   -117.0593577 -0.361230E-08  0.273E-04    2.53      45.1  T
     SCC iter.                  ...        0 min,  0.124 sec
     gradient                   ...        0 min,  0.157 sec
 * total energy  :  -115.3374874 Eh     change       -0.9144861E-04 Eh
   gradient norm :     0.0130775 Eh/α   predicted    -0.1429323E-03 (  56.30%)
   displ. norm   :     0.2535051 α      lambda       -0.2674233E-03
   maximum displ.:     0.1916407 α      in ANC's #2, #1, #13, ...

........................................................................
.............................. CYCLE   17 ..............................
........................................................................
   1   -117.0627401 -0.117063E+03  0.598E-02    2.53       0.0  T
   2   -117.0627441 -0.407355E-05  0.350E-02    2.53       1.0  T
   3   -117.0627354  0.874384E-05  0.138E-02    2.53       1.0  T
   4   -117.0627459 -0.104829E-04  0.187E-03    2.53       6.6  T
   5   -117.0627460 -0.136493E-06  0.961E-04    2.53      12.8  T
   6   -117.0627460 -0.267859E-07  0.561E-04    2.53      21.9  T
     SCC iter.                  ...        0 min,  0.106 sec
     gradient                   ...        0 min,  0.152 sec
 * total energy  :  -115.3376368 Eh     change       -0.1493787E-03 Eh
   gradient norm :     0.0064389 Eh/α   predicted    -0.1423063E-03 (  -4.73%)
   displ. norm   :     0.3212320 α      lambda       -0.1620586E-03
   maximum displ.:     0.2301714 α      in ANC's #2, #9, #1, ...

........................................................................
.............................. CYCLE   18 ..............................
........................................................................
   1   -117.0605052 -0.117061E+03  0.807E-02    2.53       0.0  T
   2   -117.0605081 -0.295551E-05  0.475E-02    2.53       1.0  T
   3   -117.0605040  0.415700E-05  0.842E-03    2.53       1.5  T
   4   -117.0605088 -0.481066E-05  0.222E-03    2.53       5.5  T
   5   -117.0605090 -0.241592E-06  0.103E-03    2.53      11.9  T
   6   -117.0605090 -0.216851E-07  0.586E-04    2.53      21.0  T
   7   -117.0605090 -0.543263E-08  0.221E-04    2.53      55.6  T
     SCC iter.                  ...        0 min,  0.131 sec
     gradient                   ...        0 min,  0.125 sec
 * total energy  :  -115.3377310 Eh     change       -0.9428630E-04 Eh
   gradient norm :     0.0053172 Eh/α   predicted    -0.8939257E-04 (  -5.19%)
   displ. norm   :     0.3116311 α      lambda       -0.1239277E-03
   maximum displ.:     0.2246453 α      in ANC's #2, #9, #1, ...

........................................................................
.............................. CYCLE   19 ..............................
........................................................................
   1   -117.0580694 -0.117058E+03  0.764E-02    2.52       0.0  T
   2   -117.0580712 -0.180365E-05  0.449E-02    2.52       1.0  T
   3   -117.0580660  0.516590E-05  0.933E-03    2.52       1.3  T
   4   -117.0580720 -0.601207E-05  0.165E-03    2.52       7.5  T
   5   -117.0580721 -0.848954E-07  0.930E-04    2.52      13.2  T
   6   -117.0580721 -0.137294E-07  0.531E-04    2.52      23.2  T
     SCC iter.                  ...        0 min,  0.106 sec
     gradient                   ...        0 min,  0.136 sec
 * total energy  :  -115.3378146 Eh     change       -0.8359294E-04 Eh
   gradient norm :     0.0066203 Eh/α   predicted    -0.6798688E-04 ( -18.67%)
   displ. norm   :     0.2614722 α      lambda       -0.1360858E-03
   maximum displ.:     0.1866093 α      in ANC's #2, #8, #1, ...

........................................................................
.............................. CYCLE   20 ..............................
........................................................................
   1   -117.0594448 -0.117059E+03  0.587E-02    2.52       0.0  T
   2   -117.0594460 -0.121349E-05  0.344E-02    2.52       1.0  T
   3   -117.0594425  0.355085E-05  0.730E-03    2.53       1.7  T
   4   -117.0594465 -0.400552E-05  0.156E-03    2.53       7.9  T
   5   -117.0594466 -0.122719E-06  0.701E-04    2.53      17.6  T
   6   -117.0594466 -0.752256E-08  0.404E-04    2.53      30.5  T
     SCC iter.                  ...        0 min,  0.111 sec
     gradient                   ...        0 min,  0.136 sec
 * total energy  :  -115.3379158 Eh     change       -0.1011246E-03 Eh
   gradient norm :     0.0045629 Eh/α   predicted    -0.7269591E-04 ( -28.11%)
   displ. norm   :     0.3538239 α      lambda       -0.1472797E-03
   maximum displ.:     0.2461643 α      in ANC's #2, #8, #1, ...
 * RMSD in coord.:     0.6902361 α      energy gain  -0.2660050E-01 Eh

generating ANC from model Hessian ...
Using Lindh-Hessian (1995)
 Shifting diagonal of input Hessian by    9.8273790168732136E-003
 Lowest  eigenvalues of input Hessian
    0.000000    0.000000    0.000000    0.000000    0.000000    0.000000
    0.010000    0.010157    0.010204    0.010295    0.010360    0.010636
    0.010743    0.011026    0.011616    0.012250    0.012568    0.012713
 Highest eigenvalues
    2.096060    2.108692    2.109731    2.321776    2.370302    2.383787


........................................................................
.............................. CYCLE   21 ..............................
........................................................................
   1   -117.0611422 -0.117061E+03  0.783E-02    2.53       0.0  T
   2   -117.0611441 -0.192736E-05  0.460E-02    2.53       1.0  T
   3   -117.0611357  0.838961E-05  0.118E-02    2.53       1.0  T
   4   -117.0611454 -0.965159E-05  0.166E-03    2.53       7.4  T
   5   -117.0611454 -0.761481E-07  0.925E-04    2.53      13.3  T
   6   -117.0611455 -0.646502E-08  0.517E-04    2.53      23.8  T
     SCC iter.                  ...        0 min,  0.108 sec
     gradient                   ...        0 min,  0.133 sec
 * total energy  :  -115.3380058 Eh     change       -0.9003607E-04 Eh
   gradient norm :     0.0051404 Eh/α   predicted     0.0000000E+00 (-100.00%)
   displ. norm   :     0.0471691 α      lambda       -0.6915418E-04
   maximum displ.:     0.0224313 α      in ANC's #6, #2, #5, ...

........................................................................
.............................. CYCLE   22 ..............................
........................................................................
   1   -117.0612740 -0.117061E+03  0.158E-02    2.53       0.0  T
   2   -117.0612743 -0.234821E-06  0.933E-03    2.53       1.3  T
   3   -117.0612739  0.367636E-06  0.249E-03    2.53       4.9  T
   4   -117.0612743 -0.416643E-06  0.628E-04    2.53      19.6  T
   5   -117.0612743 -0.244369E-07  0.233E-04    2.53      52.9  T
     SCC iter.                  ...        0 min,  0.099 sec
     gradient                   ...        0 min,  0.127 sec
 * total energy  :  -115.3380572 Eh     change       -0.5144217E-04 Eh
   gradient norm :     0.0020663 Eh/α   predicted    -0.3466698E-04 ( -32.61%)
   displ. norm   :     0.0948683 α      lambda       -0.6121557E-04
   maximum displ.:     0.0503228 α      in ANC's #6, #2, #5, ...

........................................................................
.............................. CYCLE   23 ..............................
........................................................................
   1   -117.0613011 -0.117061E+03  0.256E-02    2.53       0.0  T
   2   -117.0613015 -0.365915E-06  0.150E-02    2.53       1.0  T
   3   -117.0613006  0.885577E-06  0.373E-03    2.53       3.3  T
   4   -117.0613016 -0.100265E-05  0.822E-04    2.53      15.0  T
   5   -117.0613016 -0.397080E-07  0.335E-04    2.53      36.8  T
   6   -117.0613016 -0.216527E-08  0.187E-04    2.53      65.8  T
     SCC iter.                  ...        0 min,  0.108 sec
     gradient                   ...        0 min,  0.136 sec
 * total energy  :  -115.3380993 Eh     change       -0.4205840E-04 Eh
   gradient norm :     0.0020240 Eh/α   predicted    -0.3089329E-04 ( -26.55%)
   displ. norm   :     0.1036729 α      lambda       -0.3772089E-04
   maximum displ.:     0.0553130 α      in ANC's #6, #2, #5, ...

........................................................................
.............................. CYCLE   24 ..............................
........................................................................
   1   -117.0612519 -0.117061E+03  0.257E-02    2.53       0.0  T
   2   -117.0612522 -0.209843E-06  0.151E-02    2.53       1.0  T
   3   -117.0612516  0.518705E-06  0.289E-03    2.53       4.3  T
   4   -117.0612522 -0.599990E-06  0.604E-04    2.53      20.4  T
   5   -117.0612523 -0.168337E-07  0.294E-04    2.53      41.8  T
     SCC iter.                  ...        0 min,  0.088 sec
     gradient                   ...        0 min,  0.152 sec
 * total energy  :  -115.3381308 Eh     change       -0.3150363E-04 Eh
   gradient norm :     0.0028360 Eh/α   predicted    -0.1906525E-04 ( -39.48%)
   displ. norm   :     0.1819892 α      lambda       -0.6210135E-04
   maximum displ.:     0.0944058 α      in ANC's #6, #2, #5, ...

........................................................................
.............................. CYCLE   25 ..............................
........................................................................
   1   -117.0611259 -0.117061E+03  0.439E-02    2.53       0.0  T
   2   -117.0611263 -0.387295E-06  0.258E-02    2.53       1.0  T
   3   -117.0611257  0.586034E-06  0.337E-03    2.53       3.7  T
   4   -117.0611265 -0.748772E-06  0.771E-04    2.53      16.0  T
   5   -117.0611265 -0.141864E-07  0.439E-04    2.53      28.0  T
     SCC iter.                  ...        0 min,  0.091 sec
     gradient                   ...        0 min,  0.118 sec
 * total energy  :  -115.3381842 Eh     change       -0.5340236E-04 Eh
   gradient norm :     0.0029378 Eh/α   predicted    -0.3208424E-04 ( -39.92%)
   displ. norm   :     0.3029348 α      lambda       -0.9596705E-04
   maximum displ.:     0.1553212 α      in ANC's #6, #2, #5, ...

........................................................................
.............................. CYCLE   26 ..............................
........................................................................
   1   -117.0607069 -0.117061E+03  0.720E-02    2.53       0.0  T
   2   -117.0607077 -0.788267E-06  0.423E-02    2.53       1.0  T
   3   -117.0607067  0.100150E-05  0.451E-03    2.53       2.7  T
   4   -117.0607081 -0.138048E-05  0.110E-03    2.53      11.2  T
   5   -117.0607081 -0.125511E-07  0.637E-04    2.53      19.3  T
   6   -117.0607081 -0.418788E-08  0.240E-04    2.53      51.3  T
     SCC iter.                  ...        0 min,  0.106 sec
     gradient                   ...        0 min,  0.132 sec
 * total energy  :  -115.3382647 Eh     change       -0.8050085E-04 Eh
   gradient norm :     0.0028447 Eh/α   predicted    -0.5238725E-04 ( -34.92%)
   displ. norm   :     0.4072832 α      lambda       -0.1150430E-03
   maximum displ.:     0.2072040 α      in ANC's #6, #2, #5, ...

........................................................................
.............................. CYCLE   27 ..............................
........................................................................
   1   -117.0599106 -0.117060E+03  0.957E-02    2.53       0.0  T
   2   -117.0599118 -0.113092E-05  0.562E-02    2.54       1.0  T
   3   -117.0599108  0.102186E-05  0.474E-03    2.54       2.6  T
   4   -117.0599123 -0.158600E-05  0.140E-03    2.54       8.8  T
   5   -117.0599123 -0.808890E-08  0.846E-04    2.54      14.6  T
   6   -117.0599124 -0.165411E-07  0.346E-04    2.54      35.6  T
     SCC iter.                  ...        0 min,  0.112 sec
     gradient                   ...        0 min,  0.138 sec
 * total energy  :  -115.3383578 Eh     change       -0.9307662E-04 Eh
   gradient norm :     0.0033885 Eh/α   predicted    -0.6706488E-04 ( -27.95%)
   displ. norm   :     0.4432487 α      lambda       -0.1157089E-03
   maximum displ.:     0.2235563 α      in ANC's #6, #2, #1, ...

........................................................................
.............................. CYCLE   28 ..............................
........................................................................
   1   -117.0593558 -0.117059E+03  0.103E-01    2.54       0.0  T
   2   -117.0593573 -0.143538E-05  0.606E-02    2.54       1.0  T
   3   -117.0593550  0.232280E-05  0.613E-03    2.54       2.0  T
   4   -117.0593580 -0.299465E-05  0.172E-03    2.54       7.1  T
   5   -117.0593580 -0.709184E-07  0.103E-03    2.54      12.0  T
   6   -117.0593580 -0.181098E-07  0.436E-04    2.54      28.2  T
   7   -117.0593580 -0.706876E-08  0.132E-04    2.54      93.2  T
     SCC iter.                  ...        0 min,  0.126 sec
     gradient                   ...        0 min,  0.147 sec
 * total energy  :  -115.3384487 Eh     change       -0.9092954E-04 Eh
   gradient norm :     0.0039504 Eh/α   predicted    -0.6922132E-04 ( -23.87%)
   displ. norm   :     0.4055303 α      lambda       -0.1075219E-03
   maximum displ.:     0.2089814 α      in ANC's #2, #6, #1, ...

........................................................................
.............................. CYCLE   29 ..............................
........................................................................
   1   -117.0601471 -0.117060E+03  0.926E-02    2.54       0.0  T
   2   -117.0601484 -0.137868E-05  0.544E-02    2.54       1.0  T
   3   -117.0601444  0.405063E-05  0.759E-03    2.54       1.6  T
   4   -117.0601491 -0.474601E-05  0.174E-03    2.54       7.1  T
   5   -117.0601492 -0.104878E-06  0.959E-04    2.54      12.8  T
   6   -117.0601493 -0.121073E-07  0.469E-04    2.54      26.3  T
     SCC iter.                  ...        0 min,  0.108 sec
     gradient                   ...        0 min,  0.149 sec
 * total energy  :  -115.3385307 Eh     change       -0.8198662E-04 Eh
   gradient norm :     0.0033984 Eh/α   predicted    -0.6260443E-04 ( -23.64%)
   displ. norm   :     0.3468439 α      lambda       -0.7996494E-04
   maximum displ.:     0.1837523 α      in ANC's #2, #6, #1, ...

........................................................................
.............................. CYCLE   30 ..............................
........................................................................
   1   -117.0611904 -0.117061E+03  0.790E-02    2.54       0.0  T
   2   -117.0611915 -0.112824E-05  0.464E-02    2.54       1.0  T
   3   -117.0611858  0.572327E-05  0.887E-03    2.54       1.4  T
   4   -117.0611922 -0.645449E-05  0.159E-03    2.54       7.7  T
   5   -117.0611923 -0.925762E-07  0.860E-04    2.54      14.3  T
   6   -117.0611923 -0.110847E-07  0.427E-04    2.54      28.8  T
     SCC iter.                  ...        0 min,  0.109 sec
     gradient                   ...        0 min,  0.132 sec
 * total energy  :  -115.3385897 Eh     change       -0.5895967E-04 Eh
   gradient norm :     0.0023273 Eh/α   predicted    -0.4479616E-04 ( -24.02%)
   displ. norm   :     0.3111807 α      lambda       -0.5136285E-04
   maximum displ.:     0.1671209 α      in ANC's #2, #6, #1, ...

........................................................................
.............................. CYCLE   31 ..............................
........................................................................
   1   -117.0611949 -0.117061E+03  0.717E-02    2.54       0.0  T
   2   -117.0611957 -0.769828E-06  0.421E-02    2.54       1.0  T
   3   -117.0611921  0.363884E-05  0.711E-03    2.54       1.7  T
   4   -117.0611962 -0.416392E-05  0.132E-03    2.54       9.3  T
   5   -117.0611963 -0.432069E-07  0.790E-04    2.54      15.6  T
   6   -117.0611963 -0.127825E-07  0.338E-04    2.54      36.4  T
     SCC iter.                  ...        0 min,  0.107 sec
     gradient                   ...        0 min,  0.144 sec
 * total energy  :  -115.3386286 Eh     change       -0.3897689E-04 Eh
   gradient norm :     0.0018952 Eh/α   predicted    -0.2819269E-04 ( -27.67%)
   displ. norm   :     0.3700007 α      lambda       -0.4411630E-04
   maximum displ.:     0.2036848 α      in ANC's #2, #6, #1, ...

........................................................................
.............................. CYCLE   32 ..............................
........................................................................
   1   -117.0630681 -0.117063E+03  0.844E-02    2.54       0.0  T
   2   -117.0630695 -0.138996E-05  0.497E-02    2.54       1.0  T
   3   -117.0630602  0.922369E-05  0.116E-02    2.54       1.1  T
   4   -117.0630706 -0.103583E-04  0.172E-03    2.54       7.2  T
   5   -117.0630707 -0.829989E-07  0.104E-03    2.54      11.9  T
   6   -117.0630707 -0.280399E-07  0.444E-04    2.54      27.7  T
   7   -117.0630707 -0.355740E-08  0.155E-04    2.54      79.4  T
     SCC iter.                  ...        0 min,  0.124 sec
     gradient                   ...        0 min,  0.124 sec
 * total energy  :  -115.3386701 Eh     change       -0.4145995E-04 Eh
   gradient norm :     0.0020201 Eh/α   predicted    -0.2340855E-04 ( -43.54%)
   displ. norm   :     0.2607871 α      lambda       -0.3342057E-04
   maximum displ.:     0.1396275 α      in ANC's #2, #6, #1, ...

........................................................................
.............................. CYCLE   33 ..............................
........................................................................
   1   -117.0605993 -0.117061E+03  0.628E-02    2.53       0.0  T
   2   -117.0605999 -0.626537E-06  0.369E-02    2.53       1.0  T
   3   -117.0605982  0.171121E-05  0.535E-03    2.53       2.3  T
   4   -117.0606003 -0.208824E-05  0.993E-04    2.53      12.4  T
   5   -117.0606003 -0.325166E-08  0.643E-04    2.53      19.1  T
   6   -117.0606003 -0.108809E-07  0.289E-04    2.53      42.6  T
     SCC iter.                  ...        0 min,  0.106 sec
     gradient                   ...        0 min,  0.109 sec
 * total energy  :  -115.3386910 Eh     change       -0.2090874E-04 Eh
   gradient norm :     0.0026875 Eh/α   predicted    -0.1785072E-04 ( -14.63%)
   displ. norm   :     0.1600347 α      lambda       -0.4202003E-04
   maximum displ.:     0.0811944 α      in ANC's #2, #1, #3, ...

........................................................................
.............................. CYCLE   34 ..............................
........................................................................
   1   -117.0618348 -0.117062E+03  0.370E-02    2.54       0.0  T
   2   -117.0618351 -0.369630E-06  0.218E-02    2.54       1.0  T
   3   -117.0618341  0.103389E-05  0.432E-03    2.54       2.8  T
   4   -117.0618353 -0.121672E-05  0.793E-04    2.54      15.5  T
   5   -117.0618353 -0.177222E-07  0.455E-04    2.54      27.0  T
   6   -117.0618353 -0.286937E-08  0.246E-04    2.54      50.0  T
     SCC iter.                  ...        0 min,  0.111 sec
     gradient                   ...        0 min,  0.138 sec
 * total energy  :  -115.3387225 Eh     change       -0.3149267E-04 Eh
   gradient norm :     0.0017013 Eh/α   predicted    -0.2155041E-04 ( -31.57%)
   displ. norm   :     0.2934871 α      lambda       -0.3537603E-04
   maximum displ.:     0.1458416 α      in ANC's #2, #1, #3, ...

........................................................................
.............................. CYCLE   35 ..............................
........................................................................
   1   -117.0630395 -0.117063E+03  0.663E-02    2.55       0.0  T
   2   -117.0630407 -0.124175E-05  0.390E-02    2.55       1.0  T
   3   -117.0630375  0.322427E-05  0.778E-03    2.55       1.6  T
   4   -117.0630413 -0.385735E-05  0.140E-03    2.55       8.8  T
   5   -117.0630414 -0.426692E-07  0.815E-04    2.55      15.1  T
   6   -117.0630414 -0.595662E-08  0.430E-04    2.55      28.6  T
     SCC iter.                  ...        0 min,  0.107 sec
     gradient                   ...        0 min,  0.126 sec
 * total energy  :  -115.3387518 Eh     change       -0.2925254E-04 Eh
   gradient norm :     0.0018708 Eh/α   predicted    -0.1836601E-04 ( -37.22%)
   displ. norm   :     0.1056209 α      lambda       -0.1354441E-04
   maximum displ.:     0.0511977 α      in ANC's #1, #2, #3, ...

........................................................................
.............................. CYCLE   36 ..............................
........................................................................
   1   -117.0630797 -0.117063E+03  0.222E-02    2.55       0.0  T
   2   -117.0630799 -0.130042E-06  0.130E-02    2.55       1.0  T
   3   -117.0630796  0.254125E-06  0.223E-03    2.55       5.5  T
   4   -117.0630799 -0.314862E-06  0.481E-04    2.55      25.6  T
   5   -117.0630799 -0.485983E-08  0.275E-04    2.55      44.8  T
     SCC iter.                  ...        0 min,  0.090 sec
     gradient                   ...        0 min,  0.131 sec
 * total energy  :  -115.3387674 Eh     change       -0.1567467E-04 Eh
   gradient norm :     0.0012758 Eh/α   predicted    -0.6821505E-05 ( -56.48%)
   displ. norm   :     0.1980679 α      lambda       -0.2232526E-04
   maximum displ.:     0.0949682 α      in ANC's #1, #3, #2, ...

........................................................................
.............................. CYCLE   37 ..............................
........................................................................
   1   -117.0624302 -0.117062E+03  0.445E-02    2.55       0.0  T
   2   -117.0624308 -0.571695E-06  0.262E-02    2.55       1.0  T
   3   -117.0624296  0.117944E-05  0.475E-03    2.55       2.6  T
   4   -117.0624311 -0.145054E-05  0.918E-04    2.55      13.4  T
   5   -117.0624311 -0.158181E-07  0.519E-04    2.55      23.7  T
   6   -117.0624311 -0.925638E-09  0.207E-04    2.55      59.5  T
     SCC iter.                  ...        0 min,  0.105 sec
     gradient                   ...        0 min,  0.135 sec
 * total energy  :  -115.3387864 Eh     change       -0.1894914E-04 Eh
   gradient norm :     0.0017204 Eh/α   predicted    -0.1135838E-04 ( -40.06%)
   displ. norm   :     0.0864770 α      lambda       -0.1068933E-04
   maximum displ.:     0.0393503 α      in ANC's #7, #12, #3, ...

........................................................................
.............................. CYCLE   38 ..............................
........................................................................
   1   -117.0626489 -0.117063E+03  0.220E-02    2.55       0.0  T
   2   -117.0626490 -0.173588E-06  0.129E-02    2.55       1.0  T
   3   -117.0626485  0.585164E-06  0.332E-03    2.55       3.7  T
   4   -117.0626491 -0.682205E-06  0.451E-04    2.55      27.3  T
   5   -117.0626491 -0.650763E-08  0.249E-04    2.55      49.4  T
     SCC iter.                  ...        0 min,  0.088 sec
     gradient                   ...        0 min,  0.110 sec
 * total energy  :  -115.3387948 Eh     change       -0.8419931E-05 Eh
   gradient norm :     0.0015149 Eh/α   predicted    -0.5363152E-05 ( -36.30%)
   displ. norm   :     0.0798622 α      lambda       -0.7907837E-05
   maximum displ.:     0.0386479 α      in ANC's #1, #12, #3, ...

........................................................................
.............................. CYCLE   39 ..............................
........................................................................
   1   -117.0623689 -0.117062E+03  0.202E-02    2.55       0.0  T
   2   -117.0623690 -0.131694E-06  0.118E-02    2.55       1.0  T
   3   -117.0623688  0.233155E-06  0.214E-03    2.55       5.8  T
   4   -117.0623691 -0.283585E-06  0.403E-04    2.55      30.5  T
   5   -117.0623691 -0.409283E-08  0.207E-04    2.55      59.5  T
     SCC iter.                  ...        0 min,  0.089 sec
     gradient                   ...        0 min,  0.134 sec
 * total energy  :  -115.3388030 Eh     change       -0.8174999E-05 Eh
   gradient norm :     0.0009888 Eh/α   predicted    -0.3966500E-05 ( -51.48%)
   displ. norm   :     0.0828804 α      lambda       -0.6598360E-05
   maximum displ.:     0.0339624 α      in ANC's #7, #1, #12, ...

........................................................................
.............................. CYCLE   40 ..............................
........................................................................
   1   -117.0627303 -0.117063E+03  0.222E-02    2.55       0.0  T
   2   -117.0627304 -0.123669E-06  0.130E-02    2.55       1.0  T
   3   -117.0627301  0.305982E-06  0.236E-03    2.55       5.2  T
   4   -117.0627304 -0.363492E-06  0.369E-04    2.55      33.4  T
   5   -117.0627304 -0.363792E-08  0.204E-04    2.55      60.2  T
     SCC iter.                  ...        0 min,  0.089 sec
     gradient                   ...        0 min,  0.112 sec
 * total energy  :  -115.3388082 Eh     change       -0.5276109E-05 Eh
   gradient norm :     0.0008668 Eh/α   predicted    -0.3311025E-05 ( -37.24%)
   displ. norm   :     0.0473275 α      lambda       -0.3190353E-05
   maximum displ.:     0.0287629 α      in ANC's #1, #8, #10, ...

........................................................................
.............................. CYCLE   41 ..............................
........................................................................
   1   -117.0623131 -0.117062E+03  0.127E-02    2.55       0.0  T
   2   -117.0623132 -0.903399E-07  0.748E-03    2.55       1.6  T
   3   -117.0623128  0.359540E-06  0.249E-03    2.55       4.9  T
   4   -117.0623133 -0.423396E-06  0.249E-04    2.55      49.3  T
   5   -117.0623133 -0.136438E-08  0.148E-04    2.55      83.3  T
     SCC iter.                  ...        0 min,  0.090 sec
     gradient                   ...        0 min,  0.128 sec
 * total energy  :  -115.3388102 Eh     change       -0.1916436E-05 Eh
   gradient norm :     0.0009760 Eh/α   predicted    -0.1599092E-05 ( -16.56%)
   displ. norm   :     0.0471747 α      lambda        0.5806226E-05
   maximum displ.:     0.0285140 α      in ANC's #1, #8, #10, ...

   *** GEOMETRY OPTIMIZATION CONVERGED AFTER 41 ITERATIONS ***

------------------------------------------------------------------------
 total energy gain   :        -0.0274949 Eh      -17.2533 kcal/mol
 total RMSD          :         0.9954376 a0        0.5268 Å
 total power (kW/mol):        -1.7606794 (step)   -4.4328 (real)
------------------------------------------------------------------------

 ANCopt (total)                0 d,  0 h,  0 min, 16.285 sec
 optimizer setup                ...        0 min,  0.000 sec (  0.001%)
 model hessian                  ...        0 min,  0.073 sec (  0.446%)
 ANC generation                 ...        0 min,  0.022 sec (  0.135%)
 coordinate transformation      ...        0 min,  0.003 sec (  0.019%)
 single point calculation       ...        0 min, 15.619 sec ( 95.910%)
 optimization log               ...        0 min,  0.051 sec (  0.311%)
 hessian update                 ...        0 min,  0.488 sec (  2.996%)
 rational function              ...        0 min,  0.011 sec (  0.069%)

================
 final structure:
================
66
 xtb: 6.3.3 (4ae9cef)
C         3.99488965647851   -2.48701700149223    1.12926128158459
C         3.88575648267183   -1.94767428660516    2.37866872526571
C         2.87307003831082   -1.01637900858386    2.64721707730393
C         2.01601047693928   -0.61459882974858    1.66106170955111
C         2.12450340850722   -1.11715573523437    0.34485067114311
C         3.11954133818576   -2.10291837887249    0.09153249515847
C         3.20968460012521   -2.69509648362549   -1.18438536543967
C         2.34729028620022   -2.33391473257332   -2.17915817095663
C         1.40323032776506   -1.32616003238741   -1.95250107846140
C         1.29706837230711   -0.70162121289235   -0.73350963896888
C         0.26530244143578    0.39041932293220   -0.60007868516749
C        -0.98206025806349   -0.09859950437985    0.17598855038655
C        -2.10756227505721   -0.42941202376745   -0.77729365568618
C        -2.96324386001597    0.56497835918365   -1.17861821754399
C        -3.99765076889824    0.30846170504093   -2.08750294648991
C        -4.15747407214296   -0.94248012833689   -2.60867021223533
C        -3.28649814296830   -1.98823693359345   -2.24044658398979
C        -2.24120581450472   -1.74169844287672   -1.30665214589284
C        -1.39063987187393   -2.81927309340936   -0.97253375503004
C        -1.55829005808071   -4.05631041783454   -1.52978980076205
C        -2.58784777204209   -4.29250567224546   -2.45115065977902
C        -3.43411729108732   -3.27766155817391   -2.79382635213170
N        -1.29117066807076    0.99187206418162    1.08794980793207
C        -2.34704322435924    0.86008030513126    1.94051917716362
C        -2.64788842883971    1.97514672634375    2.84421966837134
C        -3.76357110390682    2.10687329498258    3.63445418471821
C        -3.63396953246742    3.34200417052719    4.30144829419222
C        -2.45297574567195    3.87313517719874    3.87675285500005
O        -1.84695383116778    3.05854380123778    3.00231618471137
O        -3.02241212786733   -0.15262183128147    1.94430409171346
C        -0.33007635775081    2.05114903400451    1.03949513509245
C        -0.94179423395393    3.40261756698043    0.54935835057623
O        -0.13655845755891    4.43462950821448    0.68566541747397
O        -2.04552763685175    3.47349983823484    0.09211182014159
N         0.69377725074068    1.58184730035354    0.11744056515895
C         1.90424113496836    2.17364226785278    0.14147419300732
C         2.94604110713099    1.70116392954733   -0.77151257136664
C         4.30283009398654    1.67835242797511   -0.56984123047555
C         4.86546749549280    1.18138812761738   -1.76331525562532
C         3.81732398813910    0.96142667002407   -2.60640966989557
O         2.65688615731063    1.27033017685989   -2.01881102113744
O         2.12702963840097    3.10689767893535    0.91768265741724
H         4.75200169117832   -3.22708906058369    0.91353675950132
H         4.56066952547355   -2.24441246772276    3.16740961779724
H         2.76824319580817   -0.61855129059386    3.64560825871127
H         1.23257284663841    0.08015474659750    1.91159689682973
H         3.96712961004041   -3.44620037773846   -1.35386715385690
H         2.39675076230665   -2.80252511154146   -3.15016899086750
H         0.75295273884464   -1.02565436271830   -2.76093904618755
H        -0.04701201244043    0.69398875509087   -1.60927788101364
H        -0.74812076175434   -0.98086668400833    0.78334454689251
H        -2.85530562891030    1.56467487745022   -0.78644985236928
H        -4.65982968692967    1.11358881158186   -2.36779568628090
H        -4.95008730250421   -1.15189425824149   -3.31276864641838
H        -0.58683926407123   -2.67845657736043   -0.26717199904038
H        -0.89298746456236   -4.86283192747838   -1.25785327932453
H        -2.70590756785817   -5.27680085260945   -2.87994222108194
H        -4.23522879138492   -3.44479987040036   -3.49987882037358
H        -4.56163620985727    1.39745141189133    3.70629719377468
H        -4.32179102780239    3.77562187150615    4.99761444835793
H        -1.94990629439498    4.78994268470969    4.11438870513942
H         0.13230217400707    2.23963163257705    2.02589720422584
H         0.77957961407637    4.16333446770011    0.96197412629695
H         4.81155399643701    1.96974039417717    0.32517439541817
H         5.90321536663053    1.01916547418042   -1.96766014955207
H         3.77426572913659    0.60566156810849   -3.61683532260155

 Bond Distances (Angstroems)
 ---------------------------
C1-C2=1.3652         C1-C6=1.4109         C1-H43=1.0805        C2-C1=1.3652         C2-C3=1.4018         C2-H44=1.0797        
C3-C2=1.4018         C3-C4=1.3669         C3-H45=1.0798        C4-C3=1.3669         C4-C5=1.4131         C4-H46=1.0767        
C5-C4=1.4131         C5-C6=1.4234         C5-C10=1.4213        C6-C1=1.4109         C6-C5=1.4234         C6-C7=1.4095         
C7-C6=1.4095         C7-C8=1.3652         C7-H47=1.0801        C8-C7=1.3652         C8-C9=1.3994         C8-H48=1.0793        
C9-C8=1.3994         C9-C10=1.3738        C9-H49=1.0802        C10-C5=1.4213        C10-C9=1.3738        C10-C11=1.5083       
C11-C10=1.5083       C11-C12=1.5483       C11-N35=1.4553       C11-H50=1.0992       C12-C11=1.5483       C12-C13=1.5116       
C12-N23=1.4548       C12-H51=1.0964       C13-C12=1.5116       C13-C14=1.3719       C13-C18=1.4213       C14-C13=1.3719       
C14-C15=1.4007       C14-H52=1.0793       C15-C14=1.4007       C15-C16=1.3646       C15-H53=1.0795       C16-C15=1.3646       
C16-C17=1.4099       C16-H54=1.0807       C17-C16=1.4099       C17-C18=1.4232       C17-C22=1.4109       C18-C13=1.4213       
C18-C17=1.4232       C18-C19=1.4129       C19-C18=1.4129       C19-C20=1.3671       C19-H55=1.0786       C20-C19=1.3671       
C20-C21=1.4017       C20-H56=1.0803       C21-C20=1.4017       C21-C22=1.3651       C21-H57=1.0801       C22-C17=1.4109       
C22-C21=1.3651       C22-H58=1.0808       N23-C12=1.4548       N23-C24=1.3635       N23-C31=1.4311       C24-N23=1.3635       
C24-C25=1.4665       C24-O30=1.2173       C25-C24=1.4665       C25-C26=1.3735       C25-O29=1.3566       C26-C25=1.3735       
C26-C27=1.4097       C26-H59=1.0702       C27-C26=1.4097       C27-C28=1.3628       C27-H60=1.0704       C28-C27=1.3628       
C28-O29=1.3399       C28-H61=1.0724       O29-C25=1.3566       O29-C28=1.3399       O30-C24=1.2173       C31-N23=1.4311       
C31-C32=1.5623       C31-N35=1.4556       C31-H62=1.1056       C32-C31=1.5623       C32-O33=1.3161       C32-O34=1.1968       
O33-C32=1.3161       O33-H63=0.9946       O34-C32=1.1968       N35-C11=1.4553       N35-C31=1.4556       N35-C36=1.3476       
C36-N35=1.3476       C36-C37=1.4636       C36-O42=1.2341       C37-C36=1.4636       C37-C38=1.3719       C37-O41=1.3509       
C38-C37=1.3719       C38-C39=1.4099       C38-H64=1.0699       C39-C38=1.4099       C39-C40=1.3630       C39-H65=1.0700       
C40-C39=1.3630       C40-O41=1.3369       C40-H66=1.0721       O41-C37=1.3509       O41-C40=1.3369       O42-C36=1.2341       
H43-C1=1.0805        H44-C2=1.0797        H45-C3=1.0798        H46-C4=1.0767        H47-C7=1.0801        H48-C8=1.0793        
H49-C9=1.0802        H50-C11=1.0992       H51-C12=1.0964       H52-C14=1.0793       H53-C15=1.0795       H54-C16=1.0807       
H55-C19=1.0786       H56-C20=1.0803       H57-C21=1.0801       H58-C22=1.0808       H59-C26=1.0702       H60-C27=1.0704       
H61-C28=1.0724       H62-C31=1.1056       H63-O33=0.9946       H64-C38=1.0699       H65-C39=1.0700       H66-C40=1.0721       
 C  H  Rav=1.0801 sigma=0.0089  Rmin=1.0699  Rmax=1.1056    23
 C  C  Rav=1.4133 sigma=0.0517  Rmin=1.3628  Rmax=1.5623    34
 N  C  Rav=1.4180 sigma=0.0452  Rmin=1.3476  Rmax=1.4556     6
 O  H  Rav=0.9946 sigma=0.0000  Rmin=0.9946  Rmax=0.9946     1
 O  C  Rav=1.2936 sigma=0.0618  Rmin=1.1968  Rmax=1.3566     8

 selected bond angles (degree)
 --------------------
C6-C1-C2=121.06                H43-C1-C2=120.62               H43-C1-C6=118.32               C3-C2-C1=119.71                
H44-C2-C1=120.67               H44-C2-C3=119.62               C4-C3-C2=120.67                H45-C3-C2=119.47               
H45-C3-C4=119.86               C5-C4-C3=121.29                H46-C4-C3=118.56               H46-C4-C5=120.14               
C6-C5-C4=117.76                C10-C5-C4=123.92               C10-C5-C6=118.32               C5-C6-C1=119.43                
C7-C6-C1=120.78                C7-C6-C5=119.79                C8-C7-C6=120.53                H47-C7-C6=118.62               
H47-C7-C8=120.84               C9-C8-C7=119.91                H48-C8-C7=120.78               H48-C8-C9=119.30               
C10-C9-C8=121.55               H49-C9-C8=119.03               H49-C9-C10=119.41              C9-C10-C5=119.69               
C11-C10-C5=122.87              C11-C10-C9=117.42              

 selected dihedral angles (degree)
 ---------------------------------
C3-C2-C1-C6=  1.26            C3-C2-C1-H43=181.76           H44-C2-C1-C6=180.16           H44-C2-C1-H43=  0.65          
C4-C3-C2-C1=358.19            C4-C3-C2-H44=179.28           H45-C3-C2-C1=177.84           H45-C3-C2-H44=358.93          
C5-C4-C3-C2=359.75            C5-C4-C3-H45=180.09           H46-C4-C3-C2=178.22           H46-C4-C3-H45=358.57          
C6-C5-C4-C3=  2.76            C6-C5-C4-H46=184.31           C10-C5-C4-C3=182.44           C10-C5-C4-H46=  3.99          
C5-C6-C1-C2=  1.30            C5-C6-C1-H43=180.81           C7-C6-C1-C2=182.07            C7-C6-C1-H43=  1.58           
C1-C6-C5-C4=356.75            C1-C6-C5-C10=177.05           C7-C6-C5-C4=175.99            C7-C6-C5-C10=356.29           
C8-C7-C6-C1=179.02            C8-C7-C6-C5=359.80            H47-C7-C6-C1=359.66           H47-C7-C6-C5=180.44           
C9-C8-C7-C6=  2.84            C9-C8-C7-H47=182.19           H48-C8-C7-C6=181.55           H48-C8-C7-H47=  0.89          
C10-C9-C8-C7=358.51           C10-C9-C8-H48=179.79          H49-C9-C8-C7=177.70           H49-C9-C8-H48=358.98          
C9-C10-C5-C4=185.36           C9-C10-C5-C6=  5.04           C11-C10-C5-C4=  3.92          C11-C10-C5-C6=183.60          
C5-C10-C9-C8=357.47           C5-C10-C9-H49=178.29          C11-C10-C9-C8=178.83          C11-C10-C9-H49=359.65         
           -------------------------------------------------
          |                Final Singlepoint                |
           -------------------------------------------------

          ...................................................
          :                      SETUP                      :
          :.................................................:
          :  # basis functions                 192          :
          :  # atomic orbitals                 192          :
          :  # shells                          108          :
          :  # electrons                       206          :
          :  max. iterations                   250          :
          :  Hamiltonian                  GFN2-xTB          :
          :  restarted?                      false          :
          :  GBSA solvation                  false          :
          :  PC potential                    false          :
          :  electronic temp.          300.0000000     K    :
          :  accuracy                    1.0000000          :
          :  -> integral cutoff          0.2500000E+02      :
          :  -> integral neglect         0.1000000E-07      :
          :  -> SCF convergence          0.1000000E-05 Eh   :
          :  -> wf. convergence          0.1000000E-03 e    :
          :  Broyden damping             0.4000000          :
          ...................................................

 iter      E             dE          RMSdq      gap      omega  full diag
   1   -117.0623133 -0.117062E+03  0.799E-05    2.55       0.0  T
   2   -117.0623133 -0.163141E-10  0.605E-05    2.55     203.5  T
   3   -117.0623133 -0.149555E-09  0.338E-05    2.55     363.7  T

   *** convergence criteria satisfied after 3 iterations ***

         #    Occupation            Energy/Eh            Energy/eV
      -------------------------------------------------------------
         1        2.0000           -0.7670538             -20.8726
       ...           ...                  ...                  ...
        97        2.0000           -0.4093598             -11.1392
        98        2.0000           -0.4052110             -11.0264
        99        2.0000           -0.4027478             -10.9593
       100        2.0000           -0.3987370             -10.8502
       101        2.0000           -0.3962039             -10.7813
       102        2.0000           -0.3919122             -10.6645
       103        2.0000           -0.3754577             -10.2167 (HOMO)
       104                         -0.2819090              -7.6711 (LUMO)
       105                         -0.2780258              -7.5655
       106                         -0.2631829              -7.1616
       107                         -0.2588521              -7.0437
       108                         -0.2466078              -6.7105
       ...                                ...                  ...
       192                          0.7035888              19.1456
      -------------------------------------------------------------
                  HL-Gap            0.0935486 Eh            2.5456 eV
             Fermi-level           -0.3286834 Eh           -8.9439 eV

 SCC (total)                   0 d,  0 h,  0 min,  0.330 sec
 SCC setup                      ...        0 min,  0.024 sec (  7.262%)
 Dispersion                     ...        0 min,  0.023 sec (  7.106%)
 classical contributions        ...        0 min,  0.019 sec (  5.788%)
 integral evaluation            ...        0 min,  0.069 sec ( 20.969%)
 iterations                     ...        0 min,  0.056 sec ( 17.086%)
 molecular gradient             ...        0 min,  0.136 sec ( 41.111%)
 printout                       ...        0 min,  0.002 sec (  0.652%)

         :::::::::::::::::::::::::::::::::::::::::::::::::::::
         ::                     SUMMARY                     ::
         :::::::::::::::::::::::::::::::::::::::::::::::::::::
         :: total energy            -115.338810163955 Eh    ::
         :: gradient norm              0.000976100337 Eh/a0 ::
         :: HOMO-LUMO gap              2.545587931330 eV    ::
         ::.................................................::
         :: SCC energy              -117.062313261659 Eh    ::
         :: -> isotropic ES            0.134410934984 Eh    ::
         :: -> anisotropic ES          0.002188029129 Eh    ::
         :: -> anisotropic XC          0.038121970033 Eh    ::
         :: -> dispersion             -0.101102042024 Eh    ::
         :: repulsion energy           1.720368252487 Eh    ::
         :: add. restraining           0.000000000000 Eh    ::
         :: total charge              -0.000000000000 e     ::
         :::::::::::::::::::::::::::::::::::::::::::::::::::::

           -------------------------------------------------
          |                Property Printout                |
           -------------------------------------------------

    * Orbital Energies and Occupations

         #    Occupation            Energy/Eh            Energy/eV
      -------------------------------------------------------------
         1        2.0000           -0.7670538             -20.8726
       ...           ...                  ...                  ...
        91        2.0000           -0.4336126             -11.7992
        92        2.0000           -0.4253990             -11.5757
        93        2.0000           -0.4235535             -11.5255
        94        2.0000           -0.4208382             -11.4516
        95        2.0000           -0.4169231             -11.3451
        96        2.0000           -0.4145395             -11.2802
        97        2.0000           -0.4093598             -11.1392
        98        2.0000           -0.4052110             -11.0264
        99        2.0000           -0.4027478             -10.9593
       100        2.0000           -0.3987370             -10.8502
       101        2.0000           -0.3962039             -10.7813
       102        2.0000           -0.3919122             -10.6645
       103        2.0000           -0.3754577             -10.2167 (HOMO)
       104                         -0.2819090              -7.6711 (LUMO)
       105                         -0.2780258              -7.5655
       106                         -0.2631829              -7.1616
       107                         -0.2588521              -7.0437
       108                         -0.2466078              -6.7105
       109                         -0.2443801              -6.6499
       110                         -0.2266985              -6.1688
       111                         -0.2131695              -5.8006
       112                         -0.2097289              -5.7070
       113                         -0.1909750              -5.1967
       114                         -0.1895843              -5.1589
       ...                                ...                  ...
       192                          0.7035888              19.1456
      -------------------------------------------------------------
                  HL-Gap            0.0935486 Eh            2.5456 eV
             Fermi-level           -0.3286834 Eh           -8.9439 eV

     #   Z          covCN         q      C6AA      α(0)
     1   6 C        2.921    -0.033    28.821     8.804
     2   6 C        2.915    -0.027    28.686     8.783
     3   6 C        2.917    -0.027    28.669     8.780
     4   6 C        2.917    -0.038    28.943     8.822
     5   6 C        2.983     0.006    27.881     8.661
     6   6 C        2.988     0.014    27.698     8.633
     7   6 C        2.921    -0.036    28.885     8.814
     8   6 C        2.914    -0.030    28.739     8.791
     9   6 C        2.924    -0.031    28.783     8.798
    10   6 C        2.966    -0.005    28.143     8.702
    11   6 C        3.817     0.041    19.872     6.344
    12   6 C        3.824     0.049    19.731     6.321
    13   6 C        2.968     0.002    27.981     8.677
    14   6 C        2.921    -0.035    28.863     8.810
    15   6 C        2.915    -0.026    28.663     8.779
    16   6 C        2.920    -0.036    28.885     8.813
    17   6 C        2.989     0.016    27.650     8.626
    18   6 C        2.983     0.010    27.789     8.647
    19   6 C        2.917    -0.035    28.872     8.811
    20   6 C        2.917    -0.030    28.740     8.791
    21   6 C        2.915    -0.030    28.757     8.794
    22   6 C        2.921    -0.034    28.843     8.807
    23   7 N        2.758    -0.109    23.385     7.182
    24   6 C        2.761     0.264    22.548     7.776
    25   6 C        3.110     0.082    26.024     8.358
    26   6 C        3.027    -0.041    29.000     8.833
    27   6 C        3.009    -0.056    29.382     8.892
    28   6 C        3.069     0.082    26.100     8.377
    29   8 O        1.729    -0.194    17.235     5.605
    30   8 O        0.860    -0.426    22.208     6.318
    31   6 C        3.757     0.082    19.264     6.258
    32   6 C        2.684     0.357    20.939     7.488
    33   8 O        1.656    -0.364    20.170     6.063
    34   8 O        0.856    -0.366    21.011     6.146
    35   7 N        2.757    -0.102    23.237     7.159
    36   6 C        2.763     0.262    22.588     7.783
    37   6 C        3.127     0.086    25.899     8.333
    38   6 C        3.026    -0.046    29.108     8.850
    39   6 C        3.015    -0.058    29.425     8.898
    40   6 C        3.079     0.079    26.149     8.383
    41   8 O        1.729    -0.174    16.924     5.555
    42   8 O        0.860    -0.470    23.128     6.448
    43   1 H        0.926     0.038     2.479     2.462
    44   1 H        0.926     0.038     2.478     2.462
    45   1 H        0.926     0.037     2.484     2.464
    46   1 H        0.926     0.029     2.596     2.520
    47   1 H        0.926     0.040     2.450     2.448
    48   1 H        0.926     0.039     2.459     2.452
    49   1 H        0.926     0.036     2.506     2.476
    50   1 H        0.923     0.059     2.217     2.328
    51   1 H        0.924     0.063     2.164     2.300
    52   1 H        0.926     0.060     2.198     2.319
    53   1 H        0.926     0.040     2.446     2.445
    54   1 H        0.926     0.036     2.505     2.475
    55   1 H        0.926     0.022     2.700     2.570
    56   1 H        0.926     0.029     2.600     2.522
    57   1 H        0.926     0.032     2.564     2.504
    58   1 H        0.926     0.034     2.525     2.485
    59   1 H        0.927     0.068     2.105     2.269
    60   1 H        0.926     0.053     2.284     2.363
    61   1 H        0.926     0.060     2.196     2.317
    62   1 H        0.922     0.070     2.085     2.258
    63   1 H        0.800     0.365     0.555     1.171
    64   1 H        0.927     0.063     2.169     2.303
    65   1 H        0.927     0.055     2.261     2.351
    66   1 H        0.926     0.061     2.186     2.312

 Mol. C6AA /au·bohr⁶  :      61714.725631
 Mol. C8AA /au·bohr⁸  :    1530781.067317
 Mol. α(0) /au        :        393.089981


Wiberg/Mayer (AO) data.
largest (>0.10) Wiberg bond orders for each atom

 ---------------------------------------------------------------------------
     #   Z sym  total        # sym  WBO       # sym  WBO       # sym  WBO
 ---------------------------------------------------------------------------
     1   6 C    3.991 --     2 C    1.557     6 C    1.279    43 H    0.968
                             4 C    0.118
     2   6 C    3.992 --     1 C    1.557     3 C    1.322    44 H    0.970
     3   6 C    3.992 --     4 C    1.554     2 C    1.322    45 H    0.971
     4   6 C    3.992 --     3 C    1.554     5 C    1.282    46 H    0.965
                             1 C    0.118
     5   6 C    3.989 --     4 C    1.282    10 C    1.255     6 C    1.250
     6   6 C    3.990 --     7 C    1.281     1 C    1.279     5 C    1.250
     7   6 C    3.989 --     8 C    1.550     6 C    1.281    47 H    0.968
                            10 C    0.115
     8   6 C    3.991 --     7 C    1.550     9 C    1.330    48 H    0.970
     9   6 C    3.989 --    10 C    1.516     8 C    1.330    49 H    0.967
    10   6 C    3.983 --     9 C    1.516     5 C    1.255    11 C    0.992
                             7 C    0.115
    11   6 C    3.959 --    10 C    0.992    35 N    0.957    50 H    0.951
                            12 C    0.947
    12   6 C    3.960 --    13 C    0.985    23 N    0.961    11 C    0.947
                            51 H    0.946
    13   6 C    3.982 --    14 C    1.527    18 C    1.253    12 C    0.985
                            16 C    0.114
    14   6 C    3.987 --    13 C    1.527    15 C    1.324    52 H    0.959
    15   6 C    3.992 --    16 C    1.555    14 C    1.324    53 H    0.970
    16   6 C    3.990 --    15 C    1.555    17 C    1.279    54 H    0.968
                            13 C    0.114
    17   6 C    3.990 --    22 C    1.280    16 C    1.279    18 C    1.252
    18   6 C    3.989 --    19 C    1.284    13 C    1.253    17 C    1.252
    19   6 C    3.992 --    20 C    1.554    18 C    1.284    55 H    0.962
                            22 C    0.118
    20   6 C    3.992 --    19 C    1.554    21 C    1.323    56 H    0.971
    21   6 C    3.992 --    22 C    1.556    20 C    1.323    57 H    0.971
    22   6 C    3.991 --    21 C    1.556    17 C    1.280    58 H    0.968
                            19 C    0.118
    23   7 N    3.463 --    24 C    1.185    31 C    1.004    12 C    0.961
                            30 O    0.184
    24   6 C    3.960 --    30 O    1.651    23 N    1.185    25 C    1.031
    25   6 C    3.903 --    26 C    1.525    29 O    1.094    24 C    1.031
                            28 C    0.139
    26   6 C    3.984 --    25 C    1.525    27 C    1.321    59 H    0.972
    27   6 C    3.984 --    28 C    1.584    26 C    1.321    60 H    0.973
    28   6 C    3.906 --    27 C    1.584    29 O    1.144    61 H    0.965
                            25 C    0.139
    29   8 O    2.441 --    28 C    1.144    25 C    1.094
    30   8 O    2.001 --    24 C    1.651    23 N    0.184
    31   6 C    3.957 --    23 N    1.004    35 N    0.966    62 H    0.934
                            32 C    0.885
    32   6 C    3.928 --    34 O    1.776    33 O    1.202    31 C    0.885
    33   8 O    2.239 --    32 C    1.202    63 H    0.779    34 O    0.180
    34   8 O    2.083 --    32 C    1.776    33 O    0.180
    35   7 N    3.507 --    36 C    1.260    31 C    0.966    11 C    0.957
                            42 O    0.183
    36   6 C    3.958 --    42 O    1.558    35 N    1.260    37 C    1.027
    37   6 C    3.907 --    38 C    1.525    41 O    1.105    36 C    1.027
                            40 C    0.138
    38   6 C    3.983 --    37 C    1.525    39 C    1.321    64 H    0.973
    39   6 C    3.983 --    40 C    1.581    38 C    1.321    65 H    0.973
    40   6 C    3.907 --    39 C    1.581    41 O    1.153    66 H    0.965
                            37 C    0.138
    41   8 O    2.455 --    40 C    1.153    37 C    1.105
    42   8 O    1.978 --    36 C    1.558    35 N    0.183
    43   1 H    0.998 --     1 C    0.968
    44   1 H    0.998 --     2 C    0.970
    45   1 H    0.998 --     3 C    0.971
    46   1 H    0.999 --     4 C    0.965
    47   1 H    0.997 --     7 C    0.968
    48   1 H    0.997 --     8 C    0.970
    49   1 H    0.998 --     9 C    0.967
    50   1 H    0.996 --    11 C    0.951
    51   1 H    0.995 --    12 C    0.946
    52   1 H    0.996 --    14 C    0.959
    53   1 H    0.997 --    15 C    0.970
    54   1 H    0.998 --    16 C    0.968
    55   1 H    0.999 --    19 C    0.962
    56   1 H    0.999 --    20 C    0.971
    57   1 H    0.998 --    21 C    0.971
    58   1 H    0.998 --    22 C    0.968
    59   1 H    0.995 --    26 C    0.972
    60   1 H    0.997 --    27 C    0.973
    61   1 H    0.996 --    28 C    0.965
    62   1 H    0.994 --    31 C    0.934
    63   1 H    0.867 --    33 O    0.779
    64   1 H    0.996 --    38 C    0.973
    65   1 H    0.997 --    39 C    0.973
    66   1 H    0.996 --    40 C    0.965
 ---------------------------------------------------------------------------

Topologies differ in total number of bonds
Writing topology from bond orders to xtbtopo.mol

molecular dipole:
                 x           y           z       tot (Debye)
 q only:        1.798      -1.060      -0.545
   full:        2.221      -1.062      -0.438       6.357
molecular quadrupole (traceless):
                xx          xy          yy          xz          yz          zz
 q only:        2.340      -6.211     -14.019      -4.104      11.778      11.679
  q+dip:        0.090     -11.331     -16.629       1.527      15.650      16.539
   full:       -0.493      -7.970     -16.285      -2.265      12.478      16.778

           -------------------------------------------------
          |                Geometry Summary                 |
           -------------------------------------------------

      molecular mass/u    :      556.5654345
   center of mass at/Å    :       -0.0839588       0.2831145       0.0824852
  moments of inertia/u·Å² :        0.4720487E+04   0.5620685E+04   0.7919488E+04
rotational constants/cm⁻¹ :        0.3571164E-02   0.2999213E-02   0.2128626E-02

 * 66 selected distances

     #   Z          #   Z                                           value/Å
     1   6 C        2   6 C                                       1.3652178
     2   6 C        3   6 C                                       1.4017714
     3   6 C        4   6 C                                       1.3669239
     4   6 C        5   6 C                                       1.4130625
     1   6 C        6   6 C                                       1.4109031
     5   6 C        6   6 C                                       1.4233758
     6   6 C        7   6 C                                       1.4095273
     7   6 C        8   6 C                                       1.3651920
     8   6 C        9   6 C                                       1.3993542
     5   6 C       10   6 C                                       1.4213299
     9   6 C       10   6 C                                       1.3737755
    13   6 C       14   6 C                                       1.3718836
    14   6 C       15   6 C                                       1.4006677
    15   6 C       16   6 C                                       1.3645564
    16   6 C       17   6 C                                       1.4098918
    13   6 C       18   6 C                                       1.4213292
    17   6 C       18   6 C                                       1.4231617
    18   6 C       19   6 C                                       1.4128923
    19   6 C       20   6 C                                       1.3670780
    20   6 C       21   6 C                                       1.4016715
    17   6 C       22   6 C                                       1.4108992
    21   6 C       22   6 C                                       1.3651034
    12   6 C       23   7 N                                       1.4547683
    23   7 N       24   6 C                                       1.3634920
    25   6 C       26   6 C                                       1.3735248
    26   6 C       27   6 C                                       1.4096900
    27   6 C       28   6 C                                       1.3627959
    25   6 C       29   8 O                                       1.3565544
    28   6 C       29   8 O                                       1.3399482
    24   6 C       30   8 O                                       1.2172523
    23   7 N       31   6 C                                       1.4311247
    32   6 C       33   8 O                                       1.3160672
    32   6 C       34   8 O                                       1.1967983
    11   6 C       35   7 N                                       1.4553093
    31   6 C       35   7 N                                       1.4555772 (max)
    35   7 N       36   6 C                                       1.3475985
    37   6 C       38   6 C                                       1.3718849
    38   6 C       39   6 C                                       1.4099343
    39   6 C       40   6 C                                       1.3630099
    37   6 C       41   8 O                                       1.3509188
    40   6 C       41   8 O                                       1.3369030
    36   6 C       42   8 O                                       1.2341394
     1   6 C       43   1 H                                       1.0804917
     2   6 C       44   1 H                                       1.0796635
     3   6 C       45   1 H                                       1.0798336
     4   6 C       46   1 H                                       1.0766731
     7   6 C       47   1 H                                       1.0800945
     8   6 C       48   1 H                                       1.0793072
     9   6 C       49   1 H                                       1.0801558
    11   6 C       50   1 H                                       1.0991714
    12   6 C       51   1 H                                       1.0963596
    14   6 C       52   1 H                                       1.0792775
    15   6 C       53   1 H                                       1.0794789
    16   6 C       54   1 H                                       1.0806686
    19   6 C       55   1 H                                       1.0786380
    20   6 C       56   1 H                                       1.0803027
    21   6 C       57   1 H                                       1.0801099
    22   6 C       58   1 H                                       1.0808445
    26   6 C       59   1 H                                       1.0702097
    27   6 C       60   1 H                                       1.0704065
    28   6 C       61   1 H                                       1.0724205
    31   6 C       62   1 H                                       1.1055807
    33   8 O       63   1 H                                       0.9946137 (min)
    38   6 C       64   1 H                                       1.0699345
    39   6 C       65   1 H                                       1.0700438
    40   6 C       66   1 H                                       1.0720927

 * 5 distinct bonds (by element types)

   Z      Z             #   av. dist./Å        max./Å        min./Å
   1 H    6 C          23     1.0800765     1.1055807     1.0699345
   6 C    6 C          28     1.3925146     1.4233758     1.3627959
   6 C    7 N           6     1.4179783     1.4555772     1.3475985
   1 H    8 O           1     0.9946137     0.9946137     0.9946137
   6 C    8 O           8     1.2935727     1.3565544     1.1967983


optimized geometry written to: xtbopt.xyz


           -------------------------------------------------
          | TOTAL ENERGY             -115.338810163955 Eh   |
          | GRADIENT NORM               0.000976100337 Eh/α |
          | HOMO-LUMO GAP               2.545587931330 eV   |
           -------------------------------------------------

------------------------------------------------------------------------
 * finished run on 2022/03/17 at 02:14:49.064     
------------------------------------------------------------------------
 total:
 * wall-time:     0 d,  0 h,  0 min, 17.237 sec
 *  cpu-time:     0 d,  0 h,  6 min, 41.368 sec
 * ratio c/w:    23.285 speedup
 SCF:
 * wall-time:     0 d,  0 h,  0 min,  0.481 sec
 *  cpu-time:     0 d,  0 h,  0 min,  8.487 sec
 * ratio c/w:    17.647 speedup
 ANC optimizer:
 * wall-time:     0 d,  0 h,  0 min, 16.616 sec
 *  cpu-time:     0 d,  0 h,  6 min, 28.809 sec
 * ratio c/w:    23.400 speedup

