66
 energy: -115.311315263564 gnorm: 0.138632850927 xtb: 6.3.3 (4ae9cef)
C         3.51814800000000   -2.96721900000000    1.47382700000000
C         3.32759200000000   -2.47445400000000    2.76133000000000
C         2.47325700000000   -1.40297100000000    2.96204600000000
C         1.81057800000000   -0.82638500000000    1.87558200000000
C         1.98018700000000   -1.29534700000000    0.54957900000000
C         2.85882500000000   -2.39811300000000    0.37303400000000
C         3.07021900000000   -2.93794600000000   -0.90235300000000
C         2.42401700000000   -2.41689200000000   -2.01480300000000
C         1.55983400000000   -1.34144700000000   -1.86485200000000
C         1.32524500000000   -0.75419400000000   -0.60237000000000
C         0.31381100000000    0.39356000000000   -0.58119500000000
C        -1.02329400000000   -0.03370500000000    0.10649800000000
C        -2.09957200000000   -0.42979100000000   -0.90699200000000
C        -2.97715000000000    0.55054400000000   -1.40525100000000
C        -3.91913000000000    0.25312800000000   -2.38384500000000
C        -4.00115600000000   -1.03351700000000   -2.89611700000000
C        -3.15734100000000   -2.04637900000000   -2.42568400000000
C        -2.20338300000000   -1.76823400000000   -1.40966100000000
C        -1.41654600000000   -2.86114800000000   -0.96537600000000
C        -1.53343400000000   -4.13992000000000   -1.51830300000000
C        -2.45355600000000   -4.37597600000000   -2.52703100000000
C        -3.26657300000000   -3.33646400000000   -2.97027300000000
N        -1.37437500000000    1.09704100000000    0.98088900000000
C        -2.22565500000000    0.88809600000000    2.06442800000000
C        -2.48014800000000    1.97618400000000    2.99608100000000
C        -3.02019200000000    1.94694900000000    4.27202700000000
C        -3.05179400000000    3.28209500000000    4.73989400000000
C        -2.56128900000000    4.05354900000000    3.71486200000000
O        -2.19800100000000    3.27318100000000    2.66720500000000
O        -2.72242300000000   -0.22208300000000    2.25681200000000
C        -0.35291100000000    2.13392100000000    0.94032000000000
C        -0.84411100000000    3.46100700000000    0.26573200000000
O        -0.09307700000000    4.54940100000000    0.59974600000000
O        -1.74293600000000    3.55070300000000   -0.56083200000000
N         0.73674400000000    1.59181200000000    0.15306300000000
C         1.92246300000000    2.30321100000000    0.09701500000000
C         2.89728400000000    2.02809300000000   -0.93487400000000
C         4.26637100000000    2.23050800000000   -0.94604900000000
C         4.72454200000000    1.86425800000000   -2.23352100000000
C         3.60923400000000    1.48363300000000   -2.93990600000000
O         2.49562300000000    1.59642400000000   -2.17021400000000
O         2.09739300000000    3.19833100000000    0.93387800000000
H         4.18847700000000   -3.81317700000000    1.33699000000000
H         3.84210300000000   -2.93149400000000    3.60163300000000
H         2.31279800000000   -1.01739300000000    3.96649400000000
H         1.14644500000000   -0.00089300000000    2.09992300000000
H         3.73976900000000   -3.78368400000000   -1.03819300000000
H         2.58714600000000   -2.85055300000000   -2.99766700000000
H         1.05726400000000   -0.95582000000000   -2.75295200000000
H         0.11519700000000    0.74293000000000   -1.60204100000000
H        -0.86539000000000   -0.87398500000000    0.79078700000000
H        -2.94423900000000    1.57143400000000   -1.03624700000000
H        -4.58444600000000    1.03151600000000   -2.74662400000000
H        -4.74115500000000   -1.24128500000000   -3.66679500000000
H        -0.68902900000000   -2.74871200000000   -0.16732100000000
H        -0.90245000000000   -4.94511100000000   -1.15311700000000
H        -2.54526800000000   -5.36619100000000   -2.96073400000000
H        -3.99421600000000   -3.54256900000000   -3.75234200000000
H        -3.34910400000000    1.05613100000000    4.79106700000000
H        -3.41145900000000    3.64027700000000    5.69421700000000
H        -2.41568500000000    5.11741900000000    3.57850800000000
H        -0.00124500000000    2.34608700000000    1.95647500000000
H         0.72403700000000    4.30976900000000    1.10188100000000
H         4.85222200000000    2.60091500000000   -0.11478900000000
H         5.73876900000000    1.87981000000000   -2.60554200000000
H         3.44613700000000    1.13113300000000   -3.94795800000000
66
 energy: -115.326900535941 gnorm: 0.057211405501 xtb: 6.3.3 (4ae9cef)
C         3.51491002961221   -2.96127513337096    1.47677440254405
C         3.32101860444749   -2.46911330476868    2.74499613024795
C         2.45774809859382   -1.39209960709420    2.93671065332679
C         1.80225055248898   -0.81680364768695    1.86668687150137
C         1.97495335951614   -1.28610811887891    0.54483226160698
C         2.85809746560101   -2.39508466901424    0.36848314401423
C         3.06598903153440   -2.93502373228393   -0.91129084525541
C         2.41971011446614   -2.41127693491977   -2.00301563177371
C         1.55650903287692   -1.32842772967970   -1.84491799499978
C         1.32435867573696   -0.74714638180552   -0.60575728811076
C         0.31203820709324    0.38780039859063   -0.57582150245640
C        -1.02165887032617   -0.03806541253867    0.11113163078958
C        -2.08987379837476   -0.42500989011327   -0.90612083446607
C        -2.95464414076118    0.54110898135272   -1.39368324912839
C        -3.90852028655947    0.24702473951475   -2.37125345725136
C        -3.99989253183247   -1.02105173733773   -2.88835009721951
C        -3.15445157793454   -2.04104759370133   -2.42194803976437
C        -2.19223027567907   -1.76136135125867   -1.40446339667283
C        -1.40504202977237   -2.84918623845420   -0.96350742407321
C        -1.53060250864505   -4.11093462709050   -1.50926633516421
C        -2.45429734037357   -4.35802529915519   -2.52280092279980
C        -3.25983587941563   -3.33600798436586   -2.96393755731907
N        -1.36763518605967    1.09733634587174    0.97788910325756
C        -2.20307206836763    0.87905441647472    2.05672548587373
C        -2.46462865673931    1.98165352523834    2.98302160738446
C        -3.01200713815426    1.94372480379555    4.24890621028467
C        -3.05665420346974    3.27461386610657    4.71308879906935
C        -2.55310330693506    4.04283312414985    3.70278148346738
O        -2.18404414123392    3.27513139116874    2.66029963520438
O        -2.71677993575378   -0.21543825918849    2.22940210869518
C        -0.35723635856396    2.13247885747480    0.94312286699818
C        -0.83192772509233    3.45140962071221    0.26314424841597
O        -0.12689818363123    4.53756300790556    0.61417983086262
O        -1.74286133571795    3.52254051137618   -0.51297930666013
N         0.73409754397971    1.58381144863922    0.15702547915766
C         1.90992228307945    2.28508506937644    0.10493633405360
C         2.89008530010951    1.99942102095888   -0.93217175159837
C         4.25038416248319    2.21799307607807   -0.94100427199671
C         4.70682471849853    1.86158451303303   -2.22626043530667
C         3.59962326911494    1.47828200736151   -2.92637334739468
O         2.49768520420293    1.54775587401280   -2.15436891883443
O         2.10078957659260    3.18028593101480    0.93195019380127
H         4.18040056242835   -3.80262714779829    1.33197725773046
H         3.83217503537086   -2.92020486980605    3.58596651107169
H         2.29847919223345   -1.00640266657502    3.93555778380623
H         1.14023695697026    0.00886552305515    2.07911748538174
H         3.73524249547954   -3.77607387576202   -1.03818422149213
H         2.57867365577891   -2.83840724710731   -2.98426890064738
H         1.05140172115309   -0.94079814619426   -2.72120496585790
H         0.10005765810612    0.70010821652972   -1.60724011579540
H        -0.85623820466298   -0.89176451104809    0.77971909813350
H        -2.90454491445650    1.55666715112058   -1.02480870774458
H        -4.56728899761386    1.02644776549847   -2.73057020508872
H        -4.73118288339674   -1.23541526716987   -3.65831916250222
H        -0.68177930063663   -2.72705682637484   -0.17010005800523
H        -0.90541310752797   -4.91502520118332   -1.14351564152433
H        -2.54481839701657   -5.34759859957210   -2.95226349412304
H        -3.98820760150352   -3.53319157598117   -3.74039820102388
H        -3.33420499059152    1.05983096993926    4.76722031253734
H        -3.41111160880215    3.62434717331882    5.66504080997690
H        -2.40747182788946    5.10095484964816    3.58326475328603
H        -0.00535149495842    2.36675970280835    1.95900441851262
H         0.71532417144332    4.30383370533602    1.07439486014038
H         4.83288486963674    2.58948970848204   -0.11873689884980
H         5.71541889694043    1.88725819798720   -2.59393329265900
H         3.44821836288022    1.13999609334832   -3.93451629757434
66
 energy: -115.331709314975 gnorm: 0.019637963251 xtb: 6.3.3 (4ae9cef)
C         3.50829796816339   -2.94934633403318    1.47711478034121
C         3.30965231927653   -2.45563534958520    2.73243655274404
C         2.43949234279675   -1.37310002746095    2.91552483147856
C         1.79161385946343   -0.80228265082966    1.85431786028090
C         1.97011167618002   -1.27714560397027    0.53645626221456
C         2.85463475348121   -2.38721951608925    0.36101780106351
C         3.06072497851013   -2.92783089657447   -0.92287798813311
C         2.41537728531153   -2.40328956660625   -2.00260253248919
C         1.55040536660286   -1.31598992514092   -1.83856435426902
C         1.32195111359302   -0.74162417232816   -0.61410469744875
C         0.31130991963365    0.38447249891901   -0.57386653512838
C        -1.01374474915378   -0.04463663621042    0.11772642017992
C        -2.07936939031571   -0.41756205955479   -0.89898867522184
C        -2.92853384516830    0.54455675181919   -1.37891585123492
C        -3.89184940842764    0.25511575905850   -2.35666462908498
C        -3.99241425561282   -1.00161356551426   -2.87463885478796
C        -3.14579552666078   -2.02898961513673   -2.41295147809872
C        -2.17967826389200   -1.75167165548574   -1.39653128603952
C        -1.38805155015907   -2.83473805028908   -0.95766984932663
C        -1.51860828816168   -4.08494823912791   -1.49667367622073
C        -2.44851282449823   -4.34010949948501   -2.51213145220638
C        -3.24961305430200   -3.32845129364147   -2.95196800757014
N        -1.36075722280728    1.09088870216186    0.97561767543628
C        -2.19618990627462    0.86525546577879    2.03950515118530
C        -2.44677142637606    1.98123826103975    2.96442656033740
C        -2.99985462086982    1.93395120557323    4.22224878122853
C        -3.05363575738242    3.26334300465798    4.68538526471270
C        -2.53940234804955    4.02946664991885    3.68338167358634
O        -2.16262436479149    3.27033785395236    2.64721391412932
O        -2.71673076825470   -0.22032043276450    2.20661153728457
C        -0.36216458431575    2.12485691908148    0.95011334170562
C        -0.85917519058521    3.44526299935378    0.29337148742823
O        -0.13970228735917    4.51253205173463    0.60245546713566
O        -1.76311930681436    3.48494286902185   -0.48045247424894
N         0.73016586235369    1.57479508513371    0.15801604247397
C         1.89884942730808    2.25921477661488    0.11637126513785
C         2.88141103570972    1.95656550942171   -0.92349174206381
C         4.23366407266207    2.19834441486898   -0.92992142516655
C         4.68917548285602    1.85591695570320   -2.21767092476229
C         3.58751525925915    1.44852963804175   -2.90677833989489
O         2.49365243433422    1.50388732025393   -2.13898598226217
O         2.10490324074623    3.16296060234765    0.92845946642863
H         4.17093371264686   -3.78778750061969    1.32099414383113
H         3.81509836905042   -2.89846206148878    3.57802378311872
H         2.27847661380781   -0.98864762635069    3.91125105906241
H         1.12835377569734    0.02485314944123    2.04872463897535
H         3.73014293180643   -3.76740920232438   -1.03608959254490
H         2.56615762866716   -2.82489207228424   -2.98427266356101
H         1.04351041925156   -0.92548741848024   -2.70739909781959
H         0.08508681274562    0.67324459479337   -1.61041469757616
H        -0.84739489155191   -0.90584690369033    0.77748958688572
H        -2.86175860392891    1.55591846363754   -1.00843567770994
H        -4.54762304612890    1.03787903002695   -2.70620693150069
H        -4.71950884038322   -1.22708475071049   -3.64146398216398
H        -0.66314034352286   -2.69742510525610   -0.17154163526252
H        -0.89828451669170   -4.89020574650819   -1.13182173273630
H        -2.53646199435941   -5.33064948670971   -2.93512554145146
H        -3.98237635394552   -3.51286662416100   -3.72439356455626
H        -3.32364241959158    1.05396515658181    4.73646772133955
H        -3.41618119944657    3.60654838984903    5.63232802585636
H        -2.39681617826557    5.08618795747619    3.57951173354261
H        -0.00552109303259    2.36697047742445    1.96586992155677
H         0.71113998752408    4.28076367054431    1.04420417794632
H         4.81198601157427    2.57738467104195   -0.11418068444478
H         5.69336474360292    1.90511248829069   -2.58505878612385
H         3.44784701646511    1.12800424484765   -3.91978258551780
66
 energy: -115.333281333116 gnorm: 0.017227059456 xtb: 6.3.3 (4ae9cef)
C         3.50122184994142   -2.93530332039232    1.47375652108343
C         3.29677643985119   -2.43804012868096    2.72599685672556
C         2.42374026664528   -1.35376783103793    2.90364239480521
C         1.78159727203096   -0.78701254622342    1.83988102109746
C         1.96772113085239   -1.26900788057073    0.52509687576513
C         2.85060585445279   -2.37728864920572    0.35241672508960
C         3.05678634037424   -2.92067019202627   -0.93225515288507
C         2.41180575120244   -2.39916101963580   -2.01256492207974
C         1.54564030483081   -1.31078153659886   -1.84953302691157
C         1.32042378424273   -0.73723915437615   -0.62630395292386
C         0.30882593368239    0.38310563849554   -0.57722131842424
C        -1.00449533946674   -0.05372505626357    0.12438048889937
C        -2.07124772224981   -0.41356961348900   -0.88935029235539
C        -2.91147325419014    0.55539142718129   -1.36551700039148
C        -3.87826462366786    0.27043395074543   -2.34292726050022
C        -3.98378638100008   -0.98517461724953   -2.85999287345935
C        -3.13728182568124   -2.01711415898023   -2.40223366719110
C        -2.17012472548823   -1.74436032019833   -1.38965120389842
C        -1.37126010385168   -2.82300376734310   -0.95196060087115
C        -1.50400536272176   -4.07202281892617   -1.48685858102899
C        -2.44004216802979   -4.32857430843280   -2.49967193009167
C        -3.24161403333030   -3.31803688935748   -2.93969392866521
N        -1.35251566449118    1.07703555676880    0.98035980437871
C        -2.19538194928304    0.84925657844259    2.03191358054281
C        -2.43800362009102    1.97346021667611    2.95130174172733
C        -3.00155339649719    1.92504178834706    4.20226845901222
C        -3.05324159449726    3.25506095439210    4.66566500078530
C        -2.52724474210022    4.01862700207806    3.66706534129480
O        -2.14559730734007    3.25925394321699    2.63514265710744
O        -2.72935400366570   -0.23035956892906    2.19399981538716
C        -0.36071537163016    2.11215516254046    0.95638162841245
C        -0.86007421218022    3.43003566496231    0.29086386390019
O        -0.16381474185065    4.50214526437925    0.61681615382658
O        -1.81606944920186    3.46495369418688   -0.43149055526552
N         0.72654087773004    1.56787125362589    0.15500798462097
C         1.89368618114643    2.24184956552485    0.12151054226476
C         2.87738381095617    1.92096864918819   -0.91393470585265
C         4.22522439147608    2.18145463782293   -0.92076061411617
C         4.68138516382171    1.84482828059857   -2.21048249886950
C         3.58163552413193    1.42071091242705   -2.89474453363902
O         2.49223959950460    1.45638764143858   -2.12340373260617
O         2.10588626557090    3.15590492824047    0.92161058173045
H         4.16354893236885   -3.77346054541751    1.31371965468007
H         3.79686149465246   -2.87445667065285    3.57740618896755
H         2.25951650493706   -0.96870885209644    3.89840402533223
H         1.11547897490859    0.04110174596572    2.02043681848237
H         3.72726297754234   -3.76062424182567   -1.03585760513813
H         2.55813574567211   -2.81865438159223   -2.99527783644046
H         1.03704770284165   -0.91995117531758   -2.71713271414161
H         0.07035231235093    0.66936010994523   -1.61149162868035
H        -0.83644180588775   -0.91683569954789    0.78063382936911
H        -2.83251694030647    1.56560947568395   -0.99513662455799
H        -4.53004860067507    1.05869621953169   -2.68678855046215
H        -4.71131287880520   -1.21603542590128   -3.62445015764213
H        -0.64124984051965   -2.67453961438693   -0.17219403659762
H        -0.88361680534514   -4.87826539236864   -1.12488172858224
H        -2.52661636655880   -5.32067482690152   -2.91751784996327
H        -3.97832041107794   -3.49518386213048   -3.71034274639887
H        -3.32838415125303    1.04481194813923    4.71317737777155
H        -3.42480001415823    3.59701434297684    5.60885076839941
H        -2.38012390045309    5.07591025527321    3.57206575825234
H         0.00765482737106    2.35400306457865    1.96943345980988
H         0.71280554066203    4.27481552779222    1.01772425125633
H         4.79950534502971    2.56885771103530   -0.10643440525291
H         5.68365627167260    1.91311199375499   -2.57932600137330
H         3.44963793509289    1.10237696010039   -3.90954693352040
66
 energy: -115.334209916766 gnorm: 0.011755851851 xtb: 6.3.3 (4ae9cef)
C         3.49478357181974   -2.91941052557370    1.46829833468519
C         3.28420148617657   -2.41798252654716    2.71976511386532
C         2.40980075614872   -1.33405363535758    2.89314121214473
C         1.77208929944828   -0.77108699458280    1.82350717204652
C         1.96562183301637   -1.25978565616505    0.51139163985631
C         2.84701687029380   -2.36576944045780    0.34278765889829
C         3.05400316225712   -2.91283369091764   -0.94074121884900
C         2.40847965740641   -2.39638803851290   -2.02517725441787
C         1.54092999089967   -1.30869206332131   -1.86629150261539
C         1.31855802888284   -0.73180226561780   -0.64095814980378
C         0.30586906604295    0.38575427170413   -0.58311978493799
C        -0.99612576435668   -0.05987143353971    0.12890074587580
C        -2.06505088674849   -0.41247693843671   -0.87997010726454
C        -2.90023204780425    0.56501738619695   -1.35380239653446
C        -3.86761345045661    0.28405390975308   -2.33049700962594
C        -3.97659711888063   -0.97346312742851   -2.84591140315603
C        -3.13118435495395   -2.00843882482065   -2.39131875885478
C        -2.16297620171397   -1.73993053989001   -1.38339372987978
C        -1.35578434631548   -2.81436004274019   -0.94798614214973
C        -1.48946669276982   -4.06507275710628   -1.48098581469548
C        -2.43199834454063   -4.32051973996031   -2.48834932201533
C        -3.23629853108141   -3.30943709238884   -2.92803082606131
N        -1.34460519798953    1.06323121854476    0.98914534146243
C        -2.19805600561885    0.83487964141010    2.03011894967623
C        -2.43712193914393    1.96242108410584    2.94431670382682
C        -3.01267183834098    1.91720412786067    4.18950836534003
C        -3.05767525544100    3.24842393147929    4.65266895183892
C        -2.51767026928337    4.00811718788135    3.65692564846796
O        -2.13314406347412    3.24500797058040    2.62864797627827
O        -2.74277341198057   -0.24099019235057    2.18646305603600
C        -0.36063204267765    2.10302572352295    0.96320178946214
C        -0.88247403931557    3.42640273899502    0.31925938355150
O        -0.15949915160227    4.49062482589745    0.60781900685882
O        -1.84927409720211    3.45438834214615   -0.38945531146342
N         0.72146203811514    1.56841907155425    0.14904467423798
C         1.89195287230293    2.23238813085355    0.12296754120259
C         2.87706781488522    1.89478045367451   -0.90513517757126
C         4.22216278884448    2.16925046650302   -0.91444825167967
C         4.67976493564327    1.82976812993389   -2.20358554512449
C         3.58193114072508    1.39176272288967   -2.88473383605441
O         2.49421995573072    1.41878258058588   -2.11083942706639
O         2.10693707812643    3.15381780165756    0.91509031289192
H         4.15809191448833   -3.75783705633989    1.31024805943454
H         3.77936929042378   -2.84944854328742    3.57672879098445
H         2.24146900520465   -0.94740969404702    3.88723207306510
H         1.10317541759277    0.05671194945427    1.99463026044305
H         3.72563522286004   -3.75325256469761   -1.03837997747648
H         2.55287674291300   -2.81657428258449   -3.00825326631778
H         1.03016149846617   -0.92000961512212   -2.73462933432821
H         0.05591067483582    0.67597300645699   -1.61306829511036
H        -0.82241331454624   -0.92364209707992    0.78191154622918
H        -2.81526915711527    1.57387165565676   -0.98119939254961
H        -4.51487922844882    1.07784305349926   -2.67143447868989
H        -4.70641471792658   -1.20513093411719   -3.60839453367595
H        -0.61966357304487   -2.65911511366935   -0.17458163718913
H        -0.86572199803987   -4.87129763250135   -1.12366149917154
H        -2.51841218444759   -5.31411854226372   -2.90215472440680
H        -3.97566560735644   -3.48410002155198   -3.69725424871931
H        -3.34540001529098    1.03597710588134    4.69637533030728
H        -3.43743748756933    3.59223992497237    5.59216906321869
H        -2.36097428280167    5.06536088666274    3.56672089743962
H         0.01900059194557    2.33997655778330    1.97280490765013
H         0.72009544876738    4.25950927656759    0.99758949639785
H         4.79242733935200    2.56421896387832   -0.09996409466650
H         5.68066387589677    1.91077328077000   -2.57398060593967
H         3.45544524876777    1.06432224366490   -3.89769394561162
66
 energy: -115.334770859331 gnorm: 0.009065587283 xtb: 6.3.3 (4ae9cef)
C         3.48952676529416   -2.90151830954082    1.46157038477520
C         3.27293092618285   -2.39575694026207    2.71149578318406
C         2.39769413495769   -1.31316131720341    2.88052998705881
C         1.76350819776516   -0.75423582013322    1.80542407831462
C         1.96301285884914   -1.24866328116868    0.49583342877472
C         2.84441789808067   -2.35277495735020    0.33230484505699
C         3.05213809689645   -2.90357501764533   -0.94902802968363
C         2.40449995629525   -2.39326512962944   -2.03699682399003
C         1.53465276631841   -1.30757289999314   -1.88333627892677
C         1.31536155555221   -0.72517990745357   -0.65739871433300
C         0.30231856571030    0.39125452619497   -0.59183226233417
C        -0.98903790760058   -0.06327994504547    0.13204927964376
C        -2.06147413329230   -0.41437899127533   -0.87029482868834
C        -2.89400938365440    0.56898209143056   -1.34238509775967
C        -3.86011087026668    0.29174075691008   -2.31898279402532
C        -3.97215647659978   -0.96752385499725   -2.83288003786081
C        -3.12862903600724   -2.00449333304547   -2.38087041771582
C        -2.15833571564507   -1.73888943587797   -1.37708529354718
C        -1.34263254010090   -2.80981710856591   -0.94667658117699
C        -1.47572046143783   -4.06133056124541   -1.48062306354525
C        -2.42566358154903   -4.31530692138782   -2.48027690456408
C        -3.23439284806595   -3.30507485165738   -2.91735681960972
N        -1.33576048257210    1.05205165361762    1.00023156369598
C        -2.20453934599696    0.82583479721928    2.02931519738397
C        -2.44264159284553    1.95160477248857    2.94263033660174
C        -3.03128897918149    1.91134385217792    4.18247289060264
C        -3.06769979259747    3.24330993041198    4.64589535307616
C        -2.51063765960253    3.99853682694637    3.65534199230757
O        -2.12249258685999    3.23106201561669    2.63076231697418
O        -2.75341364832055   -0.24860193378684    2.17994545266825
C        -0.35811667064757    2.09733229183279    0.96859816991517
C        -0.89608463165530    3.42648715175372    0.34423353550239
O        -0.15216284418311    4.48345358680305    0.60929277219591
O        -1.88225505968211    3.46218526326344   -0.33612430950087
N         0.71685323206276    1.57539207847892    0.13800752598387
C         1.89361983147508    2.22946666638169    0.11953439388668
C         2.88129135697283    1.87862936163056   -0.89946311610263
C         4.22493774926788    2.16059567237982   -0.91111853916923
C         4.68554514811207    1.80862233338857   -2.19592068871181
C         3.59079790837521    1.35666677071747   -2.87392325902044
O         2.50155261400913    1.39551102947483   -2.10378788483943
O         2.11069105457591    3.15229576455384    0.90964647552493
H         4.15479886017823   -3.73992415205789    1.31025863549501
H         3.76375183406391   -2.82338867180045    3.57312951677131
H         2.22398461864286   -0.92433691274746    3.87333832224362
H         1.09266120563241    0.07202331548605    1.97150115153011
H         3.72497498408163   -3.74366409636260   -1.04442992602532
H         2.54825194496160   -2.81703877812875   -3.01920073766718
H         1.02106622879130   -0.92287315241300   -2.75253347450302
H         0.04139664502472    0.68589933352065   -1.61772246999174
H        -0.80518833511314   -0.92803729655589    0.78038689845596
H        -2.80787348043051    1.57575026297376   -0.96534187502263
H        -4.50299317804980    1.08988346966746   -2.65909435979591
H        -4.70488592691570   -1.19612261742444   -3.59385677978008
H        -0.60007790203422   -2.65232161610896   -0.18010243649150
H        -0.84585453688260   -4.86618625909496   -1.12990524451625
H        -2.51279506473549   -5.30994530965641   -2.89158732393953
H        -3.97574584779780   -3.48155965804157   -3.68427739481248
H        -3.37671990248898    1.02987286567017    4.68204523756479
H        -3.45657169468866    3.59060282733264    5.58074789955124
H        -2.34157818755073    5.05454552609351    3.56757899225873
H         0.03491097897037    2.32820785585243    1.97433915899490
H         0.73352248417391    4.24239616080422    0.98080241731814
H         4.79064687064186    2.56288132214296   -0.09634599063864
H         5.68549186934843    1.89444807542205   -2.56671542987693
H         3.46872916378809    1.01092682901978   -3.88176980514537
66
 energy: -115.335193761572 gnorm: 0.007827135920 xtb: 6.3.3 (4ae9cef)
C         3.48666983225914   -2.88269677778602    1.45419256713110
C         3.26494942689600   -2.37344652786574    2.70196283320592
C         2.38855797602000   -1.29229597379692    2.86665298273471
C         1.75749614176802   -0.73675903045327    1.78781237808234
C         1.96115379526304   -1.23526455524353    0.48047049901462
C         2.84361220502318   -2.33873599450175    0.32171853083092
C         3.05089232408483   -2.89300619930684   -0.95751879475859
C         2.39939608104040   -2.38882761540748   -2.04687059350447
C         1.52765704524968   -1.30463230154861   -1.89786454250897
C         1.31224857666978   -0.71636080150928   -0.67345065235845
C         0.29865744406962    0.39866822105930   -0.60167072339663
C        -0.98283084611327   -0.06425951118806    0.13458008594790
C        -2.05987142077918   -0.41692054578144   -0.86087217160305
C        -2.89255384309066    0.56849569916915   -1.33024415062164
C        -3.85766763670959    0.29372295567996   -2.30687962235887
C        -3.97164415882672   -0.96608598740278   -2.82065604417812
C        -3.12929090050926   -2.00411106279598   -2.37134473621131
C        -2.15526733313693   -1.73947517758508   -1.37105542533513
C        -1.33218607675790   -2.80817255148678   -0.94809859953892
C        -1.46388647321489   -4.05905175681046   -1.48490187753223
C        -2.42147471278120   -4.31263879688505   -2.47634365141044
C        -3.23576042923301   -3.30444485256919   -2.90800923832760
N        -1.32480935617718    1.04472539064742    1.01217049232776
C        -2.20792454040946    0.82096885018494    2.03044548503342
C        -2.45063123662327    1.94268993761100    2.94536304253547
C        -3.05824288075657    1.90719566353926    4.17729118663441
C        -3.08433765546122    3.23839084423878    4.64347725414435
C        -2.50429419460290    3.98961104651723    3.66279695447146
O        -2.11021116870465    3.21926391499414    2.64220145838116
O        -2.76262571676811   -0.25234812442254    2.16961875804668
C        -0.35349369198313    2.09600062974989    0.97243869767404
C        -0.90598477418928    3.42953946134886    0.36790336704223
O        -0.14333636300144    4.47912462952523    0.61227156545754
O        -1.91142993875040    3.47613728511266   -0.28088814259776
N         0.71327108954303    1.58694056819108    0.12364887232262
C         1.89655290225723    2.23169460415525    0.11219834173249
C         2.88774395971607    1.87095948858085   -0.89781976384556
C         4.23151609337212    2.15391612173131   -0.90957311725996
C         4.69782047714673    1.78120116719349   -2.18618215238609
C         3.60622034040232    1.32103882823140   -2.86306703052564
O         2.51352906265256    1.36967618717512   -2.09767058683760
O         2.11482469410075    3.15347421452914    0.90340429241470
H         4.15397603315090   -3.72080741758115    1.31087725514104
H         3.75279839318497   -2.79824477131397    3.56671084077808