      -----------------------------------------------------------      
     |                   =====================                   |     
     |                           x T B                           |     
     |                   =====================                   |     
     |                         S. Grimme                         |     
     |          Mulliken Center for Theoretical Chemistry        |     
     |                    University of Bonn                     |     
      -----------------------------------------------------------      

   * xtb version 6.3.3 (4ae9cef) compiled by 'conda@95abc7406d43' on 2020-10-14

   xtb is free software: you can redistribute it and/or modify it under
   the terms of the GNU Lesser General Public License as published by
   the Free Software Foundation, either version 3 of the License, or
   (at your option) any later version.
   
   xtb is distributed in the hope that it will be useful,
   but WITHOUT ANY WARRANTY; without even the implied warranty of
   MERCHANTABILITY or FITNESS FOR A PARTICULAR PURPOSE.  See the
   GNU Lesser General Public License for more details.
   
   Cite this work as:
   * C. Bannwarth, E. Caldeweyher, S. Ehlert, A. Hansen, P. Pracht,
     J. Seibert, S. Spicher, S. Grimme, WIREs Comput. Mol. Sci., 2020,
     e01493. DOI: 10.1002/wcms.1493
   
   for GFN2-xTB:
   * S. Grimme, C. Bannwarth, P. Shushkov, J. Chem. Theory Comput., 2017,
     13, 1989-2009. DOI: 10.1021/acs.jctc.7b00118
   for GFN1-xTB:
   * C. Bannwarth, S. Ehlert and S. Grimme., J. Chem. Theory Comput., 2019,
     15, 1652-1671. DOI: 10.1021/acs.jctc.8b01176
   for GFN0-xTB:
   * P. Pracht, E. Caldeweyher, S. Ehlert, S. Grimme, ChemRxiv, 2019, preprint.
     DOI: 10.26434/chemrxiv.8326202.v1
   for GFN-FF:
   * S. Spicher and S. Grimme, Angew. Chem. Int. Ed., 2020, 59, 15665-15673.
     DOI: 10.1002/anie.202004239
   
   for DFT-D4:
   * E. Caldeweyher, C. Bannwarth and S. Grimme, J. Chem. Phys., 2017,
     147, 034112. DOI: 10.1063/1.4993215
   * E. Caldeweyher, S. Ehlert, A. Hansen, H. Neugebauer, S. Spicher,
     C. Bannwarth and S. Grimme, J. Chem. Phys., 2019, 150, 154122.
     DOI: 10.1063/1.5090222
   * E. Caldeweyher, J.-M. Mewes, S. Ehlert and S. Grimme, Phys. Chem. Chem. Phys.
     2020, 22, 8499-8512. DOI: 10.1039/D0CP00502A
   
   for sTDA-xTB:
   * S. Grimme and C. Bannwarth, J. Chem. Phys., 2016, 145, 054103.
     DOI: 10.1063/1.4959605
   
   in the mass-spec context:
   * V. Asgeirsson, C. Bauer and S. Grimme, Chem. Sci., 2017, 8, 4879.
     DOI: 10.1039/c7sc00601b
   * J. Koopman and S. Grimme, ACS Omega 2019, 4, 12, 15120-15133.
     DOI: 10.1021/acsomega.9b02011
   
   for metadynamics refer to:
   * S. Grimme, J. Chem. Theory Comput., 2019, 155, 2847-2862
     DOI: 10.1021/acs.jctc.9b00143
   
   with help from (in alphabetical order)
   C. Bannwarth, F. Bohle, G. Brandenburg, E. Caldeweyher, M. Checinski,
   S. Dohm, S. Ehlert, S. Ehrlich, F. März, H. Neugebauer, J. Pisarek,
   P. Pracht, P. Shushkov, and S. Spicher.
   
 * started run on 2022/03/17 at 00:44:15.298     

           -------------------------------------------------
          |                Calculation Setup                |
           -------------------------------------------------

          program call               : xtb acid_40.xyz --opt --chrg 0 --uhf 0 --gfn 2
          coordinate file            : acid_40.xyz
          omp threads                :                    64
          number of atoms            :                    72
          number of electrons        :                   218
          charge                     :                     0
          spin                       :                   0.0
          first test random number   :      0.66807788410694

   ID    Z sym.   atoms
    1    6 C      1-22, 24-29, 32, 33, 37-42
    2    7 N      23, 36
    3   16 S      30, 43
    4    8 O      31, 34, 35, 44
    5    1 H      45-72

           -------------------------------------------------
          |                 G F N 2 - x T B                 |
           -------------------------------------------------

        Reference                      10.1021/acs.jctc.8b01176
      * Hamiltonian:
        H0-scaling (s, p, d)           1.850000    2.230000    2.230000
        zeta-weighting                 0.500000
      * Dispersion:
        s8                             2.700000
        a1                             0.520000
        a2                             5.000000
        s9                             5.000000
      * Repulsion:
        kExp                           1.500000    1.000000
        rExp                           1.000000
      * Coulomb:
        alpha                          2.000000
        third order                    shell-resolved
        anisotropic                    true
        a3                             3.000000
        a5                             4.000000
        cn-shift                       1.200000
        cn-exp                         4.000000
        max-rad                        5.000000


          ...................................................
          :                      SETUP                      :
          :.................................................:
          :  # basis functions                 216          :
          :  # atomic orbitals                 214          :
          :  # shells                          118          :
          :  # electrons                       218          :
          :  max. iterations                   250          :
          :  Hamiltonian                  GFN2-xTB          :
          :  restarted?                      false          :
          :  GBSA solvation                  false          :
          :  PC potential                    false          :
          :  electronic temp.          300.0000000     K    :
          :  accuracy                    1.0000000          :
          :  -> integral cutoff          0.2500000E+02      :
          :  -> integral neglect         0.1000000E-07      :
          :  -> SCF convergence          0.1000000E-05 Eh   :
          :  -> wf. convergence          0.1000000E-03 e    :
          :  Broyden damping             0.4000000          :
          ...................................................

 iter      E             dE          RMSdq      gap      omega  full diag
   1   -121.5566613 -0.121557E+03  0.437E+00    2.01       0.0  T
   2   -121.6778830 -0.121222E+00  0.248E+00    2.04       1.0  T
   3   -121.6674044  0.104787E-01  0.121E+00    2.15       1.0  T
   4   -121.6960039 -0.285995E-01  0.314E-01    1.77       1.0  T
   5   -121.6996878 -0.368390E-02  0.158E-01    1.80       1.0  T
   6   -121.7007998 -0.111199E-02  0.605E-02    1.81       1.0  T
   7   -121.7008976 -0.977637E-04  0.278E-02    1.81       1.0  T
   8   -121.7009135 -0.159347E-04  0.143E-02    1.82       1.0  T
   9   -121.7009198 -0.632215E-05  0.555E-03    1.82       2.1  T
  10   -121.7009201 -0.273197E-06  0.278E-03    1.82       4.2  T
  11   -121.7009203 -0.218846E-06  0.132E-03    1.82       8.9  T
  12   -121.7009203 -0.329928E-07  0.786E-04    1.82      15.0  T
  13   -121.7009204 -0.104906E-07  0.357E-04    1.82      33.0  T

   *** convergence criteria satisfied after 13 iterations ***

         #    Occupation            Energy/Eh            Energy/eV
      -------------------------------------------------------------
         1        2.0000           -0.7626700             -20.7533
       ...           ...                  ...                  ...
       103        2.0000           -0.4042472             -11.0001
       104        2.0000           -0.4013958             -10.9225
       105        2.0000           -0.3980893             -10.8326
       106        2.0000           -0.3964748             -10.7886
       107        2.0000           -0.3810919             -10.3700
       108        2.0000           -0.3766108             -10.2481
       109        2.0000           -0.3701539             -10.0724 (HOMO)
       110                         -0.3033832              -8.2555 (LUMO)
       111                         -0.2751405              -7.4870
       112                         -0.2732477              -7.4354
       113                         -0.2688649              -7.3162
       114                         -0.2632357              -7.1630
       ...                                ...                  ...
       214                          0.6923353              18.8394
      -------------------------------------------------------------
                  HL-Gap            0.0667708 Eh            1.8169 eV
             Fermi-level           -0.3367685 Eh           -9.1639 eV

 SCC (total)                   0 d,  0 h,  0 min,  0.602 sec
 SCC setup                      ...        0 min,  0.020 sec (  3.292%)
 Dispersion                     ...        0 min,  0.009 sec (  1.569%)
 classical contributions        ...        0 min,  0.024 sec (  3.975%)
 integral evaluation            ...        0 min,  0.112 sec ( 18.609%)
 iterations                     ...        0 min,  0.299 sec ( 49.608%)
 molecular gradient             ...        0 min,  0.135 sec ( 22.401%)
 printout                       ...        0 min,  0.003 sec (  0.531%)

         :::::::::::::::::::::::::::::::::::::::::::::::::::::
         ::                     SUMMARY                     ::
         :::::::::::::::::::::::::::::::::::::::::::::::::::::
         :: total energy            -119.972605648680 Eh    ::
         :: gradient norm              0.151246787733 Eh/a0 ::
         :: HOMO-LUMO gap              1.816924835945 eV    ::
         ::.................................................::
         :: SCC energy              -121.700920352645 Eh    ::
         :: -> isotropic ES            0.119056228833 Eh    ::
         :: -> anisotropic ES          0.006846188983 Eh    ::
         :: -> anisotropic XC          0.053006757607 Eh    ::
         :: -> dispersion             -0.100773547264 Eh    ::
         :: repulsion energy           1.726144875837 Eh    ::
         :: add. restraining           0.000000000000 Eh    ::
         :: total charge              -0.000000000000 e     ::
         :::::::::::::::::::::::::::::::::::::::::::::::::::::

      ----------------------------------------------------------- 
     |                   =====================                   |
     |                        A N C O P T                        |
     |                   =====================                   |
     |               Approximate Normal Coordinate               |
     |                Rational Function Optimizer                |
      ----------------------------------------------------------- 

          ...................................................
          :                      SETUP                      :
          :.................................................:
          :   optimization level            normal          :
          :   max. optcycles                   216          :
          :   ANC micro-cycles                  20          :
          :   degrees of freedom               210          :
          :.................................................:
          :   RF solver                   davidson          :
          :   write xtbopt.log                true          :
          :   linear?                        false          :
          :   energy convergence         0.5000000E-05 Eh   :
          :   grad. convergence          0.1000000E-02 Eh/α :
          :   maximium RF displ.         1.0000000          :
          :   Hlow (freq-cutoff)         0.1000000E-01      :
          :   Hmax (freq-cutoff)         5.0000000          :
          :   S6 in model hess.         20.0000000          :
          ...................................................

generating ANC from model Hessian ...
Using Lindh-Hessian (1995)
 Shifting diagonal of input Hessian by    9.8770818477929446E-003
 Lowest  eigenvalues of input Hessian
    0.000000    0.000000    0.000000    0.000000    0.000000    0.000000
    0.010000    0.010034    0.010081    0.010127    0.010254    0.010548
    0.010620    0.010748    0.010917    0.011249    0.011551    0.012038
 Highest eigenvalues
    2.004594    2.081805    2.083082    2.190757    2.244909    2.247770


........................................................................
.............................. CYCLE    1 ..............................
........................................................................
   1   -121.7009204 -0.121701E+03  0.129E-04    1.82       0.0  T
   2   -121.7009204 -0.158593E-09  0.893E-05    1.82     132.0  T
   3   -121.7009204 -0.349758E-09  0.535E-05    1.82     220.2  T
     SCC iter.                  ...        0 min,  0.072 sec
     gradient                   ...        0 min,  0.115 sec
 * total energy  :  -119.9726057 Eh     change       -0.3637012E-08 Eh
   gradient norm :     0.1512491 Eh/α   predicted     0.0000000E+00 (-100.00%)
   displ. norm   :     0.2992876 α      lambda       -0.2291870E-01
   maximum displ.:     0.0722339 α      in ANC's #32, #20, #52, ...

........................................................................
.............................. CYCLE    2 ..............................
........................................................................
   1   -121.7787175 -0.121779E+03  0.154E-01    1.95       0.0  T
   2   -121.7788959 -0.178380E-03  0.991E-02    1.95       1.0  T
   3   -121.7788636  0.323152E-04  0.463E-02    1.94       1.0  T
   4   -121.7789357 -0.721217E-04  0.190E-02    1.94       1.0  T
   5   -121.7789502 -0.144784E-04  0.640E-03    1.94       1.8  T
   6   -121.7789515 -0.131800E-05  0.263E-03    1.94       4.5  T
   7   -121.7789516 -0.142908E-06  0.151E-03    1.94       7.8  T
   8   -121.7789517 -0.656431E-07  0.588E-04    1.94      20.0  T
   9   -121.7789517 -0.308599E-08  0.233E-04    1.94      50.6  T
     SCC iter.                  ...        0 min,  0.208 sec
     gradient                   ...        0 min,  0.135 sec
 * total energy  :  -119.9880834 Eh     change       -0.1547774E-01 Eh
   gradient norm :     0.0602262 Eh/α   predicted    -0.1248580E-01 ( -19.33%)
   displ. norm   :     0.3255219 α      lambda       -0.6765298E-02
   maximum displ.:     0.1249241 α      in ANC's #20, #23, #24, ...

........................................................................
.............................. CYCLE    3 ..............................
........................................................................
   1   -121.8182966 -0.121818E+03  0.113E-01    2.01       0.0  T
   2   -121.8183874 -0.908006E-04  0.693E-02    2.01       1.0  T
   3   -121.8183722  0.152889E-04  0.344E-02    2.00       1.0  T
   4   -121.8184094 -0.372846E-04  0.134E-02    2.00       1.0  T
   5   -121.8184167 -0.727896E-05  0.440E-03    2.00       2.7  T
   6   -121.8184175 -0.774260E-06  0.168E-03    2.00       7.0  T
   7   -121.8184176 -0.814355E-07  0.879E-04    2.00      13.4  T
   8   -121.8184176 -0.143493E-07  0.358E-04    2.00      32.9  T
     SCC iter.                  ...        0 min,  0.187 sec
     gradient                   ...        0 min,  0.143 sec
 * total energy  :  -119.9919550 Eh     change       -0.3871587E-02 Eh
   gradient norm :     0.0186258 Eh/α   predicted    -0.3741091E-02 (  -3.37%)
   displ. norm   :     0.2898646 α      lambda       -0.1807430E-02
   maximum displ.:     0.1154576 α      in ANC's #20, #23, #12, ...

........................................................................
.............................. CYCLE    4 ..............................
........................................................................
   1   -121.8219407 -0.121822E+03  0.777E-02    2.00       0.0  T
   2   -121.8219563 -0.156252E-04  0.464E-02    2.00       1.0  T
   3   -121.8219376  0.187503E-04  0.210E-02    2.00       1.0  T
   4   -121.8219611 -0.235232E-04  0.538E-03    2.00       2.2  T
   5   -121.8219623 -0.119486E-05  0.215E-03    2.00       5.5  T
   6   -121.8219624 -0.103200E-06  0.117E-03    2.00      10.1  T
   7   -121.8219625 -0.386146E-07  0.511E-04    2.00      23.1  T
   8   -121.8219625 -0.383061E-08  0.214E-04    2.00      55.0  T
     SCC iter.                  ...        0 min,  0.191 sec
     gradient                   ...        0 min,  0.132 sec
 * total energy  :  -119.9931541 Eh     change       -0.1199143E-02 Eh
   gradient norm :     0.0127952 Eh/α   predicted    -0.9796439E-03 ( -18.30%)
   displ. norm   :     0.3623663 α      lambda       -0.1266128E-02
   maximum displ.:     0.1246061 α      in ANC's #20, #12, #23, ...

........................................................................
.............................. CYCLE    5 ..............................
........................................................................
   1   -121.8194062 -0.121819E+03  0.921E-02    1.98       0.0  T
   2   -121.8194265 -0.202305E-04  0.541E-02    1.98       1.0  T
   3   -121.8194061  0.203452E-04  0.221E-02    1.98       1.0  T
   4   -121.8194301 -0.240272E-04  0.635E-03    1.98       1.9  T
   5   -121.8194322 -0.203250E-05  0.205E-03    1.98       5.7  T
   6   -121.8194323 -0.928713E-07  0.107E-03    1.98      11.0  T
   7   -121.8194323 -0.218044E-07  0.508E-04    1.98      23.2  T
   8   -121.8194323 -0.538789E-08  0.203E-04    1.98      57.9  T
     SCC iter.                  ...        0 min,  0.186 sec
     gradient                   ...        0 min,  0.144 sec
 * total energy  :  -119.9940065 Eh     change       -0.8523547E-03 Eh
   gradient norm :     0.0113936 Eh/α   predicted    -0.7161938E-03 ( -15.97%)
   displ. norm   :     0.3082526 α      lambda       -0.6257825E-03
   maximum displ.:     0.1205166 α      in ANC's #6, #12, #9, ...

........................................................................
.............................. CYCLE    6 ..............................
........................................................................
   1   -121.8194686 -0.121819E+03  0.721E-02    1.98       0.0  T
   2   -121.8194749 -0.629180E-05  0.423E-02    1.98       1.0  T
   3   -121.8194626  0.122830E-04  0.154E-02    1.99       1.0  T
   4   -121.8194765 -0.139390E-04  0.395E-03    1.98       3.0  T
   5   -121.8194772 -0.648692E-06  0.144E-03    1.98       8.2  T
   6   -121.8194772 -0.344650E-07  0.738E-04    1.98      16.0  T
   7   -121.8194772 -0.109792E-07  0.337E-04    1.98      35.0  T
     SCC iter.                  ...        0 min,  0.167 sec
     gradient                   ...        0 min,  0.147 sec
 * total energy  :  -119.9944748 Eh     change       -0.4682970E-03 Eh
   gradient norm :     0.0099852 Eh/α   predicted    -0.3426230E-03 ( -26.84%)
   displ. norm   :     0.3750699 α      lambda       -0.6089002E-03
   maximum displ.:     0.1698632 α      in ANC's #6, #9, #12, ...

........................................................................
.............................. CYCLE    7 ..............................
........................................................................
   1   -121.8207565 -0.121821E+03  0.876E-02    1.99       0.0  T
   2   -121.8207682 -0.116140E-04  0.510E-02    1.99       1.0  T
   3   -121.8207535  0.146633E-04  0.173E-02    2.00       1.0  T
   4   -121.8207695 -0.160425E-04  0.557E-03    2.00       2.1  T
   5   -121.8207711 -0.150981E-05  0.168E-03    2.00       7.0  T
   6   -121.8207711 -0.316762E-07  0.911E-04    2.00      12.9  T
   7   -121.8207711 -0.226110E-07  0.386E-04    2.00      30.6  T
     SCC iter.                  ...        0 min,  0.162 sec
     gradient                   ...        0 min,  0.149 sec
 * total energy  :  -119.9949578 Eh     change       -0.4829950E-03 Eh
   gradient norm :     0.0094686 Eh/α   predicted    -0.3472831E-03 ( -28.10%)
   displ. norm   :     0.4751020 α      lambda       -0.7102852E-03
   maximum displ.:     0.2301223 α      in ANC's #6, #9, #3, ...

........................................................................
.............................. CYCLE    8 ..............................
........................................................................
   1   -121.8230251 -0.121823E+03  0.110E-01    2.02       0.0  T
   2   -121.8230471 -0.219281E-04  0.636E-02    2.03       1.0  T
   3   -121.8230286  0.184968E-04  0.195E-02    2.04       1.0  T
   4   -121.8230481 -0.195368E-04  0.738E-03    2.04       1.6  T
   5   -121.8230511 -0.304311E-05  0.212E-03    2.04       5.6  T
   6   -121.8230512 -0.441807E-07  0.121E-03    2.04       9.8  T
   7   -121.8230512 -0.458126E-07  0.486E-04    2.04      24.2  T
   8   -121.8230512 -0.419949E-08  0.257E-04    2.04      45.9  T
     SCC iter.                  ...        0 min,  0.186 sec
     gradient                   ...        0 min,  0.128 sec
 * total energy  :  -119.9955475 Eh     change       -0.5897305E-03 Eh
   gradient norm :     0.0100221 Eh/α   predicted    -0.4353307E-03 ( -26.18%)
   displ. norm   :     0.5815179 α      lambda       -0.8603985E-03
   maximum displ.:     0.2878979 α      in ANC's #6, #9, #3, ...

........................................................................
.............................. CYCLE    9 ..............................
........................................................................
   1   -121.8242920 -0.121824E+03  0.134E-01    2.07       0.0  T
   2   -121.8243379 -0.458661E-04  0.775E-02    2.09       1.0  T
   3   -121.8243134  0.245115E-04  0.232E-02    2.10       1.0  T
   4   -121.8243388 -0.254555E-04  0.950E-03    2.10       1.2  T
   5   -121.8243447 -0.584482E-05  0.267E-03    2.10       4.4  T
   6   -121.8243447 -0.587171E-07  0.158E-03    2.10       7.4  T
   7   -121.8243448 -0.840108E-07  0.617E-04    2.10      19.1  T
   8   -121.8243448 -0.768192E-08  0.318E-04    2.10      37.0  T
     SCC iter.                  ...        0 min,  0.195 sec
     gradient                   ...        0 min,  0.126 sec
 * total energy  :  -119.9962922 Eh     change       -0.7446688E-03 Eh
   gradient norm :     0.0125331 Eh/α   predicted    -0.5756787E-03 ( -22.69%)
   displ. norm   :     0.6560319 α      lambda       -0.1075694E-02
   maximum displ.:     0.3256441 α      in ANC's #6, #9, #3, ...

........................................................................
.............................. CYCLE   10 ..............................
........................................................................
   1   -121.8267357 -0.121827E+03  0.147E-01    2.16       0.0  T
   2   -121.8267846 -0.488952E-04  0.855E-02    2.18       1.0  T
   3   -121.8267301  0.544502E-04  0.325E-02    2.19       1.0  T
   4   -121.8267911 -0.610430E-04  0.101E-02    2.19       1.2  T
   5   -121.8267966 -0.548410E-05  0.313E-03    2.19       3.8  T
   6   -121.8267967 -0.100050E-06  0.177E-03    2.19       6.6  T
   7   -121.8267968 -0.960048E-07  0.717E-04    2.19      16.4  T
   8   -121.8267968 -0.968035E-08  0.374E-04    2.19      31.5  T
     SCC iter.                  ...        0 min,  0.185 sec
     gradient                   ...        0 min,  0.127 sec
 * total energy  :  -119.9972000 Eh     change       -0.9078324E-03 Eh
   gradient norm :     0.0113229 Eh/α   predicted    -0.7693407E-03 ( -15.26%)
   displ. norm   :     0.7513519 α      lambda       -0.1158287E-02
   maximum displ.:     0.3621756 α      in ANC's #6, #3, #9, ...

........................................................................
.............................. CYCLE   11 ..............................
........................................................................
   1   -121.8210017 -0.121821E+03  0.180E-01    2.19       0.0  T
   2   -121.8212184 -0.216799E-03  0.105E-01    2.23       1.0  T
   3   -121.8211773  0.411681E-04  0.450E-02    2.25       1.0  T
   4   -121.8212350 -0.577684E-04  0.160E-02    2.25       1.0  T
   5   -121.8212515 -0.164015E-04  0.399E-03    2.25       3.0  T
   6   -121.8212517 -0.237980E-06  0.222E-03    2.25       5.3  T
   7   -121.8212518 -0.765165E-07  0.108E-03    2.25      10.9  T
   8   -121.8212518 -0.381069E-07  0.532E-04    2.25      22.1  T
   9   -121.8212518 -0.343950E-08  0.201E-04    2.25      58.8  T
     SCC iter.                  ...        0 min,  0.208 sec
     gradient                   ...        0 min,  0.129 sec
 * total energy  :  -119.9979474 Eh     change       -0.7474179E-03 Eh
   gradient norm :     0.0289235 Eh/α   predicted    -0.9060929E-03 (  21.23%)
   displ. norm   :     0.4911937 α      lambda       -0.1423580E-02
   maximum displ.:     0.2425489 α      in ANC's #3, #9, #6, ...

........................................................................
.............................. CYCLE   12 ..............................
........................................................................
   1   -121.8292760 -0.121829E+03  0.109E-01    2.35       0.0  T
   2   -121.8293158 -0.398465E-04  0.658E-02    2.34       1.0  T
   3   -121.8292468  0.689840E-04  0.400E-02    2.34       1.0  T
   4   -121.8293351 -0.882809E-04  0.807E-03    2.34       1.5  T
   5   -121.8293370 -0.191848E-05  0.314E-03    2.34       3.8  T
   6   -121.8293373 -0.285083E-06  0.131E-03    2.34       9.0  T
   7   -121.8293373 -0.146070E-07  0.768E-04    2.34      15.3  T
   8   -121.8293373 -0.137557E-07  0.289E-04    2.34      40.7  T
     SCC iter.                  ...        0 min,  0.185 sec
     gradient                   ...        0 min,  0.117 sec
 * total energy  :  -119.9987990 Eh     change       -0.8516260E-03 Eh
   gradient norm :     0.0125726 Eh/α   predicted    -0.8835245E-03 (   3.75%)
   displ. norm   :     0.6312319 α      lambda       -0.9038303E-03
   maximum displ.:     0.3256878 α      in ANC's #9, #3, #6, ...

........................................................................
.............................. CYCLE   13 ..............................
........................................................................
   1   -121.8209968 -0.121821E+03  0.136E-01    2.37       0.0  T
   2   -121.8210496 -0.528605E-04  0.791E-02    2.39       1.0  T
   3   -121.8210210  0.286075E-04  0.269E-02    2.39       1.0  T
   4   -121.8210544 -0.333524E-04  0.875E-03    2.39       1.3  T
   5   -121.8210589 -0.449749E-05  0.283E-03    2.39       4.2  T
   6   -121.8210589 -0.541663E-07  0.166E-03    2.39       7.1  T
   7   -121.8210590 -0.104387E-06  0.627E-04    2.39      18.8  T
   8   -121.8210590 -0.785307E-08  0.348E-04    2.39      33.9  T
     SCC iter.                  ...        0 min,  0.185 sec
     gradient                   ...        0 min,  0.139 sec
 * total energy  :  -119.9995150 Eh     change       -0.7159769E-03 Eh
   gradient norm :     0.0137443 Eh/α   predicted    -0.6319843E-03 ( -11.73%)
   displ. norm   :     0.5339650 α      lambda       -0.1186638E-02
   maximum displ.:     0.3066282 α      in ANC's #3, #9, #6, ...

........................................................................
.............................. CYCLE   14 ..............................
........................................................................
   1   -121.8256755 -0.121826E+03  0.112E-01    2.41       0.0  T
   2   -121.8257045 -0.289927E-04  0.656E-02    2.42       1.0  T
   3   -121.8256899  0.145838E-04  0.191E-02    2.43       1.0  T
   4   -121.8257072 -0.172472E-04  0.596E-03    2.42       2.0  T
   5   -121.8257095 -0.232356E-05  0.218E-03    2.42       5.4  T
   6   -121.8257096 -0.693018E-07  0.117E-03    2.42      10.1  T
   7   -121.8257096 -0.307112E-07  0.521E-04    2.42      22.6  T
   8   -121.8257096 -0.442573E-08  0.271E-04    2.42      43.5  T
     SCC iter.                  ...        0 min,  0.187 sec
     gradient                   ...        0 min,  0.133 sec
 * total energy  :  -120.0004350 Eh     change       -0.9200142E-03 Eh
   gradient norm :     0.0117785 Eh/α   predicted    -0.7624864E-03 ( -17.12%)
   displ. norm   :     0.6153191 α      lambda       -0.1101605E-02
   maximum displ.:     0.3602088 α      in ANC's #3, #9, #6, ...

........................................................................
.............................. CYCLE   15 ..............................
........................................................................
   1   -121.8278976 -0.121828E+03  0.130E-01    2.44       0.0  T
   2   -121.8279477 -0.500438E-04  0.749E-02    2.44       1.0  T
   3   -121.8279109  0.367318E-04  0.311E-02    2.45       1.0  T
   4   -121.8279553 -0.443282E-04  0.963E-03    2.45       1.2  T
   5   -121.8279606 -0.530305E-05  0.323E-03    2.45       3.6  T
   6   -121.8279607 -0.133581E-06  0.153E-03    2.45       7.7  T
   7   -121.8279608 -0.785000E-07  0.620E-04    2.45      19.0  T
   8   -121.8279608 -0.743175E-08  0.341E-04    2.45      34.5  T
     SCC iter.                  ...        0 min,  0.186 sec
     gradient                   ...        0 min,  0.144 sec
 * total energy  :  -120.0013239 Eh     change       -0.8888457E-03 Eh
   gradient norm :     0.0152273 Eh/α   predicted    -0.7593532E-03 ( -14.57%)
   displ. norm   :     0.6116733 α      lambda       -0.1218546E-02
   maximum displ.:     0.3603596 α      in ANC's #3, #9, #12, ...

........................................................................
.............................. CYCLE   16 ..............................
........................................................................
   1   -121.8361851 -0.121836E+03  0.125E-01    2.50       0.0  T
   2   -121.8362041 -0.189816E-04  0.729E-02    2.50       1.0  T
   3   -121.8361490  0.551714E-04  0.320E-02    2.50       1.0  T
   4   -121.8362126 -0.636737E-04  0.663E-03    2.50       1.8  T
   5   -121.8362140 -0.136763E-05  0.314E-03    2.50       3.8  T
   6   -121.8362142 -0.159778E-06  0.134E-03    2.50       8.8  T
   7   -121.8362142 -0.182925E-07  0.756E-04    2.50      15.6  T
   8   -121.8362142 -0.111054E-07  0.325E-04    2.50      36.3  T
     SCC iter.                  ...        0 min,  0.188 sec
     gradient                   ...        0 min,  0.145 sec
 * total energy  :  -120.0021876 Eh     change       -0.8637530E-03 Eh
   gradient norm :     0.0149782 Eh/α   predicted    -0.8372292E-03 (  -3.07%)
   displ. norm   :     0.7733083 α      lambda       -0.1287234E-02
   maximum displ.:     0.4703325 α      in ANC's #3, #9, #6, ...

........................................................................
.............................. CYCLE   17 ..............................
........................................................................
   1   -121.8291371 -0.121829E+03  0.165E-01    2.50       0.0  T
   2   -121.8292884 -0.151317E-03  0.961E-02    2.53       1.0  T
   3   -121.8292531  0.353311E-04  0.412E-02    2.53       1.0  T
   4   -121.8293011 -0.480408E-04  0.144E-02    2.53       1.0  T
   5   -121.8293148 -0.136680E-04  0.371E-03    2.53       3.2  T
   6   -121.8293149 -0.184226E-06  0.197E-03    2.53       6.0  T
   7   -121.8293151 -0.106742E-06  0.855E-04    2.53      13.8  T
   8   -121.8293151 -0.204221E-07  0.403E-04    2.53      29.2  T
     SCC iter.                  ...        0 min,  0.186 sec
     gradient                   ...        0 min,  0.091 sec
 * total energy  :  -120.0030588 Eh     change       -0.8711486E-03 Eh
   gradient norm :     0.0236198 Eh/α   predicted    -0.1028504E-02 (  18.06%)
   displ. norm   :     0.4779158 α      lambda       -0.1113910E-02
   maximum displ.:     0.3065060 α      in ANC's #3, #9, #10, ...

........................................................................
.............................. CYCLE   18 ..............................
........................................................................
   1   -121.8291224 -0.121829E+03  0.103E-01    2.48       0.0  T
   2   -121.8291466 -0.241371E-04  0.607E-02    2.47       1.0  T
   3   -121.8290974  0.491365E-04  0.331E-02    2.47       1.0  T
   4   -121.8291591 -0.616775E-04  0.706E-03    2.47       1.7  T
   5   -121.8291608 -0.165202E-05  0.316E-03    2.47       3.7  T
   6   -121.8291609 -0.121804E-06  0.156E-03    2.47       7.6  T
   7   -121.8291610 -0.107610E-06  0.605E-04    2.47      19.5  T
   8   -121.8291610 -0.553678E-08  0.334E-04    2.47      35.3  T
     SCC iter.                  ...        0 min,  0.187 sec
     gradient                   ...        0 min,  0.140 sec
 * total energy  :  -120.0037855 Eh     change       -0.7266667E-03 Eh
   gradient norm :     0.0159562 Eh/α   predicted    -0.6841714E-03 (  -5.85%)
   displ. norm   :     0.5754968 α      lambda       -0.8726075E-03
   maximum displ.:     0.3953477 α      in ANC's #3, #9, #10, ...

........................................................................
.............................. CYCLE   19 ..............................
........................................................................
   1   -121.8289205 -0.121829E+03  0.110E-01    2.47       0.0  T
   2   -121.8289445 -0.239630E-04  0.636E-02    2.47       1.0  T
   3   -121.8289160  0.284941E-04  0.255E-02    2.46       1.0  T
   4   -121.8289485 -0.324732E-04  0.766E-03    2.46       1.5  T
   5   -121.8289515 -0.303716E-05  0.256E-03    2.46       4.6  T
   6   -121.8289516 -0.564725E-07  0.117E-03    2.46      10.0  T
   7   -121.8289516 -0.470970E-07  0.523E-04    2.46      22.5  T
   8   -121.8289516 -0.331347E-08  0.277E-04    2.46      42.5  T
     SCC iter.                  ...        0 min,  0.190 sec
     gradient                   ...        0 min,  0.134 sec
 * total energy  :  -120.0044396 Eh     change       -0.6541532E-03 Eh
   gradient norm :     0.0095035 Eh/α   predicted    -0.5808070E-03 ( -11.21%)
   displ. norm   :     0.6536985 α      lambda       -0.7647529E-03
   maximum displ.:     0.4640610 α      in ANC's #3, #9, #10, ...

........................................................................
.............................. CYCLE   20 ..............................
........................................................................
   1   -121.8305283 -0.121831E+03  0.122E-01    2.45       0.0  T
   2   -121.8305637 -0.353563E-04  0.709E-02    2.44       1.0  T
   3   -121.8305472  0.164911E-04  0.209E-02    2.44       1.0  T
   4   -121.8305660 -0.188300E-04  0.756E-03    2.44       1.6  T
   5   -121.8305695 -0.352782E-05  0.296E-03    2.44       4.0  T
   6   -121.8305696 -0.125242E-06  0.135E-03    2.44       8.7  T
   7   -121.8305697 -0.656140E-07  0.598E-04    2.44      19.7  T
   8   -121.8305697 -0.368713E-08  0.314E-04    2.44      37.6  T
     SCC iter.                  ...        0 min,  0.189 sec
     gradient                   ...        0 min,  0.144 sec
 * total energy  :  -120.0050658 Eh     change       -0.6262204E-03 Eh
   gradient norm :     0.0101844 Eh/α   predicted    -0.5457770E-03 ( -12.85%)
   displ. norm   :     0.6117402 α      lambda       -0.8856432E-03
   maximum displ.:     0.4572923 α      in ANC's #3, #9, #2, ...
 * RMSD in coord.:     1.0050566 α      energy gain  -0.3246018E-01 Eh

generating ANC from model Hessian ...
Using Lindh-Hessian (1995)
 Shifting diagonal of input Hessian by    9.8867418011274483E-003
 Lowest  eigenvalues of input Hessian
    0.000000    0.000000    0.000000    0.000000    0.000000    0.000000
    0.010000    0.010075    0.010116    0.010152    0.010228    0.010612
    0.010656    0.010774    0.010997    0.011408    0.011463    0.011853
 Highest eigenvalues
    2.037930    2.127501    2.133208    2.328095    2.340414    2.344013


........................................................................
.............................. CYCLE   21 ..............................
........................................................................
   1   -121.8431449 -0.121843E+03  0.105E-01    2.46       0.0  T
   2   -121.8431754 -0.304551E-04  0.614E-02    2.45       1.0  T
   3   -121.8431432  0.322298E-04  0.269E-02    2.46       1.0  T
   4   -121.8431809 -0.377029E-04  0.824E-03    2.46       1.4  T
   5   -121.8431846 -0.378015E-05  0.275E-03    2.46       4.3  T
   6   -121.8431847 -0.104517E-06  0.126E-03    2.46       9.3  T
   7   -121.8431848 -0.490794E-07  0.565E-04    2.46      20.9  T
   8   -121.8431848 -0.634265E-08  0.303E-04    2.46      38.9  T
     SCC iter.                  ...        0 min,  0.187 sec
     gradient                   ...        0 min,  0.123 sec
 * total energy  :  -120.0056698 Eh     change       -0.6039611E-03 Eh
   gradient norm :     0.0114236 Eh/α   predicted     0.0000000E+00 (-100.00%)
   displ. norm   :     0.1158214 α      lambda       -0.4041794E-03
   maximum displ.:     0.0661675 α      in ANC's #3, #11, #2, ...

........................................................................
.............................. CYCLE   22 ..............................
........................................................................
   1   -121.8389692 -0.121839E+03  0.356E-02    2.45       0.0  T
   2   -121.8389716 -0.242692E-05  0.205E-02    2.45       1.0  T
   3   -121.8389696  0.195926E-05  0.679E-03    2.45       1.7  T
   4   -121.8389719 -0.228906E-05  0.246E-03    2.45       4.8  T
   5   -121.8389722 -0.243883E-06  0.895E-04    2.45      13.2  T
   6   -121.8389722 -0.177347E-07  0.361E-04    2.45      32.7  T
     SCC iter.                  ...        0 min,  0.141 sec
     gradient                   ...        0 min,  0.128 sec
 * total energy  :  -120.0059786 Eh     change       -0.3088048E-03 Eh
   gradient norm :     0.0046940 Eh/α   predicted    -0.2048015E-03 ( -33.68%)
   displ. norm   :     0.2456558 α      lambda       -0.4309940E-03
   maximum displ.:     0.1482288 α      in ANC's #3, #11, #2, ...

........................................................................
.............................. CYCLE   23 ..............................
........................................................................
   1   -121.8350987 -0.121835E+03  0.609E-02    2.45       0.0  T
   2   -121.8351029 -0.422597E-05  0.355E-02    2.45       1.0  T
   3   -121.8350963  0.656146E-05  0.109E-02    2.46       1.1  T
   4   -121.8351038 -0.748897E-05  0.337E-03    2.46       3.5  T
   5   -121.8351043 -0.497100E-06  0.118E-03    2.45      10.0  T
   6   -121.8351043 -0.905926E-08  0.651E-04    2.45      18.1  T
   7   -121.8351043 -0.162386E-07  0.264E-04    2.45      44.7  T
     SCC iter.                  ...        0 min,  0.160 sec
     gradient                   ...        0 min,  0.133 sec
 * total energy  :  -120.0062834 Eh     change       -0.3047837E-03 Eh
   gradient norm :     0.0068230 Eh/α   predicted    -0.2285025E-03 ( -25.03%)
   displ. norm   :     0.2786413 α      lambda       -0.3047392E-03
   maximum displ.:     0.1706918 α      in ANC's #3, #11, #2, ...

........................................................................
.............................. CYCLE   24 ..............................
........................................................................
   1   -121.8342006 -0.121834E+03  0.593E-02    2.46       0.0  T
   2   -121.8342045 -0.393802E-05  0.345E-02    2.46       1.0  T
   3   -121.8341975  0.701590E-05  0.110E-02    2.46       1.1  T
   4   -121.8342057 -0.820006E-05  0.311E-03    2.46       3.8  T
   5   -121.8342061 -0.365088E-06  0.128E-03    2.46       9.2  T
   6   -121.8342061 -0.147654E-07  0.663E-04    2.46      17.8  T
   7   -121.8342061 -0.169597E-07  0.296E-04    2.46      39.8  T
     SCC iter.                  ...        0 min,  0.162 sec
     gradient                   ...        0 min,  0.142 sec
 * total energy  :  -120.0065383 Eh     change       -0.2548874E-03 Eh
   gradient norm :     0.0096683 Eh/α   predicted    -0.1642032E-03 ( -35.58%)
   displ. norm   :     0.4212904 α      lambda       -0.4543313E-03
   maximum displ.:     0.2531163 α      in ANC's #3, #11, #2, ...

........................................................................
.............................. CYCLE   25 ..............................
........................................................................
   1   -121.8351275 -0.121835E+03  0.838E-02    2.47       0.0  T
   2   -121.8351370 -0.946803E-05  0.488E-02    2.47       1.0  T
   3   -121.8351210  0.159470E-04  0.168E-02    2.48       1.0  T
   4   -121.8351398 -0.187717E-04  0.471E-03    2.48       2.5  T
   5   -121.8351406 -0.797075E-06  0.217E-03    2.48       5.4  T
   6   -121.8351407 -0.797510E-07  0.102E-03    2.48      11.6  T
   7   -121.8351407 -0.372665E-07  0.491E-04    2.48      24.0  T
   8   -121.8351407 -0.326976E-08  0.223E-04    2.48      52.8  T
     SCC iter.                  ...        0 min,  0.185 sec
     gradient                   ...        0 min,  0.115 sec
 * total energy  :  -120.0069266 Eh     change       -0.3883552E-03 Eh
   gradient norm :     0.0095889 Eh/α   predicted    -0.2674845E-03 ( -31.12%)
   displ. norm   :     0.5332146 α      lambda       -0.5429188E-03
   maximum displ.:     0.3225507 α      in ANC's #3, #11, #2, ...

........................................................................
.............................. CYCLE   26 ..............................
........................................................................
   1   -121.8373924 -0.121837E+03  0.101E-01    2.49       0.0  T
   2   -121.8374090 -0.166438E-04  0.586E-02    2.49       1.0  T
   3   -121.8373833  0.257810E-04  0.218E-02    2.50       1.0  T
   4   -121.8374139 -0.306163E-04  0.614E-03    2.50       1.9  T
   5   -121.8374152 -0.134404E-05  0.300E-03    2.50       3.9  T
   6   -121.8374154 -0.186927E-06  0.128E-03    2.49       9.2  T
   7   -121.8374155 -0.587600E-07  0.628E-04    2.49      18.8  T
   8   -121.8374155 -0.601949E-08  0.288E-04    2.49      40.9  T
     SCC iter.                  ...        0 min,  0.191 sec
     gradient                   ...        0 min,  0.131 sec
 * total energy  :  -120.0073737 Eh     change       -0.4471133E-03 Eh
   gradient norm :     0.0074139 Eh/α   predicted    -0.3486429E-03 ( -22.02%)
   displ. norm   :     0.5432944 α      lambda       -0.4656180E-03
   maximum displ.:     0.3359406 α      in ANC's #3, #2, #11, ...

........................................................................
.............................. CYCLE   27 ..............................
........................................................................
   1   -121.8395535 -0.121840E+03  0.998E-02    2.51       0.0  T
   2   -121.8395687 -0.151863E-04  0.576E-02    2.51       1.0  T
   3   -121.8395414  0.272685E-04  0.223E-02    2.52       1.0  T
   4   -121.8395734 -0.319964E-04  0.636E-03    2.51       1.9  T
   5   -121.8395748 -0.138971E-05  0.311E-03    2.51       3.8  T
   6   -121.8395750 -0.210290E-06  0.124E-03    2.51       9.5  T
   7   -121.8395750 -0.617637E-07  0.568E-04    2.51      20.8  T
   8   -121.8395751 -0.449974E-08  0.271E-04    2.51      43.5  T
     SCC iter.                  ...        0 min,  0.187 sec
     gradient                   ...        0 min,  0.129 sec
 * total energy  :  -120.0077531 Eh     change       -0.3793411E-03 Eh
   gradient norm :     0.0062205 Eh/α   predicted    -0.3015310E-03 ( -20.51%)
   displ. norm   :     0.5005667 α      lambda       -0.3928681E-03
   maximum displ.:     0.3172017 α      in ANC's #3, #2, #12, ...

........................................................................
.............................. CYCLE   28 ..............................
........................................................................
   1   -121.8419347 -0.121842E+03  0.877E-02    2.52       0.0  T
   2   -121.8419439 -0.923886E-05  0.501E-02    2.52       1.0  T
   3   -121.8419200  0.239019E-04  0.208E-02    2.53       1.0  T
   4   -121.8419479 -0.279131E-04  0.533E-03    2.53       2.2  T
   5   -121.8419486 -0.700826E-06  0.271E-03    2.53       4.4  T
   6   -121.8419488 -0.180067E-06  0.981E-04    2.53      12.0  T
   7   -121.8419489 -0.413594E-07  0.431E-04    2.53      27.4  T
     SCC iter.                  ...        0 min,  0.164 sec
     gradient                   ...        0 min,  0.142 sec
 * total energy  :  -120.0080798 Eh     change       -0.3267051E-03 Eh
   gradient norm :     0.0065890 Eh/α   predicted    -0.2456573E-03 ( -24.81%)
   displ. norm   :     0.5162762 α      lambda       -0.4076778E-03
   maximum displ.:     0.3322495 α      in ANC's #3, #2, #12, ...

........................................................................
.............................. CYCLE   29 ..............................
........................................................................
   1   -121.8432918 -0.121843E+03  0.872E-02    2.53       0.0  T
   2   -121.8432971 -0.529823E-05  0.495E-02    2.53       1.0  T
   3   -121.8432721  0.249600E-04  0.213E-02    2.54       1.0  T
   4   -121.8433009 -0.288291E-04  0.481E-03    2.54       2.5  T
   5   -121.8433011 -0.185823E-06  0.239E-03    2.54       4.9  T
   6   -121.8433013 -0.197345E-06  0.763E-04    2.54      15.4  T
   7   -121.8433013 -0.256948E-07  0.332E-04    2.54      35.5  T
     SCC iter.                  ...        0 min,  0.163 sec
     gradient                   ...        0 min,  0.135 sec
 * total energy  :  -120.0084287 Eh     change       -0.3489082E-03 Eh
   gradient norm :     0.0073174 Eh/α   predicted    -0.2581751E-03 ( -26.00%)
   displ. norm   :     0.5895739 α      lambda       -0.4816898E-03
   maximum displ.:     0.3809175 α      in ANC's #3, #2, #12, ...

........................................................................
.............................. CYCLE   30 ..............................
........................................................................
   1   -121.8436427 -0.121844E+03  0.967E-02    2.53       0.0  T
   2   -121.8436481 -0.541040E-05  0.545E-02    2.53       1.0  T
   3   -121.8436159  0.321637E-04  0.243E-02    2.53       1.0  T
   4   -121.8436531 -0.372341E-04  0.516E-03    2.53       2.3  T
   5   -121.8436531 -0.590526E-08  0.240E-03    2.53       4.9  T
   6   -121.8436534 -0.243981E-06  0.725E-04    2.53      16.3  T
   7   -121.8436534 -0.235982E-07  0.306E-04    2.53      38.5  T
     SCC iter.                  ...        0 min,  0.163 sec
     gradient                   ...        0 min,  0.115 sec
 * total energy  :  -120.0088465 Eh     change       -0.4178289E-03 Eh
   gradient norm :     0.0077684 Eh/α   predicted    -0.3245734E-03 ( -22.32%)
   displ. norm   :     0.6571124 α      lambda       -0.5605376E-03
   maximum displ.:     0.4264748 α      in ANC's #3, #2, #12, ...

........................................................................
.............................. CYCLE   31 ..............................
........................................................................
   1   -121.8430142 -0.121843E+03  0.106E-01    2.52       0.0  T
   2   -121.8430203 -0.602829E-05  0.596E-02    2.52       1.0  T
   3   -121.8429860  0.342774E-04  0.254E-02    2.52       1.0  T
   4   -121.8430256 -0.396597E-04  0.574E-03    2.52       2.1  T
   5   -121.8430257 -0.612604E-07  0.255E-03    2.52       4.6  T
   6   -121.8430260 -0.251238E-06  0.777E-04    2.52      15.2  T
   7   -121.8430260 -0.290498E-07  0.342E-04    2.52      34.4  T
     SCC iter.                  ...        0 min,  0.164 sec
     gradient                   ...        0 min,  0.139 sec
 * total energy  :  -120.0093327 Eh     change       -0.4861502E-03 Eh
   gradient norm :     0.0069136 Eh/α   predicted    -0.4012884E-03 ( -17.46%)
   displ. norm   :     0.7124329 α      lambda       -0.5843122E-03
   maximum displ.:     0.4638061 α      in ANC's #3, #2, #12, ...

........................................................................
.............................. CYCLE   32 ..............................
........................................................................
   1   -121.8413041 -0.121841E+03  0.117E-01    2.50       0.0  T
   2   -121.8413146 -0.105243E-04  0.657E-02    2.50       1.0  T
   3   -121.8412743  0.403638E-04  0.272E-02    2.50       1.0  T
   4   -121.8413215 -0.471755E-04  0.654E-03    2.50       1.8  T
   5   -121.8413219 -0.405046E-06  0.325E-03    2.50       3.6  T
   6   -121.8413222 -0.294199E-06  0.100E-03    2.50      11.7  T
   7   -121.8413222 -0.488040E-07  0.447E-04    2.50      26.3  T
   8   -121.8413222 -0.279988E-08  0.227E-04    2.50      52.0  T
     SCC iter.                  ...        0 min,  0.191 sec
     gradient                   ...        0 min,  0.145 sec
 * total energy  :  -120.0098374 Eh     change       -0.5047231E-03 Eh
   gradient norm :     0.0054581 Eh/α   predicted    -0.4404585E-03 ( -12.73%)
   displ. norm   :     0.6861317 α      lambda       -0.5787868E-03
   maximum displ.:     0.4448822 α      in ANC's #3, #2, #1, ...

........................................................................
.............................. CYCLE   33 ..............................
........................................................................
   1   -121.8440795 -0.121844E+03  0.113E-01    2.46       0.0  T
   2   -121.8440906 -0.111102E-04  0.646E-02    2.46       1.0  T
   3   -121.8440418  0.487417E-04  0.298E-02    2.45       1.0  T
   4   -121.8440990 -0.572098E-04  0.620E-03    2.45       1.9  T
   5   -121.8440995 -0.493466E-06  0.322E-03    2.45       3.7  T
   6   -121.8440998 -0.230844E-06  0.104E-03    2.45      11.4  T
   7   -121.8440998 -0.529099E-07  0.487E-04    2.45      24.2  T
   8   -121.8440998 -0.217787E-08  0.245E-04    2.45      48.0  T
     SCC iter.                  ...        0 min,  0.184 sec
     gradient                   ...        0 min,  0.123 sec
 * total energy  :  -120.0102529 Eh     change       -0.4155010E-03 Eh
   gradient norm :     0.0056985 Eh/α   predicted    -0.4256344E-03 (   2.44%)
   displ. norm   :     0.8404644 α      lambda       -0.6278844E-03
   maximum displ.:     0.5546132 α      in ANC's #3, #2, #12, ...

........................................................................
.............................. CYCLE   34 ..............................
........................................................................
   1   -121.8313011 -0.121831E+03  0.152E-01    2.43       0.0  T
   2   -121.8313311 -0.300079E-04  0.861E-02    2.42       1.0  T
   3   -121.8312699  0.612260E-04  0.340E-02    2.42       1.0  T
   4   -121.8313437 -0.738063E-04  0.935E-03    2.42       1.3  T
   5   -121.8313458 -0.209460E-05  0.432E-03    2.42       2.7  T
   6   -121.8313461 -0.351584E-06  0.172E-03    2.42       6.9  T
   7   -121.8313462 -0.970640E-07  0.869E-04    2.42      13.6  T
   8   -121.8313462 -0.892378E-08  0.447E-04    2.42      26.3  T
     SCC iter.                  ...        0 min,  0.195 sec
     gradient                   ...        0 min,  0.123 sec
 * total energy  :  -120.0104430 Eh     change       -0.1901092E-03 Eh
   gradient norm :     0.0154114 Eh/α   predicted    -0.5357136E-03 ( 181.79%)
   displ. norm   :     0.1532354 α      lambda       -0.4808651E-03
   maximum displ.:     0.0962406 α      in ANC's #3, #2, #1, ...

........................................................................
.............................. CYCLE   35 ..............................
........................................................................
   1   -121.8389279 -0.121839E+03  0.336E-02    2.42       0.0  T
   2   -121.8389297 -0.175237E-05  0.195E-02    2.41       1.0  T
   3   -121.8389249  0.482715E-05  0.102E-02    2.41       1.2  T
   4   -121.8389306 -0.577695E-05  0.189E-03    2.41       6.2  T
   5   -121.8389308 -0.135517E-06  0.897E-04    2.41      13.1  T
   6   -121.8389308 -0.735011E-08  0.486E-04    2.41      24.2  T
     SCC iter.                  ...        0 min,  0.147 sec
     gradient                   ...        0 min,  0.127 sec
 * total energy  :  -120.0107759 Eh     change       -0.3329166E-03 Eh
   gradient norm :     0.0077500 Eh/α   predicted    -0.2460768E-03 ( -26.08%)
   displ. norm   :     0.4732423 α      lambda       -0.4141977E-03
   maximum displ.:     0.3275049 α      in ANC's #3, #2, #1, ...

........................................................................
.............................. CYCLE   36 ..............................
........................................................................
   1   -121.8444616 -0.121844E+03  0.732E-02    2.40       0.0  T
   2   -121.8444647 -0.315768E-05  0.421E-02    2.40       1.0  T
   3   -121.8444422  0.225527E-04  0.195E-02    2.40       1.0  T
   4   -121.8444682 -0.260189E-04  0.366E-03    2.40       3.2  T
   5   -121.8444682 -0.417975E-07  0.197E-03    2.40       6.0  T
   6   -121.8444683 -0.133129E-06  0.523E-04    2.40      22.5  T
   7   -121.8444684 -0.972703E-08  0.300E-04    2.40      39.3  T
     SCC iter.                  ...        0 min,  0.164 sec
     gradient                   ...        0 min,  0.120 sec
 * total energy  :  -120.0110950 Eh     change       -0.3191217E-03 Eh
   gradient norm :     0.0046375 Eh/α   predicted    -0.2534812E-03 ( -20.57%)
   displ. norm   :     0.7004478 α      lambda       -0.5540743E-03
   maximum displ.:     0.4779829 α      in ANC's #3, #2, #1, ...

........................................................................
.............................. CYCLE   37 ..............................
........................................................................
   1   -121.8464863 -0.121846E+03  0.116E-01    2.38       0.0  T
   2   -121.8465064 -0.200924E-04  0.670E-02    2.38       1.0  T
   3   -121.8464676  0.387515E-04  0.264E-02    2.38       1.0  T
   4   -121.8465134 -0.458145E-04  0.678E-03    2.38       1.7  T
   5   -121.8465153 -0.187015E-05  0.315E-03    2.38       3.7  T
   6   -121.8465155 -0.175029E-06  0.122E-03    2.38       9.7  T
   7   -121.8465156 -0.728129E-07  0.471E-04    2.38      25.0  T
   8   -121.8465156 -0.296924E-08  0.267E-04    2.38      44.1  T
     SCC iter.                  ...        0 min,  0.191 sec
     gradient                   ...        0 min,  0.126 sec
 * total energy  :  -120.0114729 Eh     change       -0.3778608E-03 Eh
   gradient norm :     0.0101342 Eh/α   predicted    -0.4129655E-03 (   9.29%)
   displ. norm   :     0.7048867 α      lambda       -0.4991732E-03
   maximum displ.:     0.4889443 α      in ANC's #3, #2, #1, ...

........................................................................
.............................. CYCLE   38 ..............................
........................................................................
   1   -121.8424319 -0.121842E+03  0.114E-01    2.36       0.0  T
   2   -121.8424414 -0.948812E-05  0.646E-02    2.36       1.0  T
   3   -121.8424176  0.237868E-04  0.206E-02    2.36       1.0  T
   4   -121.8424453 -0.276575E-04  0.624E-03    2.36       1.9  T
   5   -121.8424461 -0.825961E-06  0.288E-03    2.36       4.1  T
   6   -121.8424463 -0.219270E-06  0.104E-03    2.36      11.3  T
   7   -121.8424463 -0.342390E-07  0.540E-04    2.36      21.8  T
   8   -121.8424463 -0.366893E-08  0.276E-04    2.36      42.7  T
     SCC iter.                  ...        0 min,  0.193 sec
     gradient                   ...        0 min,  0.141 sec
 * total energy  :  -120.0118527 Eh     change       -0.3797848E-03 Eh
   gradient norm :     0.0079775 Eh/α   predicted    -0.3735978E-03 (  -1.63%)
   displ. norm   :     0.5400695 α      lambda       -0.4681229E-03
   maximum displ.:     0.3556575 α      in ANC's #3, #2, #1, ...

........................................................................
.............................. CYCLE   39 ..............................
........................................................................
   1   -121.8418069 -0.121842E+03  0.886E-02    2.36       0.0  T
   2   -121.8418117 -0.472524E-05  0.513E-02    2.36       1.0  T
   3   -121.8417688  0.428715E-04  0.273E-02    2.37       1.0  T
   4   -121.8418179 -0.491106E-04  0.429E-03    2.37       2.7  T
   5   -121.8418180 -0.716859E-07  0.199E-03    2.37       5.9  T
   6   -121.8418181 -0.808781E-07  0.790E-04    2.36      14.9  T
   7   -121.8418181 -0.314785E-07  0.341E-04    2.36      34.5  T
     SCC iter.                  ...        0 min,  0.169 sec
     gradient                   ...        0 min,  0.117 sec
 * total energy  :  -120.0121234 Eh     change       -0.2707492E-03 Eh
   gradient norm :     0.0100372 Eh/α   predicted    -0.3023311E-03 (  11.66%)
   displ. norm   :     0.5304470 α      lambda       -0.4010708E-03
   maximum displ.:     0.3607416 α      in ANC's #3, #2, #1, ...

........................................................................
.............................. CYCLE   40 ..............................
........................................................................
   1   -121.8422804 -0.121842E+03  0.854E-02    2.36       0.0  T
   2   -121.8422879 -0.746520E-05  0.483E-02    2.36       1.0  T
   3   -121.8422744  0.135191E-04  0.162E-02    2.36       1.0  T
   4   -121.8422900 -0.156314E-04  0.488E-03    2.36       2.4  T
   5   -121.8422908 -0.806520E-06  0.200E-03    2.36       5.9  T
   6   -121.8422909 -0.878047E-07  0.836E-04    2.36      14.1  T
   7   -121.8422909 -0.327637E-07  0.319E-04    2.36      36.9  T
     SCC iter.                  ...        0 min,  0.164 sec
     gradient                   ...        0 min,  0.127 sec
 * total energy  :  -120.0124063 Eh     change       -0.2828903E-03 Eh
   gradient norm :     0.0087363 Eh/α   predicted    -0.2569620E-03 (  -9.17%)
   displ. norm   :     0.5354276 α      lambda       -0.3878606E-03
   maximum displ.:     0.3682277 α      in ANC's #3, #2, #1, ...

........................................................................
.............................. CYCLE   41 ..............................
........................................................................
   1   -121.8402566 -0.121840E+03  0.833E-02    2.35       0.0  T
   2   -121.8402634 -0.678961E-05  0.482E-02    2.35       1.0  T
   3   -121.8402443  0.191296E-04  0.181E-02    2.35       1.0  T
   4   -121.8402662 -0.218865E-04  0.440E-03    2.35       2.7  T
   5   -121.8402669 -0.734656E-06  0.198E-03    2.35       6.0  T
   6   -121.8402670 -0.686244E-07  0.888E-04    2.35      13.3  T
   7   -121.8402670 -0.388732E-07  0.316E-04    2.35      37.3  T
     SCC iter.                  ...        0 min,  0.164 sec
     gradient                   ...        0 min,  0.132 sec
 * total energy  :  -120.0126521 Eh     change       -0.2458040E-03 Eh
   gradient norm :     0.0090049 Eh/α   predicted    -0.2495297E-03 (   1.52%)
   displ. norm   :     0.3985049 α      lambda       -0.4096130E-03
   maximum displ.:     0.2243002 α      in ANC's #3, #2, #9, ...

........................................................................
.............................. CYCLE   42 ..............................
........................................................................
   1   -121.8502539 -0.121850E+03  0.734E-02    2.36       0.0  T
   2   -121.8502658 -0.118995E-04  0.420E-02    2.37       1.0  T
   3   -121.8502561  0.966185E-05  0.158E-02    2.37       1.0  T
   4   -121.8502673 -0.111495E-04  0.556E-03    2.37       2.1  T
   5   -121.8502688 -0.148980E-05  0.218E-03    2.37       5.4  T
   6   -121.8502689 -0.880007E-07  0.838E-04    2.37      14.1  T
   7   -121.8502689 -0.317504E-07  0.360E-04    2.37      32.8  T
     SCC iter.                  ...        0 min,  0.163 sec
     gradient                   ...        0 min,  0.133 sec
 * total energy  :  -120.0128090 Eh     change       -0.1568742E-03 Eh
   gradient norm :     0.0122776 Eh/α   predicted    -0.2373319E-03 (  51.29%)
   displ. norm   :     0.6014379 α      lambda       -0.5187012E-03
   maximum displ.:     0.4071884 α      in ANC's #3, #2, #1, ...
 * RMSD in coord.:     1.2318321 α      energy gain  -0.7743174E-02 Eh

generating ANC from model Hessian ...
Using Lindh-Hessian (1995)
 Shifting diagonal of input Hessian by    9.9783200017953665E-003
 Lowest  eigenvalues of input Hessian
    0.000000    0.000000    0.000000    0.000000    0.000000    0.000000
    0.010000    0.010103    0.010169    0.010241    0.010304    0.010507
    0.010620    0.010757    0.010857    0.011176    0.011278    0.012162
 Highest eigenvalues
    2.035026    2.124924    2.125491    2.325224    2.343229    2.351185


........................................................................
.............................. CYCLE   43 ..............................
........................................................................
   1   -121.8443630 -0.121844E+03  0.102E-01    2.36       0.0  T
   2   -121.8443856 -0.226061E-04  0.592E-02    2.36       1.0  T
   3   -121.8443507  0.349190E-04  0.264E-02    2.36       1.0  T
   4   -121.8443945 -0.438128E-04  0.678E-03    2.36       1.7  T
   5   -121.8443963 -0.177831E-05  0.287E-03    2.36       4.1  T
   6   -121.8443964 -0.100929E-06  0.124E-03    2.36       9.5  T
   7   -121.8443965 -0.593707E-07  0.543E-04    2.36      21.7  T
   8   -121.8443965 -0.376960E-08  0.297E-04    2.36      39.6  T
     SCC iter.                  ...        0 min,  0.185 sec
     gradient                   ...        0 min,  0.133 sec
 * total energy  :  -120.0130699 Eh     change       -0.2608556E-03 Eh
   gradient norm :     0.0110388 Eh/α   predicted     0.0000000E+00 (-100.00%)
   displ. norm   :     0.0867396 α      lambda       -0.2786567E-03
   maximum displ.:     0.0494052 α      in ANC's #12, #17, #10, ...

........................................................................
.............................. CYCLE   44 ..............................
........................................................................
   1   -121.8472506 -0.121847E+03  0.311E-02    2.36       0.0  T
   2   -121.8472522 -0.166290E-05  0.186E-02    2.36       1.0  T
   3   -121.8472488  0.344873E-05  0.799E-03    2.37       1.5  T
   4   -121.8472528 -0.398988E-05  0.183E-03    2.37       6.4  T
   5   -121.8472529 -0.161453E-06  0.724E-04    2.37      16.3  T
   6   -121.8472529 -0.102677E-07  0.354E-04    2.37      33.2  T
     SCC iter.                  ...        0 min,  0.143 sec
     gradient                   ...        0 min,  0.138 sec
 * total energy  :  -120.0132667 Eh     change       -0.1968132E-03 Eh
   gradient norm :     0.0038516 Eh/α   predicted    -0.1404967E-03 ( -28.61%)
   displ. norm   :     0.1493932 α      lambda       -0.1890975E-03
   maximum displ.:     0.0922344 α      in ANC's #12, #17, #10, ...

........................................................................
.............................. CYCLE   45 ..............................
........................................................................
   1   -121.8490797 -0.121849E+03  0.426E-02    2.37       0.0  T
   2   -121.8490811 -0.146336E-05  0.247E-02    2.37       1.0  T
   3   -121.8490760  0.507949E-05  0.969E-03    2.37       1.2  T
   4   -121.8490817 -0.571357E-05  0.232E-03    2.37       5.1  T
   5   -121.8490819 -0.149350E-06  0.907E-04    2.37      13.0  T
   6   -121.8490819 -0.107297E-07  0.307E-04    2.37      38.4  T
     SCC iter.                  ...        0 min,  0.146 sec
     gradient                   ...        0 min,  0.147 sec
 * total energy  :  -120.0134002 Eh     change       -0.1335750E-03 Eh
   gradient norm :     0.0038863 Eh/α   predicted    -0.9665939E-04 ( -27.64%)
   displ. norm   :     0.2158577 α      lambda       -0.1665203E-03
   maximum displ.:     0.1338098 α      in ANC's #12, #10, #17, ...

........................................................................
.............................. CYCLE   46 ..............................
........................................................................
   1   -121.8493537 -0.121849E+03  0.574E-02    2.38       0.0  T
   2   -121.8493558 -0.210139E-05  0.323E-02    2.38       1.0  T
   3   -121.8493511  0.474975E-05  0.978E-03    2.38       1.2  T
   4   -121.8493565 -0.540883E-05  0.322E-03    2.38       3.7  T
   5   -121.8493567 -0.235844E-06  0.132E-03    2.38       9.0  T
   6   -121.8493568 -0.362779E-07  0.490E-04    2.38      24.0  T
   7   -121.8493568 -0.117560E-07  0.196E-04    2.38      60.0  T
     SCC iter.                  ...        0 min,  0.163 sec
     gradient                   ...        0 min,  0.046 sec
 * total energy  :  -120.0135358 Eh     change       -0.1355627E-03 Eh
   gradient norm :     0.0060707 Eh/α   predicted    -0.8716046E-04 ( -35.70%)
   displ. norm   :     0.3448010 α      lambda       -0.2404543E-03
   maximum displ.:     0.2048043 α      in ANC's #12, #10, #14, ...

........................................................................
.............................. CYCLE   47 ..............................
........................................................................
   1   -121.8479224 -0.121848E+03  0.906E-02    2.38       0.0  T
   2   -121.8479298 -0.739123E-05  0.506E-02    2.39       1.0  T
   3   -121.8479099  0.198779E-04  0.194E-02    2.39       1.0  T
   4   -121.8479336 -0.236787E-04  0.500E-03    2.39       2.4  T
   5   -121.8479340 -0.480230E-06  0.203E-03    2.39       5.8  T
   6   -121.8479341 -0.711557E-07  0.718E-04    2.39      16.4  T
   7   -121.8479341 -0.250055E-07  0.296E-04    2.39      39.8  T
     SCC iter.                  ...        0 min,  0.165 sec
     gradient                   ...        0 min,  0.116 sec
 * total energy  :  -120.0137334 Eh     change       -0.1976053E-03 Eh
   gradient norm :     0.0067078 Eh/α   predicted    -0.1345210E-03 ( -31.92%)
   displ. norm   :     0.4230753 α      lambda       -0.2747743E-03
   maximum displ.:     0.2469153 α      in ANC's #12, #10, #14, ...

........................................................................
.............................. CYCLE   48 ..............................
........................................................................
   1   -121.8453062 -0.121845E+03  0.111E-01    2.39       0.0  T
   2   -121.8453209 -0.146998E-04  0.622E-02    2.39       1.0  T
   3   -121.8452783  0.425639E-04  0.287E-02    2.40       1.0  T
   4   -121.8453303 -0.519649E-04  0.639E-03    2.40       1.8  T
   5   -121.8453312 -0.904380E-06  0.265E-03    2.40       4.4  T
   6   -121.8453313 -0.892734E-07  0.121E-03    2.40       9.7  T
   7   -121.8453314 -0.796711E-07  0.401E-04    2.40      29.4  T
   8   -121.8453314 -0.183421E-08  0.239E-04    2.40      49.3  T
     SCC iter.                  ...        0 min,  0.191 sec
     gradient                   ...        0 min,  0.146 sec
 * total energy  :  -120.0139279 Eh     change       -0.1944562E-03 Eh
   gradient norm :     0.0080943 Eh/α   predicted    -0.1619965E-03 ( -16.69%)
   displ. norm   :     0.2795059 α      lambda       -0.2249174E-03
   maximum displ.:     0.1503725 α      in ANC's #12, #10, #8, ...

........................................................................
.............................. CYCLE   49 ..............................
........................................................................
   1   -121.8452527 -0.121845E+03  0.718E-02    2.40       0.0  T
   2   -121.8452604 -0.772961E-05  0.413E-02    2.40       1.0  T
   3   -121.8452380  0.224252E-04  0.211E-02    2.40       1.0  T
   4   -121.8452658 -0.278278E-04  0.414E-03    2.40       2.8  T
   5   -121.8452664 -0.534449E-06  0.177E-03    2.40       6.7  T
   6   -121.8452664 -0.429867E-07  0.944E-04    2.40      12.5  T
   7   -121.8452665 -0.446986E-07  0.282E-04    2.40      41.8  T
     SCC iter.                  ...        0 min,  0.167 sec
     gradient                   ...        0 min,  0.135 sec
 * total energy  :  -120.0141060 Eh     change       -0.1781095E-03 Eh
   gradient norm :     0.0077725 Eh/α   predicted    -0.1212455E-03 ( -31.93%)
   displ. norm   :     0.3046603 α      lambda       -0.3520902E-03
   maximum displ.:     0.1655303 α      in ANC's #10, #12, #8, ...

........................................................................
.............................. CYCLE   50 ..............................
........................................................................
   1   -121.8479365 -0.121848E+03  0.787E-02    2.40       0.0  T
   2   -121.8479457 -0.920744E-05  0.462E-02    2.40       1.0  T
   3   -121.8479161  0.295455E-04  0.237E-02    2.41       1.0  T
   4   -121.8479521 -0.359436E-04  0.437E-03    2.41       2.7  T
   5   -121.8479528 -0.704976E-06  0.189E-03    2.40       6.2  T
   6   -121.8479529 -0.736541E-07  0.941E-04    2.40      12.5  T
   7   -121.8479529 -0.371563E-07  0.324E-04    2.40      36.3  T
     SCC iter.                  ...        0 min,  0.164 sec
     gradient                   ...        0 min,  0.128 sec
 * total energy  :  -120.0143393 Eh     change       -0.2333618E-03 Eh
   gradient norm :     0.0074910 Eh/α   predicted    -0.1923877E-03 ( -17.56%)
   displ. norm   :     0.4155355 α      lambda       -0.2305397E-03
   maximum displ.:     0.2322448 α      in ANC's #10, #12, #8, ...

........................................................................
.............................. CYCLE   51 ..............................
........................................................................
   1   -121.8446167 -0.121845E+03  0.105E-01    2.41       0.0  T
   2   -121.8446293 -0.125841E-04  0.600E-02    2.41       1.0  T
   3   -121.8445823  0.470039E-04  0.298E-02    2.41       1.0  T
   4   -121.8446388 -0.564379E-04  0.551E-03    2.41       2.1  T
   5   -121.8446395 -0.767930E-06  0.264E-03    2.41       4.5  T
   6   -121.8446397 -0.135139E-06  0.127E-03    2.41       9.3  T
   7   -121.8446397 -0.850898E-07  0.371E-04    2.41      31.8  T
   8   -121.8446397 -0.139556E-08  0.230E-04    2.41      51.1  T
     SCC iter.                  ...        0 min,  0.194 sec
     gradient                   ...        0 min,  0.140 sec
 * total energy  :  -120.0144773 Eh     change       -0.1379565E-03 Eh
   gradient norm :     0.0085949 Eh/α   predicted    -0.1351733E-03 (  -2.02%)
   displ. norm   :     0.1886107 α      lambda       -0.2139803E-03
   maximum displ.:     0.1115374 α      in ANC's #10, #8, #34, ...

........................................................................
.............................. CYCLE   52 ..............................
........................................................................
   1   -121.8482755 -0.121848E+03  0.454E-02    2.42       0.0  T
   2   -121.8482778 -0.230297E-05  0.262E-02    2.42       1.0  T
   3   -121.8482732  0.463879E-05  0.902E-03    2.42       1.3  T
   4   -121.8482786 -0.539487E-05  0.251E-03    2.42       4.7  T
   5   -121.8482788 -0.256685E-06  0.107E-03    2.42      11.0  T
   6   -121.8482788 -0.200397E-07  0.498E-04    2.42      23.7  T
   7   -121.8482788 -0.978231E-08  0.202E-04    2.42      58.4  T
     SCC iter.                  ...        0 min,  0.163 sec
     gradient                   ...        0 min,  0.113 sec
 * total energy  :  -120.0146069 Eh     change       -0.1296123E-03 Eh
   gradient norm :     0.0053501 Eh/α   predicted    -0.1107987E-03 ( -14.52%)
   displ. norm   :     0.2219018 α      lambda       -0.1001882E-03
   maximum displ.:     0.1391193 α      in ANC's #10, #12, #8, ...

........................................................................
.............................. CYCLE   53 ..............................
........................................................................
   1   -121.8479748 -0.121848E+03  0.520E-02    2.42       0.0  T
   2   -121.8479775 -0.272607E-05  0.294E-02    2.42       1.0  T
   3   -121.8479715  0.608298E-05  0.106E-02    2.42       1.1  T
   4   -121.8479786 -0.714679E-05  0.284E-03    2.42       4.2  T
   5   -121.8479788 -0.230162E-06  0.123E-03    2.42       9.6  T
   6   -121.8479789 -0.293950E-07  0.486E-04    2.42      24.3  T
   7   -121.8479789 -0.111421E-07  0.187E-04    2.42      63.2  T
     SCC iter.                  ...        0 min,  0.167 sec
     gradient                   ...        0 min,  0.124 sec
 * total energy  :  -120.0146815 Eh     change       -0.7463687E-04 Eh
   gradient norm :     0.0035756 Eh/α   predicted    -0.5256093E-04 ( -29.58%)
   displ. norm   :     0.2045781 α      lambda       -0.9433895E-04
   maximum displ.:     0.1245408 α      in ANC's #10, #11, #2, ...

........................................................................
.............................. CYCLE   54 ..............................
........................................................................
   1   -121.8492557 -0.121849E+03  0.423E-02    2.42       0.0  T
   2   -121.8492578 -0.205229E-05  0.240E-02    2.42       1.0  T
   3   -121.8492542  0.357956E-05  0.805E-03    2.42       1.5  T
   4   -121.8492584 -0.419952E-05  0.245E-03    2.42       4.8  T
   5   -121.8492586 -0.182553E-06  0.104E-03    2.42      11.3  T
   6   -121.8492586 -0.251042E-07  0.434E-04    2.42      27.1  T
   7   -121.8492586 -0.837616E-08  0.170E-04    2.42      69.4  T
     SCC iter.                  ...        0 min,  0.164 sec
     gradient                   ...        0 min,  0.132 sec
 * total energy  :  -120.0147443 Eh     change       -0.6274242E-04 Eh
   gradient norm :     0.0030104 Eh/α   predicted    -0.4914466E-04 ( -21.67%)
   displ. norm   :     0.2000594 α      lambda       -0.5195894E-04
   maximum displ.:     0.1199661 α      in ANC's #10, #11, #2, ...

........................................................................
.............................. CYCLE   55 ..............................
........................................................................
   1   -121.8486568 -0.121849E+03  0.395E-02    2.42       0.0  T
   2   -121.8486580 -0.121849E-05  0.227E-02    2.42       1.0  T
   3   -121.8486534  0.464217E-05  0.925E-03    2.42       1.3  T
   4   -121.8486587 -0.537706E-05  0.201E-03    2.42       5.9  T
   5   -121.8486588 -0.588924E-07  0.102E-03    2.42      11.5  T
   6   -121.8486588 -0.348436E-07  0.347E-04    2.42      33.9  T
   7   -121.8486588 -0.675846E-08  0.131E-04    2.42      89.8  T
     SCC iter.                  ...        0 min,  0.165 sec
     gradient                   ...        0 min,  0.131 sec
 * total energy  :  -120.0147839 Eh     change       -0.3956576E-04 Eh
   gradient norm :     0.0034635 Eh/α   predicted    -0.2702933E-04 ( -31.69%)
   displ. norm   :     0.2419865 α      lambda       -0.8103356E-04
   maximum displ.:     0.1238659 α      in ANC's #10, #11, #9, ...

........................................................................
.............................. CYCLE   56 ..............................
........................................................................
   1   -121.8500241 -0.121850E+03  0.384E-02    2.42       0.0  T
   2   -121.8500254 -0.126445E-05  0.222E-02    2.42       1.0  T
   3   -121.8500213  0.411808E-05  0.878E-03    2.42       1.3  T
   4   -121.8500261 -0.479981E-05  0.195E-03    2.42       6.1  T
   5   -121.8500262 -0.636213E-07  0.977E-04    2.42      12.1  T
   6   -121.8500262 -0.264831E-07  0.369E-04    2.42      31.9  T
     SCC iter.                  ...        0 min,  0.139 sec
     gradient                   ...        0 min,  0.135 sec
 * total energy  :  -120.0148394 Eh     change       -0.5553164E-04 Eh
   gradient norm :     0.0042908 Eh/α   predicted    -0.4289413E-04 ( -22.76%)
   displ. norm   :     0.2870758 α      lambda       -0.7023247E-04
   maximum displ.:     0.1602906 α      in ANC's #10, #9, #11, ...

........................................................................
.............................. CYCLE   57 ..............................
........................................................................
   1   -121.8484966 -0.121848E+03  0.483E-02    2.41       0.0  T
   2   -121.8484981 -0.156911E-05  0.281E-02    2.41       1.0  T
   3   -121.8484879  0.102472E-04  0.139E-02    2.41       1.0  T
   4   -121.8484997 -0.117934E-04  0.235E-03    2.41       5.0  T
   5   -121.8484997 -0.806286E-07  0.119E-03    2.41       9.9  T
   6   -121.8484998 -0.442854E-07  0.386E-04    2.41      30.5  T
   7   -121.8484998 -0.782973E-08  0.159E-04    2.41      74.1  T
     SCC iter.                  ...        0 min,  0.160 sec
     gradient                   ...        0 min,  0.107 sec
 * total energy  :  -120.0148876 Eh     change       -0.4823622E-04 Eh
   gradient norm :     0.0041007 Eh/α   predicted    -0.3802107E-04 ( -21.18%)
   displ. norm   :     0.2077581 α      lambda       -0.6329682E-04
   maximum displ.:     0.0930569 α      in ANC's #10, #11, #9, ...

........................................................................
.............................. CYCLE   58 ..............................
........................................................................
   1   -121.8492509 -0.121849E+03  0.302E-02    2.41       0.0  T
   2   -121.8492517 -0.806630E-06  0.176E-02    2.41       1.0  T
   3   -121.8492485  0.327489E-05  0.807E-03    2.41       1.5  T
   4   -121.8492522 -0.374368E-05  0.152E-03    2.41       7.7  T
   5   -121.8492523 -0.596782E-07  0.685E-04    2.41      17.2  T
   6   -121.8492523 -0.799544E-08  0.291E-04    2.41      40.5  T
     SCC iter.                  ...        0 min,  0.140 sec
     gradient                   ...        0 min,  0.134 sec
 * total energy  :  -120.0149288 Eh     change       -0.4119109E-04 Eh
   gradient norm :     0.0031832 Eh/α   predicted    -0.3301576E-04 ( -19.85%)
   displ. norm   :     0.1915837 α      lambda       -0.3748301E-04
   maximum displ.:     0.1002391 α      in ANC's #10, #2, #9, ...

........................................................................
.............................. CYCLE   59 ..............................
........................................................................
   1   -121.8488996 -0.121849E+03  0.287E-02    2.41       0.0  T
   2   -121.8489002 -0.537037E-06  0.167E-02    2.41       1.0  T
   3   -121.8488980  0.219290E-05  0.659E-03    2.41       1.8  T
   4   -121.8489004 -0.246702E-05  0.143E-03    2.41       8.2  T
   5   -121.8489005 -0.641382E-07  0.579E-04    2.41      20.4  T
   6   -121.8489005 -0.456463E-08  0.222E-04    2.41      53.2  T
     SCC iter.                  ...        0 min,  0.141 sec
     gradient                   ...        0 min,  0.128 sec
 * total energy  :  -120.0149546 Eh     change       -0.2583518E-04 Eh
   gradient norm :     0.0028156 Eh/α   predicted    -0.1943099E-04 ( -24.79%)
   displ. norm   :     0.1345727 α      lambda       -0.3090706E-04
   maximum displ.:     0.0667449 α      in ANC's #10, #2, #4, ...

........................................................................
.............................. CYCLE   60 ..............................
........................................................................
   1   -121.8489729 -0.121849E+03  0.218E-02    2.42       0.0  T
   2   -121.8489734 -0.495071E-06  0.124E-02    2.42       1.0  T
   3   -121.8489722  0.119529E-05  0.495E-03    2.42       2.4  T
   4   -121.8489736 -0.136837E-05  0.134E-03    2.42       8.8  T
   5   -121.8489737 -0.671795E-07  0.510E-04    2.42      23.1  T
   6   -121.8489737 -0.322774E-08  0.220E-04    2.42      53.6  T
     SCC iter.                  ...        0 min,  0.143 sec
     gradient                   ...        0 min,  0.119 sec
 * total energy  :  -120.0149747 Eh     change       -0.2008431E-04 Eh
   gradient norm :     0.0022710 Eh/α   predicted    -0.1573484E-04 ( -21.66%)
[...]
        98        2.0000           -0.4154545             -11.3051
        99        2.0000           -0.4133778             -11.2486
       100        2.0000           -0.4113813             -11.1943
       101        2.0000           -0.4098810             -11.1534
       102        2.0000           -0.4082946             -11.1103
       103        2.0000           -0.4076685             -11.0932
       104        2.0000           -0.4017681             -10.9327
       105        2.0000           -0.4004746             -10.8975
       106        2.0000           -0.3958323             -10.7711
       107        2.0000           -0.3914708             -10.6525
       108        2.0000           -0.3791237             -10.3165
       109        2.0000           -0.3736940             -10.1687 (HOMO)
       110                         -0.2849946              -7.7551 (LUMO)
       111                         -0.2727354              -7.4215
       112                         -0.2617051              -7.1214
       113                         -0.2594824              -7.0609
       114                         -0.2549018              -6.9362
       115                         -0.2336908              -6.3591
       116                         -0.2308106              -6.2807
       117                         -0.2305253              -6.2729
       118                         -0.2244383              -6.1073
       119                         -0.2155173              -5.8645
       120                         -0.2102705              -5.7218
       ...                                ...                  ...
       214                          0.7014793              19.0882
      -------------------------------------------------------------
                  HL-Gap            0.0886994 Eh            2.4136 eV
             Fermi-level           -0.3293443 Eh           -8.9619 eV

     #   Z          covCN         q      C6AA      α(0)
     1   6 C        2.918    -0.034    28.835     8.806
     2   6 C        2.918    -0.032    28.790     8.799
     3   6 C        2.987     0.015    27.677     8.630
     4   6 C        2.918    -0.034    28.840     8.807
     5   6 C        2.916    -0.030    28.745     8.792
     6   6 C        2.916    -0.030    28.738     8.791
     7   6 C        2.918    -0.033    28.834     8.806
     8   6 C        2.987     0.017    27.619     8.621
     9   6 C        2.923    -0.036    28.903     8.816
    10   6 C        2.971     0.011    27.758     8.642
    11   6 C        3.823     0.047    19.762     6.326
    12   6 C        3.832     0.048    19.742     6.322
    13   6 C        2.971     0.011    27.759     8.642
    14   6 C        2.923    -0.035    28.877     8.812
    15   6 C        2.987     0.018    27.607     8.619
    16   6 C        2.918    -0.033    28.817     8.803
    17   6 C        2.916    -0.029    28.715     8.787
    18   6 C        2.916    -0.029    28.729     8.789
    19   6 C        2.918    -0.034    28.842     8.807
    20   6 C        2.988     0.014    27.687     8.631
    21   6 C        2.917    -0.033    28.828     8.805
    22   6 C        2.919    -0.032    28.793     8.799
    23   7 N        2.762    -0.118    23.566     7.210
    24   6 C        2.774     0.270    22.445     7.759
    25   6 C        2.981    -0.018    28.463     8.751
    26   6 C        3.128    -0.035    28.656     8.765
    27   6 C        3.141     0.013    27.491     8.580
    28   6 C        3.756    -0.109    22.641     6.784
    29   6 C        2.947    -0.026    28.644     8.778
    30  16 S        2.304    -0.067   143.828    20.185
    31   8 O        0.860    -0.411    21.905     6.275
    32   6 C        3.750     0.076    19.369     6.277
    33   6 C        2.687     0.347    21.111     7.519
    34   8 O        1.659    -0.357    20.031     6.042
    35   8 O        0.856    -0.349    20.695     6.099
    36   7 N        2.766    -0.110    23.392     7.183
    37   6 C        2.772     0.274    22.374     7.747
    38   6 C        2.986    -0.020    28.501     8.757
    39   6 C        3.123    -0.039    28.779     8.785
    40   6 C        3.143     0.013    27.484     8.578
    41   6 C        3.756    -0.108    22.622     6.782
    42   6 C        2.946    -0.029    28.723     8.790
    43  16 S        2.305    -0.062   143.608    20.169
    44   8 O        0.859    -0.405    21.789     6.258
    45   1 H        0.926     0.050     2.319     2.382
    46   1 H        0.926     0.038     2.472     2.459
    47   1 H        0.926     0.033     2.547     2.495
    48   1 H        0.926     0.031     2.577     2.510
    49   1 H        0.926     0.031     2.576     2.510
    50   1 H        0.926     0.032     2.552     2.498
    51   1 H        0.926     0.032     2.552     2.498
    52   1 H        0.923     0.053     2.284     2.363
    53   1 H        0.923     0.063     2.170     2.304
    54   1 H        0.926     0.038     2.477     2.461
    55   1 H        0.926     0.035     2.511     2.478
    56   1 H        0.926     0.033     2.547     2.496
    57   1 H        0.926     0.032     2.556     2.500
    58   1 H        0.926     0.033     2.545     2.495
    59   1 H        0.926     0.037     2.495     2.470
    60   1 H        0.926     0.028     2.611     2.527
    61   1 H        0.926     0.065     2.143     2.289
    62   1 H        0.925     0.059     2.209     2.324
    63   1 H        0.925     0.047     2.353     2.399
    64   1 H        0.925     0.059     2.215     2.327
    65   1 H        0.926     0.052     2.296     2.369
    66   1 H        0.923     0.056     2.243     2.342
    67   1 H        0.804     0.336     0.622     1.239
    68   1 H        0.926     0.056     2.244     2.343
    69   1 H        0.925     0.059     2.208     2.324
    70   1 H        0.925     0.057     2.232     2.336
    71   1 H        0.925     0.046     2.369     2.407
    72   1 H        0.926     0.050     2.319     2.381

 Mol. C6AA /au·bohr⁶  :      78538.642437
 Mol. C8AA /au·bohr⁸  :    2080751.814725
 Mol. α(0) /au        :        446.253273


Wiberg/Mayer (AO) data.
largest (>0.10) Wiberg bond orders for each atom

 ---------------------------------------------------------------------------
     #   Z sym  total        # sym  WBO       # sym  WBO       # sym  WBO
 ---------------------------------------------------------------------------
     1   6 C    3.990 --     2 C    1.567    10 C    1.291    45 H    0.963
     2   6 C    3.991 --     1 C    1.567     3 C    1.275    46 H    0.968
                             9 C    0.113
     3   6 C    3.990 --     4 C    1.283     2 C    1.275     8 C    1.251
     4   6 C    3.992 --     5 C    1.555     3 C    1.283    47 H    0.968
                             7 C    0.118
     5   6 C    3.990 --     4 C    1.555     6 C    1.322    48 H    0.971
     6   6 C    3.992 --     7 C    1.557     5 C    1.322    49 H    0.971
     7   6 C    3.989 --     6 C    1.557     8 C    1.280    50 H    0.968
                             4 C    0.118
     8   6 C    3.990 --     9 C    1.280     7 C    1.280     3 C    1.251
     9   6 C    3.989 --    10 C    1.528     8 C    1.280    51 H    0.966
                             2 C    0.113
    10   6 C    3.984 --     9 C    1.528     1 C    1.291    11 C    0.990
    11   6 C    3.956 --    10 C    0.990    12 C    0.953    52 H    0.953
                            36 N    0.951
    12   6 C    3.956 --    13 C    0.990    11 C    0.953    23 N    0.953
                            53 H    0.951
    13   6 C    3.984 --    14 C    1.526    22 C    1.293    12 C    0.990
    14   6 C    3.989 --    13 C    1.526    15 C    1.282    54 H    0.966
                            21 C    0.114
    15   6 C    3.990 --    14 C    1.282    16 C    1.279    20 C    1.251
    16   6 C    3.989 --    17 C    1.558    15 C    1.279    55 H    0.968
                            19 C    0.118
    17   6 C    3.992 --    16 C    1.558    18 C    1.321    56 H    0.971
    18   6 C    3.990 --    19 C    1.556    17 C    1.321    57 H    0.971
    19   6 C    3.992 --    18 C    1.556    20 C    1.282    58 H    0.968
                            16 C    0.118
    20   6 C    3.990 --    19 C    1.282    21 C    1.276    15 C    1.251
    21   6 C    3.991 --    22 C    1.565    20 C    1.276    59 H    0.968
                            14 C    0.114
    22   6 C    3.991 --    21 C    1.565    13 C    1.293    60 H    0.969
    23   7 N    3.445 --    24 C    1.186    32 C    0.983    12 C    0.953
                            31 O    0.181
    24   6 C    3.954 --    31 O    1.674    23 N    1.186    25 C    1.011
    25   6 C    3.942 --    26 C    1.584    30 S    1.125    24 C    1.011
                            29 C    0.112
    26   6 C    3.986 --    25 C    1.584    27 C    1.247    61 H    0.960
    27   6 C    3.987 --    29 C    1.599    26 C    1.247    28 C    1.024
    28   6 C    3.995 --    27 C    1.024    63 H    0.985    62 H    0.970
                            64 H    0.969
    29   6 C    3.941 --    27 C    1.599    30 S    1.169    65 H    0.968
                            25 C    0.112
    30  16 S    2.613 --    29 C    1.169    25 C    1.125
    31   8 O    2.033 --    24 C    1.674    23 N    0.181
    32   6 C    3.969 --    36 N    0.989    23 N    0.983    66 H    0.936
                            33 C    0.896
    33   6 C    3.923 --    35 O    1.797    34 O    1.152    32 C    0.896
    34   8 O    2.230 --    33 C    1.152    67 H    0.847    35 O    0.171
    35   8 O    2.093 --    33 C    1.797    34 O    0.171
    36   7 N    3.468 --    37 C    1.207    32 C    0.989    11 C    0.951
                            44 O    0.194
    37   6 C    3.952 --    44 O    1.691    36 N    1.207    38 C    0.973
    38   6 C    3.945 --    39 C    1.605    43 S    1.133    37 C    0.973
                            42 C    0.114
    39   6 C    3.986 --    38 C    1.605    40 C    1.235    68 H    0.962
    40   6 C    3.987 --    42 C    1.609    39 C    1.235    41 C    1.024
    41   6 C    3.995 --    40 C    1.024    71 H    0.985    70 H    0.970
                            69 H    0.969
    42   6 C    3.938 --    40 C    1.609    43 S    1.166    72 H    0.968
                            38 C    0.114
    43  16 S    2.602 --    42 C    1.166    38 C    1.133
    44   8 O    2.041 --    37 C    1.691    36 N    0.194
    45   1 H    0.997 --     1 C    0.963
    46   1 H    0.998 --     2 C    0.968
    47   1 H    0.998 --     4 C    0.968
    48   1 H    0.999 --     5 C    0.971
    49   1 H    0.999 --     6 C    0.971
    50   1 H    0.998 --     7 C    0.968
    51   1 H    0.998 --     9 C    0.966
    52   1 H    0.996 --    11 C    0.953
    53   1 H    0.995 --    12 C    0.951
    54   1 H    0.998 --    14 C    0.966
    55   1 H    0.998 --    16 C    0.968
    56   1 H    0.998 --    17 C    0.971
    57   1 H    0.999 --    18 C    0.971
    58   1 H    0.998 --    19 C    0.968
    59   1 H    0.998 --    21 C    0.968
    60   1 H    0.999 --    22 C    0.969
    61   1 H    0.996 --    26 C    0.960
    62   1 H    0.996 --    28 C    0.970
    63   1 H    0.997 --    28 C    0.985
    64   1 H    0.996 --    28 C    0.969
    65   1 H    0.997 --    29 C    0.968
    66   1 H    0.996 --    32 C    0.936
    67   1 H    0.887 --    34 O    0.847
    68   1 H    0.997 --    39 C    0.962
    69   1 H    0.996 --    41 C    0.969
    70   1 H    0.997 --    41 C    0.970
    71   1 H    0.997 --    41 C    0.985
    72   1 H    0.997 --    42 C    0.968
 ---------------------------------------------------------------------------

Topologies differ in total number of bonds
Writing topology from bond orders to xtbtopo.mol

molecular dipole:
                 x           y           z       tot (Debye)
 q only:        0.019       1.540      -0.275
   full:        0.190       2.042      -0.208       5.238
molecular quadrupole (traceless):
                xx          xy          yy          xz          yz          zz
 q only:       -4.991      18.295      25.665       9.452      -3.704     -20.675
  q+dip:       -6.538      19.395      29.205      15.120      -7.504     -22.667
   full:       -4.754      17.543      27.326      10.511      -4.087     -22.572

           -------------------------------------------------
          |                Geometry Summary                 |
           -------------------------------------------------

      molecular mass/u    :      616.7494343
   center of mass at/Å    :        0.1027067       0.2027976      -0.1596304
  moments of inertia/u·Å² :        0.6211438E+04   0.8379398E+04   0.1289400E+05
rotational constants/cm⁻¹ :        0.2713966E-02   0.2011795E-02   0.1307401E-02

 * 73 selected distances

     #   Z          #   Z                                           value/Å
     1   6 C        2   6 C                                       1.3645360
     2   6 C        3   6 C                                       1.4109037
     3   6 C        4   6 C                                       1.4099150
     4   6 C        5   6 C                                       1.3669513
     5   6 C        6   6 C                                       1.4036687
     6   6 C        7   6 C                                       1.3667685
     3   6 C        8   6 C                                       1.4190273
     7   6 C        8   6 C                                       1.4102490
     8   6 C        9   6 C                                       1.4092809
     1   6 C       10   6 C                                       1.4091379
     9   6 C       10   6 C                                       1.3684349
    11   6 C       12   6 C                                       1.5397533
    13   6 C       14   6 C                                       1.3686208
    14   6 C       15   6 C                                       1.4090634
    15   6 C       16   6 C                                       1.4105231
    16   6 C       17   6 C                                       1.3666527
    17   6 C       18   6 C                                       1.4038590
    18   6 C       19   6 C                                       1.3668581
    15   6 C       20   6 C                                       1.4192852
    19   6 C       20   6 C                                       1.4099718
    20   6 C       21   6 C                                       1.4105923
    13   6 C       22   6 C                                       1.4082862
    21   6 C       22   6 C                                       1.3646532
    12   6 C       23   7 N                                       1.4587785
    23   7 N       24   6 C                                       1.3648034
    25   6 C       26   6 C                                       1.3636582
    26   6 C       27   6 C                                       1.4175710
    27   6 C       28   6 C                                       1.4905165
    27   6 C       29   6 C                                       1.3588659
    25   6 C       30  16 S                                       1.7421048 (max)
    29   6 C       30  16 S                                       1.7221112
    24   6 C       31   8 O                                       1.2142603
    23   7 N       32   6 C                                       1.4443440
    33   6 C       34   8 O                                       1.3314981
    33   6 C       35   8 O                                       1.1955548
    11   6 C       36   7 N                                       1.4564034
    32   6 C       36   7 N                                       1.4416374
    36   7 N       37   6 C                                       1.3570776
    38   6 C       39   6 C                                       1.3593549
    39   6 C       40   6 C                                       1.4204140
    40   6 C       41   6 C                                       1.4904801
    40   6 C       42   6 C                                       1.3575705
    38   6 C       43  16 S                                       1.7386531
    42   6 C       43  16 S                                       1.7240869
    37   6 C       44   8 O                                       1.2107177
     1   6 C       45   1 H                                       1.0804824
     2   6 C       46   1 H                                       1.0806445
     4   6 C       47   1 H                                       1.0809058
     5   6 C       48   1 H                                       1.0803766
     6   6 C       49   1 H                                       1.0803843
     7   6 C       50   1 H                                       1.0807509
     9   6 C       51   1 H                                       1.0811278
    11   6 C       52   1 H                                       1.0991391
    12   6 C       53   1 H                                       1.0981433
    14   6 C       54   1 H                                       1.0805893
    16   6 C       55   1 H                                       1.0805157
    17   6 C       56   1 H                                       1.0802723
    18   6 C       57   1 H                                       1.0802701
    19   6 C       58   1 H                                       1.0809166
    21   6 C       59   1 H                                       1.0808159
    22   6 C       60   1 H                                       1.0810649
    26   6 C       61   1 H                                       1.0749311
    28   6 C       62   1 H                                       1.0888119
    28   6 C       63   1 H                                       1.0866464
    28   6 C       64   1 H                                       1.0890732
    29   6 C       65   1 H                                       1.0719907
    32   6 C       66   1 H                                       1.1033623
    34   8 O       67   1 H                                       0.9717090 (min)
    39   6 C       68   1 H                                       1.0750191
    41   6 C       69   1 H                                       1.0890297
    41   6 C       70   1 H                                       1.0889053
    41   6 C       71   1 H                                       1.0866107
    42   6 C       72   1 H                                       1.0717720

 * 6 distinct bonds (by element types)

   Z      Z             #   av. dist./Å        max./Å        min./Å
   1 H    6 C          27     1.0834279     1.1033623     1.0717720
   6 C    6 C          31     1.4024330     1.5397533     1.3575705
   6 C    7 N           6     1.4205074     1.4587785     1.3570776
   1 H    8 O           1     0.9717090     0.9717090     0.9717090
   6 C    8 O           4     1.2380078     1.3314981     1.1955548
   6 C   16 S           4     1.7317390     1.7421048     1.7221112


optimized geometry written to: xtbopt.xyz


           -------------------------------------------------
          | TOTAL ENERGY             -120.015155010290 Eh   |
          | GRADIENT NORM               0.000598614162 Eh/α |
          | HOMO-LUMO GAP               2.413632617752 eV   |
           -------------------------------------------------

------------------------------------------------------------------------
 * finished run on 2022/03/17 at 00:44:53.146     
------------------------------------------------------------------------
 total:
 * wall-time:     0 d,  0 h,  0 min, 37.848 sec
 *  cpu-time:     0 d,  0 h, 12 min, 56.349 sec
 * ratio c/w:    20.512 speedup
 SCF:
 * wall-time:     0 d,  0 h,  0 min,  0.602 sec
 *  cpu-time:     0 d,  0 h,  0 min,  9.696 sec
 * ratio c/w:    16.094 speedup
 ANC optimizer:
 * wall-time:     0 d,  0 h,  0 min, 37.093 sec
 *  cpu-time:     0 d,  0 h, 12 min, 42.355 sec
 * ratio c/w:    20.553 speedup

