80
 energy: -176.442149142377 gnorm: 0.129133473881 xtb: 6.3.3 (4ae9cef)
C         1.69155800000000   -1.29787000000000    2.11324500000000
O         0.56542300000000   -0.77587200000000    2.68529100000000
C         0.30973200000000   -1.10150500000000    4.04838500000000
C         2.70500400000000   -1.94584100000000    2.82930000000000
C         3.81611000000000   -2.47531800000000    2.17172600000000
C         3.92523400000000   -2.36674900000000    0.79159300000000
C         2.92905900000000   -1.71088600000000    0.07050100000000
C         1.80930600000000   -1.14826900000000    0.71943200000000
C         0.77439700000000   -0.43290300000000   -0.13367200000000
C        -0.57406500000000   -1.18773400000000   -0.26147600000000
C        -0.63465500000000   -1.83889800000000   -1.64189900000000
C        -1.02717900000000   -1.11670100000000   -2.78384700000000
C        -1.01126800000000   -1.70953200000000   -4.04771700000000
C        -0.58588300000000   -3.02649200000000   -4.19567600000000
C        -0.18182600000000   -3.75589600000000   -3.07969000000000
C        -0.22115200000000   -3.16864900000000   -1.81219100000000
O         0.23552200000000   -3.85861000000000   -0.72017600000000
C        -0.60265600000000   -4.97969000000000   -0.43002600000000
N        -1.59478300000000   -0.15677200000000   -0.04467700000000
C        -2.94204400000000   -0.46722500000000   -0.09668300000000
C        -3.93304400000000    0.62655500000000   -0.00790600000000
C        -3.96706300000000    1.62911000000000   -0.98233500000000
C        -4.94047500000000    2.63643800000000   -0.92130600000000
C        -5.00148500000000    3.72769200000000   -1.96524000000000
F        -4.06883700000000    3.58379000000000   -2.94800800000000
F        -6.20651300000000    3.78194900000000   -2.59382100000000
F        -4.79445700000000    4.96301400000000   -1.43325300000000
C        -5.87497700000000    2.61554400000000    0.13001000000000
C        -5.86620500000000    1.59301400000000    1.09715300000000
C        -6.87252600000000    1.59353600000000    2.22415800000000
F        -7.07401700000000    0.36711100000000    2.77683100000000
F        -6.50516500000000    2.41640300000000    3.24342700000000
F        -8.10188000000000    2.02577100000000    1.82171000000000
C        -4.88781800000000    0.59422700000000    1.01179800000000
O        -3.37557200000000   -1.60312100000000   -0.26093300000000
C        -1.01565300000000    1.06291300000000    0.51143600000000
C        -1.37526200000000    1.30380300000000    2.02551500000000
O        -0.70047400000000    2.32534500000000    2.61811200000000
O        -2.27695900000000    0.73165000000000    2.62873800000000
N         0.42495400000000    0.92714500000000    0.31143300000000
C         1.24447300000000    2.02821600000000    0.32566000000000
C         2.65870900000000    1.87601000000000   -0.05388200000000
C         3.62272300000000    1.75683200000000    0.95004400000000
C         4.96892600000000    1.56929000000000    0.60752400000000
C         6.00905700000000    1.41915500000000    1.69427300000000
F         7.21649500000000    0.99569300000000    1.22947700000000
F         5.64197900000000    0.52542800000000    2.65271000000000
F         6.24672600000000    2.59170000000000    2.34318200000000
C         5.32424900000000    1.53380700000000   -0.75271600000000
C         4.35698800000000    1.66753000000000   -1.76685700000000
C         4.75490200000000    1.63978200000000   -3.22390300000000
F         5.01552200000000    2.88135000000000   -3.71268700000000
F         3.78488000000000    1.11529000000000   -4.02025500000000
F         5.87059300000000    0.89773000000000   -3.45598800000000
C         3.01593100000000    1.85241100000000   -1.40364000000000
O         0.83825500000000    3.12776400000000    0.69662000000000
H        -0.67402000000000   -0.70552300000000    4.31363600000000
H         1.04664400000000   -0.62880300000000    4.70682400000000
H         0.27920400000000   -2.18644200000000    4.19616200000000
H         2.66217100000000   -2.05565300000000    3.90849700000000
H         4.59179700000000   -2.97833100000000    2.74541300000000
H         4.78196800000000   -2.79684200000000    0.27793100000000
H         3.02876100000000   -1.64686700000000   -1.01158000000000
H         1.21085900000000   -0.28664400000000   -1.13007000000000
H        -0.72378700000000   -1.93536800000000    0.52647300000000
H        -1.34685000000000   -0.08160900000000   -2.70025800000000
H        -1.32659300000000   -1.13950100000000   -4.91789600000000
H        -0.56337100000000   -3.48253900000000   -5.18112000000000
H         0.17578500000000   -4.77321800000000   -3.20531600000000
H        -0.36433600000000   -5.31911100000000    0.58297700000000
H        -1.66600400000000   -4.71027500000000   -0.45705200000000
H        -0.39375600000000   -5.80346100000000   -1.12098700000000
H        -3.25145500000000    1.60971300000000   -1.80194000000000
H        -6.63292100000000    3.39958300000000    0.18800200000000
H        -4.85449000000000   -0.20689200000000    1.75137800000000
H        -1.38116500000000    1.92874800000000   -0.05199500000000
H        -0.08620800000000    2.79581000000000    2.00406700000000
H         3.32282700000000    1.78498600000000    1.99720300000000
H         6.37060900000000    1.39203700000000   -1.02910300000000
H         2.25151800000000    1.96773800000000   -2.17007200000000
80
 energy: -176.461668133012 gnorm: 0.054207663787 xtb: 6.3.3 (4ae9cef)
C         1.69004402772127   -1.29326764686415    2.10606372979241
O         0.56581459282039   -0.77465892971052    2.68052191934951
C         0.30903637983034   -1.09379662579539    4.03958089499528
C         2.69881194541768   -1.94219609921107    2.81905368013895
C         3.80306978605688   -2.46607575684808    2.16577392201405
C         3.91231702786605   -2.35844191759107    0.79098957898628
C         2.92616485339366   -1.69717616725833    0.07729256291566
C         1.81632123841351   -1.14091957242164    0.71464950996439
C         0.78353229828013   -0.42882713404852   -0.13735235784294
C        -0.56699786730387   -1.17666670677497   -0.26839913036447
C        -0.63942268118252   -1.82811719664292   -1.64234079734853
C        -1.02580388199558   -1.11599556333414   -2.77675045722023
C        -1.01229048564151   -1.70550854678339   -4.03228639557467
C        -0.58910652074431   -3.01624345949856   -4.18125017198889
C        -0.18615392980077   -3.73748942610014   -3.07080783590369
C        -0.21467051261826   -3.15178558753183   -1.80608993499093
O         0.20940341871930   -3.85128563228185   -0.70057409513779
C        -0.60298545796115   -4.98638186102379   -0.42152914740758
N        -1.58622695002429   -0.14473218166707   -0.05152997659007
C        -2.91814222155753   -0.46454931483868   -0.08680950304561
C        -3.91216284490620    0.64633703044439    0.01056182150109
C        -3.96391113237015    1.63736581095071   -0.96643341453000
C        -4.94534658731761    2.62418883033149   -0.90785283561466
C        -5.00527737676976    3.71446476420213   -1.94900926289386
F        -4.07642223963990    3.56790180851184   -2.91971799055814
F        -6.19936085328731    3.76892317613432   -2.57623666656306
F        -4.80041940363938    4.94196162613899   -1.42203453142708
C        -5.87650565751116    2.61490381469461    0.12945428949985
C        -5.85230096761266    1.59733239711235    1.08328311630300
C        -6.86109892006669    1.59812253402549    2.20568314221866
F        -7.05236181943045    0.38020832210432    2.75126264766893
F        -6.49717036597163    2.41386455194559    3.21943638138284
F        -8.08131172098419    2.02524787699789    1.80670081479233
C        -4.87557316501903    0.60726166599148    1.01491207295535
O        -3.32010588549561   -1.59780507275100   -0.26821415411683
C        -1.01821527489391    1.06601557798387    0.51179776442399
C        -1.39661144646645    1.30827450994455    2.00947281148427
O        -0.72028993759277    2.28716548029835    2.61504202511371
O        -2.25555312097110    0.69673266281763    2.58365345099750
N         0.41972784373363    0.92125895694350    0.31652628912615
C         1.23439643303933    2.00442024290063    0.33541759795436
C         2.65805856399973    1.82682866347196   -0.05617389096669
C         3.62445311133403    1.73023818619623    0.93959331050807
C         4.96255916880539    1.56619430557451    0.58942704206426
C         5.99867069615051    1.42225999413389    1.67732875504971
F         7.19523625153799    1.00238154849089    1.21768707883027
F         5.62694729898574    0.53539719276258    2.62616835645382
F         6.22899562479719    2.58602721167679    2.32378095707702
C         5.32772433891923    1.52949396706590   -0.75464462611437
C         4.36075772784239    1.66661693693524   -1.74949272268986
C         4.75527444888396    1.64136382539657   -3.20544094875742
F         5.00948163278166    2.87503733862996   -3.69121417484564
F         3.78740419945801    1.12038886306110   -3.99008281822322
F         5.86244499228923    0.90665605152795   -3.43551844255879
C         3.02251509068301    1.82648925270797   -1.39863242954919
O         0.83121410677525    3.10750872813953    0.69447306083083
H        -0.67586816006460   -0.68940742251535    4.27827079542612
H         1.04752838559967   -0.63127885433297    4.70053125077171
H         0.29038907746274   -2.17712534368784    4.19037644218473
H         2.64637203103106   -2.05130362671501    3.89249830105236
H         4.57417561176923   -2.96548705338822    2.73755413606525
H         4.76343635025478   -2.78604271289665    0.27813382225003
H         3.01710559217302   -1.63025153776884   -0.99917236070025
H         1.21569783941973   -0.31339211494327   -1.14044431747706
H        -0.68303485064838   -1.94169664855932    0.50936521215911
H        -1.34608824690992   -0.08659825177688   -2.68750784035635
H        -1.32447730003881   -1.13821370465007   -4.89876485660168
H        -0.56409901588866   -3.47238463822833   -5.16230258870100
H         0.16310792609134   -4.75433837064122   -3.18951166957127
H        -0.35331821449631   -5.31473437842422    0.58827160311183
H        -1.66227655230973   -4.71752513367921   -0.45981695487022
H        -0.40013308325291   -5.80227508949253   -1.12110051343310
H        -3.25690646995597    1.62278386929782   -1.78674008593559
H        -6.62958488014435    3.39268116471686    0.18576949161104
H        -4.85053526315740   -0.19308705807696    1.74401166557020
H        -1.38104820857055    1.94903361764246   -0.03613280307065
H        -0.12530165885093    2.78972611801825    1.99995335846781
H         3.33211246603815    1.77422004101576    1.98177611929431
H         6.36642906339443    1.38930735127675   -1.02900508127730
H         2.26774069129456    1.95447747054089   -2.16518499753831
80
 energy: -176.468025540788 gnorm: 0.018945098954 xtb: 6.3.3 (4ae9cef)
C         1.68519974463084   -1.28053481103998    2.09413607600658
O         0.56243821617570   -0.76529531546041    2.66728181181081
C         0.30384449728558   -1.07841670002517    4.02272780604533
C         2.68801005074287   -1.93406614693777    2.80671533411885
C         3.79039395506771   -2.45536721976833    2.15774560342468
C         3.90533895201218   -2.34543050587106    0.78558173119191
C         2.92483724876549   -1.67997037343013    0.07513132404697
C         1.82078782799062   -1.12726152946656    0.70434952617926
C         0.79178943545574   -0.41999757784946   -0.14746784669895
C        -0.55856464850234   -1.16666384112767   -0.27083189380854
C        -0.64128237416333   -1.81294734222748   -1.63838232378317
C        -1.02304308694381   -1.10439390012968   -2.76726669593206
C        -1.01359794020145   -1.69275416603983   -4.01827181235977
C        -0.59062242059744   -3.00155216801592   -4.16480252793298
C        -0.19666962976552   -3.72090161804082   -3.05450982554537
C        -0.22185518790800   -3.13730184893444   -1.79180761539346
O         0.17852133856698   -3.83768335350988   -0.67434599864555
C        -0.60472066201782   -4.99160866161051   -0.41098654476329
N        -1.57342789968849   -0.13438002465953   -0.06069022339549
C        -2.89228316265185   -0.46789260888845   -0.08315694122169
C        -3.88865865009075    0.65652830856820    0.02628577968954
C        -3.94964511545694    1.64321886979937   -0.95014782713949
C        -4.93919334524130    2.61483948095361   -0.89326625740856
C        -5.00474598575888    3.70145265379365   -1.93569008809396
F        -4.08096023921322    3.55478001164375   -2.89733622209148
F        -6.19316635695091    3.75066915641212   -2.55454737054206
F        -4.80504208282576    4.92040071117965   -1.40778470446405
C        -5.87351570742056    2.61501665965997    0.13130653068885
C        -5.83344167928494    1.59975758350239    1.07608500831756
C        -6.84896465301292    1.59883762400637    2.19117738795460
F        -7.03279403457070    0.38845798988478    2.72933717506506
F        -6.48694042857531    2.41182878523167    3.19738769275257
F        -8.05688597663794    2.02419452848238    1.78691437040022
C        -4.85652330662480    0.61566164339611    1.02297895397973
O        -3.26731434771429   -1.60207464539394   -0.27658102162116
C        -1.01288873304884    1.06544560540171    0.50892772137332
C        -1.39071514334602    1.26695972476446    2.01049426399329
O        -0.77829607536855    2.27145091471553    2.59704268041793
O        -2.26245130211461    0.64291256925774    2.53257667170055
N         0.42095792716547    0.91698149543184    0.31610012366791
C         1.22729201315931    1.98582184310845    0.34403664432445
C         2.65667709818559    1.78830963491442   -0.05619095342895
C         3.62486242442341    1.69960412507288    0.93368728923428
C         4.95728845546524    1.55261411739798    0.57558760092572
C         5.99059510511816    1.42114191126937    1.66544057987748
F         7.17745178640434    1.00648557677929    1.20950188260693
F         5.61292320577982    0.54197435860300    2.60693372864513
F         6.20883833890829    2.58178110075935    2.30344845681276
C         5.33392859291735    1.51855890799207   -0.75738149000105
C         4.36182864272158    1.65562698335475   -1.73585100464852
C         4.75472109126907    1.64134449592115   -3.19161550948795
F         5.00293153888760    2.87157178432027   -3.66645904752505
F         3.78868430591592    1.12523262772360   -3.96695383267216
F         5.85559401321365    0.91492405967026   -3.41815769813455
C         3.02480406956511    1.80006381043533   -1.39437133171084
O         0.82929669725875    3.09054049202823    0.70222832088459
H        -0.68168800001507   -0.66790188307070    4.23728722184212
H         1.04089600758622   -0.62070724265260    4.68802937517306
H         0.29192038488182   -2.16074034678639    4.17979958958588
H         2.62128677103171   -2.04407793520763    3.87640904133450
H         4.55597388534239   -2.95484342247822    2.73024744273424
H         4.75165454949064   -2.77359190033353    0.27328027106998
H         3.01161742344499   -1.60202337672879   -0.99797895360695
H         1.22155398868705   -0.32222839720540   -1.15393772773687
H        -0.65087813107336   -1.94394918469138    0.49819564969067
H        -1.34697581274296   -0.07919871261078   -2.66943036425521
H        -1.32762113258182   -1.12853924697414   -4.88226073557702
H        -0.56691232529693   -3.46082447274713   -5.14152882526434
H         0.14714317010204   -4.73824290468492   -3.16456890527157
H        -0.33822157159308   -5.31423318032886    0.59299267350378
H        -1.66711963570605   -4.73910475797817   -0.44987478573227
H        -0.39769593058010   -5.79873932215817   -1.11887007613038
H        -3.24613252891807    1.63941005044573   -1.76925129393920
H        -6.63037531036270    3.38302948573969    0.18043216204102
H        -4.83568377519178   -0.18050099106401    1.74926497907454
H        -1.36671457673622    1.96771507152651   -0.02537946118677
H        -0.17385274573271    2.78070644312151    1.99207084996200
H         3.33943136809775    1.74427510052026    1.97328432030371
H         6.36928762949327    1.38908305378111   -1.03107380583489
H         2.27748090101782    1.92673328555740   -2.16343410946665
80
 energy: -176.469953283723 gnorm: 0.020725741634 xtb: 6.3.3 (4ae9cef)
C         1.67972977878663   -1.26379779281228    2.07924386219143
O         0.55704167966639   -0.74551911198550    2.64668937137434
C         0.29181306001167   -1.05420759119780    4.00045520250109
C         2.67618769962131   -1.92305437099908    2.79458193558590
C         3.78065004651237   -2.44570959565097    2.14958474405778
C         3.90555449505294   -2.33134573635861    0.77820714203337
C         2.92997923798813   -1.66097233092338    0.06536981141457
C         1.82417474745085   -1.11033722463138    0.69103889608129
C         0.79635644514138   -0.40790912425751   -0.16014047637264
C        -0.55041780742922   -1.15885247186392   -0.27188180111619
C        -0.64241868681240   -1.80317349549619   -1.63322768544391
C        -1.02255939976953   -1.09137285011442   -2.75944885532936
C        -1.01654611529101   -1.68062049318108   -4.00948560598322
C        -0.59728854723152   -2.99183098426838   -4.15146531508510
C        -0.21171057260092   -3.71441249940006   -3.03939669532255
C        -0.23658817011861   -3.13153577411118   -1.77778865138228
O         0.15394036183236   -3.82548341679462   -0.65323927874016
C        -0.60517849051151   -4.99677476979367   -0.39964812818262
N        -1.56409668730125   -0.12923973476553   -0.07268164391216
C        -2.87733580727997   -0.47542069714497   -0.08643281086288
C        -3.87317866326109    0.65245901538699    0.03165359009006
C        -3.93101114476247    1.64302178862003   -0.94037756269952
C        -4.92477407564192    2.60930986989491   -0.88525854025518
C        -4.99802287837796    3.69365572078134   -1.92906517618946
F        -4.07721103944448    3.55069109948397   -2.88963593679974
F        -6.18786910582315    3.73426279061684   -2.54031204403460
F        -4.80520873623094    4.91003602822049   -1.39772928647266
C        -5.86555732291798    2.61004943769926    0.13227404197064
C        -5.81634571809709    1.59695850086723    1.07753467343094
C        -6.83798260500808    1.59559523132901    2.18682599051699
F        -7.02089594264417    0.38789829176866    2.72284790366814
F        -6.47898093899439    2.41164782859176    3.18934863462399
F        -8.03921233042394    2.02052553344653    1.77246653550978
C        -4.83804584966361    0.61514202306074    1.03080858934508
O        -3.23969315640886   -1.61261281705383   -0.28222460493081
C        -1.01199750896628    1.06755876026888    0.49613090046270
C        -1.42493929212135    1.26523130525284    1.99057525959818
O        -0.80029982866200    2.23732298083509    2.60512581696685
O        -2.25149312176590    0.56211382291101    2.50827617494752
N         0.42171656603639    0.92008397795509    0.31075393790520
C         1.22697217375885    1.98237366737146    0.35430372888409
C         2.65548615437278    1.77245435562097   -0.05173681853278
C         3.62479752579222    1.67338900080893    0.93478569336065
C         4.95566837635810    1.53375574074890    0.57223488856239
C         5.98813129484653    1.41351156994132    1.66362514631640
F         7.17396048569757    1.00432893571668    1.21069944113784
F         5.60860434549178    0.53879927444261    2.60544665205250
F         6.19469633054884    2.57840796393160    2.29280726922343
C         5.33735804517119    1.50754081884459   -0.75866401485843
C         4.35917534941981    1.64103412182154   -1.73065177787279
C         4.75217203640428    1.63850689689236   -3.18680432862413
F         4.99575585765923    2.87215381728147   -3.64891033418729
F         3.78746547413687    1.12572007136524   -3.96168506510066
F         5.85372504027474    0.91881637423787   -3.41375972766578
C         3.02218863607565    1.78114842736480   -1.38996571302732
O         0.83697766288495    3.08435924346118    0.73098550490707
H        -0.69467344126178   -0.64237721432589    4.20320000475796
H         1.02557187512357   -0.59574821085228    4.66959264640445
H         0.28004158172847   -2.13604421071791    4.16259325501639
H         2.59753894721303   -2.03561500694064    3.86310705555349
H         4.54078936844108   -2.94887808055674    2.72538406162940
H         4.75175350822579   -2.76030671355557    0.26780270602833
H         3.01855243812693   -1.57382117713999   -1.00707510319853
H         1.22333243770268   -0.31309992245697   -1.16782275781069
H        -0.63327387319520   -1.93609062084742    0.49684938586136
H        -1.34266143887793   -0.06522495188434   -2.65588628981431
H        -1.32951588450843   -1.11631443652875   -4.87339834932772
H        -0.57165252370059   -3.45243257182201   -5.12673556578030
H         0.12587536021346   -4.73397890068991   -3.14447079296267
H        -0.32449542419853   -5.32103323573615    0.59961920275538
H        -1.67423418356983   -4.76764633058358   -0.43122789691227
H        -0.38619950488628   -5.79482350039474   -1.11477895348318
H        -3.22455000945606    1.64973371042329   -1.75630464882708
H        -6.62951311990579    3.37093506885273    0.17434618052700
H        -4.81532448840854   -0.17567167651179    1.76180773831650
H        -1.36037005202779    1.97575438027339   -0.03212290857327
H        -0.21501852759593    2.77848859769259    2.00260933489721
H         3.34397711510414    1.70889572391608    1.97511941046939
H         6.37328054472266    1.38826995075201   -1.03370150973950
H         2.27735093155855    1.90134892559688   -2.16157166552320
80
 energy: -176.471417303482 gnorm: 0.014553818966 xtb: 6.3.3 (4ae9cef)
C         1.67602181029771   -1.24826571070192    2.06215330826044
O         0.55279428378622   -0.72370302657839    2.62113135976965
C         0.27620439417780   -1.02557412330153    3.97407065294855
C         2.66623267557108   -1.91211272694054    2.78181843050168
C         3.77360394631337   -2.43632205070448    2.14096719043326
C         3.91001681274318   -2.31620913793251    0.77041900872592
C         2.93972133978527   -1.64208226066952    0.05265059504597
C         1.82898007471030   -1.09488395724807    0.67548312458116
C         0.79908583464925   -0.39663796903315   -0.17327667435227
C        -0.54401891016604   -1.15157045523775   -0.27538383978707
C        -0.64368867029167   -1.79837356366523   -1.63078964725056
C        -1.02102087697140   -1.08142036924268   -2.75556174536212
C        -1.01916024905118   -1.67243889191885   -4.00508244130900
C        -0.60861251780685   -2.98775744835563   -4.14212897830323
C        -0.23124427033800   -3.71530900388655   -3.02891611512066
C        -0.25349416240932   -3.13161651817772   -1.76807817205775
O         0.13220189916756   -3.81669202679142   -0.63834644323798
C        -0.60317952371028   -5.00440158997559   -0.38950898996855
N        -1.55803925780435   -0.12518409676425   -0.08396974202302
C        -2.86876621796557   -0.48285413622653   -0.08754627437866
C        -3.86299459909828    0.64367847575545    0.03408131188206
C        -3.91365225046429    1.63922977066126   -0.93367928694606
C        -4.90887930509128    2.60440178729630   -0.88052681303765
C        -4.98810932977246    3.68843032470437   -1.92449230411341
F        -4.06861383447708    3.55109733067338   -2.88707754157297
F        -6.18116371751424    3.72077326014327   -2.53100829378174
F        -4.80215877612548    4.90556457374200   -1.39016429920985
C        -5.85593005945611    2.60131776173851    0.13261200412735
C        -5.80277467315389    1.59107401401616    1.08202592208733
C        -6.82835344330145    1.59050682588620    2.18787631866976
F        -7.01282365105571    0.38363791947262    2.72527471337893
F        -6.47277106505372    2.41116366527711    3.18928663361053
F        -8.02692750143001    2.01484892966141    1.76462420746496
C        -4.82357234996711    0.61003508523163    1.03728698496484
O        -3.22495429766151   -1.62227325828888   -0.28396492815817
C        -1.01141963306029    1.06814553954561    0.48936717276683
C        -1.42517583625910    1.23718453900910    1.98948035448642
O        -0.84341394643440    2.23537571291100    2.60613310793381
O        -2.25178838824960    0.51920749319898    2.48398081327204
N         0.42173920919933    0.92419226181383    0.30696612434509
C         1.23012578902742    1.98348152283882    0.37031778540469
C         2.65488203617728    1.76629090797450   -0.04313981499403
C         3.62594469284241    1.65325448207537    0.94023319697740
C         4.95613271796011    1.51440812878174    0.57454934008746
C         5.98879034074579    1.40179849273923    1.66682686322573
F         7.17748543207485    0.99698272076043    1.21709890051629
F         5.61066030243912    0.53049016966067    2.61331363133041
F         6.18660995822508    2.57315241331094    2.28819455607023
C         5.33760200911629    1.49719580393431   -0.75768460200079
C         4.35451320226641    1.62670417915512   -1.72727599579383
C         4.74740658772192    1.63452899508026   -3.18422914491335
F         4.98696657244539    2.87413534463868   -3.63428432974089
F         3.78407453365988    1.12479241301132   -3.96337919693983
F         5.85249800293174    0.92086901335266   -3.41562522675757
C         3.01782480711976    1.76720516656062   -1.38303955884683
O         0.84626923523497    3.08124885244949    0.76662884735932
H        -0.71190404428781   -0.61274565121686    4.16705100196193
H         1.00510238146543   -0.56325827046300    4.64653783160946
H         0.26138041266837   -2.10669388554739    4.14167097020950
H         2.57809004619527   -2.02728108692499    3.84981320938138
H         4.52798063524626   -2.94473534063082    2.72067833620471
H         4.75917984853581   -2.74420390125525    0.26338339247662
H         3.03329403809361   -1.54770233150173   -1.01954003739918
H         1.22058649769641   -0.29726579244914   -1.18240798409280
H        -0.62250228905011   -1.92342826528437    0.49769911297370
H        -1.33141026332619   -0.05186580379916   -2.64867321250395
H        -1.32779098732311   -1.10631919565997   -4.86988272714779
H        -0.58036475946445   -3.44841022829259   -5.11726825435011
H         0.09768344356884   -4.73801086427146   -3.13223888242160
H        -0.30965716448839   -5.33159506805283    0.60598659168458
H        -1.67846957613080   -4.79872944121074   -0.41115317538972
H        -0.37093010290917   -5.79298418476172   -1.11150698682595
H        -3.20260120860996    1.65325548517748   -1.74609511022889
H        -6.62588549212857    3.35728855161399    0.16899358790859
H        -4.79677133532091   -0.17618596084492    1.77426069554003
H        -1.35543257539636    1.98247149911852   -0.03071077304677
H        -0.24362476664165    2.77218665074607    2.01565428232987
H         3.34867948028723    1.67681531306324    1.98237033586008
H         6.37449278637123    1.38567477410189   -1.03521281033917
H         2.27318880870005    1.88300244292480   -2.15610345466450
80
 energy: -176.472689047217 gnorm: 0.008487032910 xtb: 6.3.3 (4ae9cef)
C         1.67284763054502   -1.22535043035482    2.03631963644636
O         0.54791395821404   -0.69010868384425    2.58190620568126
C         0.25306788410844   -0.98212342310355    3.93382062616801
C         2.65365679980375   -1.89498430531014    2.76337577510996
C         3.76496921339492   -2.42043877844513    2.12893973920189
C         3.91795634073574   -2.29151650912652    0.76034290395402
C         2.95458313021574   -1.61578610472373    0.03394364496145
C         1.83689024215033   -1.07343052044008    0.65134162659749
C         0.80187553796644   -0.37891166966630   -0.19244135950437
C        -0.53599374784564   -1.14091793339142   -0.28318829461125
C        -0.64272591604171   -1.79667737321651   -1.63144316641945
C        -1.01188566944138   -1.07337765393457   -2.75591483394795
C        -1.01941748209076   -1.66810188073668   -4.00386572468800
C        -0.62859519715201   -2.99058169631105   -4.13376544541136
C        -0.26500866337661   -3.72530524336758   -3.01959094099774
C        -0.27743016054612   -3.13798912606985   -1.75978981144214
O         0.10215641614098   -3.80999615521955   -0.62330807849348
C        -0.59709289397948   -5.02019851647458   -0.37847556032947
N        -1.55254338057973   -0.11819939303666   -0.10069879073483
C        -2.86109068728013   -0.49051563973749   -0.08866342920446
C        -3.85378319293035    0.63092878247678    0.03576780448052
C        -3.89576014837572    1.63088483142646   -0.92823090895536
C        -4.88996714192583    2.59717422220336   -0.87613977861229
C        -4.97301032075999    3.68265912479158   -1.91840746702609
F        -4.05361083647306    3.55278475338189   -2.88360469788132
F        -6.16908632193105    3.70743866676320   -2.52281986304845
F        -4.79418067931979    4.90203715818796   -1.38166573345312
C        -5.84247606311091    2.58777080222836    0.13350691685592
C        -5.78884829916684    1.58127835230821    1.08834585807307
C        -6.81653635851994    1.58275726496417    2.19231986782860
F        -7.00300203259034    0.37671433005578    2.73409369632272
F        -6.46484730692096    2.40864159039855    3.19375485740747
F        -8.01485605460816    2.00545093547931    1.76231143698818
C        -4.80952925384343    0.60025646141073    1.04327475988719
O        -3.21146258608159   -1.63290523631399   -0.27673988663043
C        -1.01332353927657    1.07156657257742    0.48275647174266
C        -1.43073299470931    1.21333109522754    1.98738672718845
O        -0.88834522665163    2.23084405716249    2.61332821217567
O        -2.24285430800168    0.47498939916108    2.46670180757801
N         0.42011906184298    0.93450708790765    0.30050529940020
C         1.23630693247402    1.98888955400855    0.39614136908570