80
 energy: -176.482137492060 gnorm: 0.000356484711 xtb: 6.3.3 (4ae9cef)
C         1.73968501948698   -1.07355469763303    1.61033443232553
O         0.70260284306855   -0.48822522440876    2.26966365898006
C         0.56298843776984   -0.71813789410473    3.65714911540168
C         2.76774537028122   -1.77615475647224    2.22816445076558
C         3.79788287503752   -2.31197816133395    1.47507436567121
C         3.81654406574186   -2.16165767404851    0.10104998852583
C         2.79600947893236   -1.46377041362423   -0.52045529785545
C         1.76169039588395   -0.91098858003817    0.21583850013643
C         0.64830284560313   -0.18115912384209   -0.48112115620315
C        -0.67621050920614   -0.96758142241719   -0.44298882536050
C        -0.80662884649861   -1.86247749450339   -1.64321560990587
C        -1.34344688063362   -1.41568431779100   -2.83682031395111
C        -1.42776374632504   -2.25639310700992   -3.93332363831862
C        -0.95890874992124   -3.55209149734602   -3.83330959203916
C        -0.40007607766898   -4.01104591531263   -2.65231514205639
C        -0.31375851164843   -3.17203020378818   -1.54839563058229
O         0.23722953437051   -3.51733521222144   -0.35085614428868
C         0.74168886861835   -4.82162580620023   -0.19026526518607
N        -1.68601161937047    0.08464888550607   -0.38247447699424
C        -2.99803776648572   -0.30167553903612   -0.27680955813001
C        -3.98347679026882    0.81546908778575   -0.09562665056899
C        -3.98573567023449    1.92373718222304   -0.93031208969036
C        -4.94529901006845    2.91349039117861   -0.75905903008763
C        -4.94052154153365    4.09960727250353   -1.68674086768112
F        -3.69179684736729    4.45956185677258   -2.03179625467771
F        -5.58585077458699    3.84191754496403   -2.83710396182207
F        -5.51985388543318    5.18084434419808   -1.15630519890463
C        -5.90921195681168    2.80755594535837    0.23118460930396
C        -5.90921042063969    1.68088355512032    1.04430330955099
C        -6.95168916328132    1.58104833074270    2.12837574583098
F        -7.09455905228896    0.34401764028815    2.60885800563744
F        -6.65308606927493    2.37061587509806    3.17538150864263
F        -8.16235548404389    1.97307750806085    1.69997568400573
C        -4.96169813054461    0.68305094539133    0.88337354988106
O        -3.35473143990679   -1.44581371834434   -0.41898084388301
C        -1.14189494583870    1.21881428222984    0.31758287991951
C        -1.57301577651522    1.18182348627029    1.82478391726664
O        -1.09907521027757    2.14424257159483    2.57495884854157
O        -2.33834829522105    0.34599610177910    2.21308890742212
N         0.29537635202239    1.09482653978626    0.13114464282653
C         1.15191184424468    2.05497319672143    0.49335737534477
C         2.58928821176116    1.77881180253233    0.17580101511956
C         3.44755923373136    1.48414628886523    1.22820087887398
C         4.76251603501139    1.14001237161377    0.96337947385904
C         5.68440583203177    0.76170252554722    2.09331078869815
F         6.49980869167795   -0.24822673079897    1.76009201068933
F         5.01977848014144    0.37255120402106    3.18893545519601
F         6.47338570430694    1.78116335032843    2.46618801603813
C         5.25115115497503    1.13297658287287   -0.33660153943227
C         4.39870981400290    1.48838169592168   -1.36855087077849
C         4.87086897746599    1.47785165003520   -2.79946947833161
F         4.62371158629316    2.63860670093058   -3.42228284048913
F         4.23142024924803    0.52789625114008   -3.50925285605406
F         6.17682238824047    1.23577595412989   -2.92451201653195
C         3.06824222964418    1.80625131035151   -1.12415186011881
O         0.80184592504773    3.07846420153855    1.07317203256943
H        -0.37216988723252   -0.23882698819183    3.94032745514430
H         1.38830968596586   -0.27191644012910    4.21961566460334
H         0.50091215574048   -1.78691583033790    3.87576878674965
H         2.77676111038081   -1.90569348449348    3.29783873854470
H         4.59076461091129   -2.84869285316956    1.97258933729094
H         4.61817625338499   -2.58393700306851   -0.48365323105189
H         2.79618846924211   -1.34870208863384   -1.59465570986422
H         0.92773727731767   -0.01024326009864   -1.52969225121932
H        -0.72820590706804   -1.58169362278575    0.46376955392967
H        -1.71222102289701   -0.40305407188852   -2.90294627717002
H        -1.85870821296100   -1.90113909198916   -4.85608446680677
H        -1.02343504947107   -4.21864618755463   -4.67993078405290
H        -0.03787609934480   -5.02521777330964   -2.60178549884434
H         1.12140236236253   -4.86312569297724    0.82930867884656
H        -0.04138890078869   -5.57459499319222   -0.31762683711841
H         1.56203520793592   -5.02081434816377   -0.88660650534208
H        -3.25887230990561    2.01641333270237   -1.72393652262504
H        -6.64970896486213    3.58171010383840    0.36419545607174
H        -4.96065848497544   -0.19356615961229    1.51226343333371
H        -1.48679276875231    2.17872120726669   -0.09904435278046
H        -0.43530291687296    2.72330856887495    2.10072623932591
H         3.08072293331722    1.50142778164029    2.24282712882492
H         6.27492572687524    0.85598904039445   -0.53670104580597
H         2.42048645894579    2.07202391175655   -1.94619514707890
