72
 energy: -126.229878604953 gnorm: 0.140881601031 xtb: 6.3.3 (4ae9cef)
C        -1.59521500000000   -2.27342600000000    1.33811200000000
C        -2.42191700000000   -3.39887700000000    1.35724700000000
C        -3.33673000000000   -3.63221400000000    0.32140600000000
C        -4.17979100000000   -4.75491400000000    0.32579300000000
C        -5.08867600000000   -4.96774800000000   -0.71169800000000
C        -5.16245600000000   -4.06455600000000   -1.76666200000000
C        -4.33097900000000   -2.94398900000000   -1.78502000000000
C        -3.41269700000000   -2.71449500000000   -0.74726500000000
C        -2.57413600000000   -1.58528100000000   -0.75012600000000
C        -1.65276100000000   -1.34843900000000    0.28205100000000
C        -0.71993900000000   -0.14446400000000    0.32678600000000
C         0.75473800000000   -0.56139900000000    0.06355900000000
C         1.70974800000000    0.09612700000000    1.05886400000000
C         2.59931100000000   -0.70971900000000    1.79100500000000
C         3.49226400000000   -0.15777300000000    2.72565500000000
C         4.38264000000000   -0.96305400000000    3.45519000000000
C         5.26171600000000   -0.39799300000000    4.38113400000000
C         5.26201100000000    0.97714800000000    4.59135000000000
C         4.38629600000000    1.79113900000000    3.87191000000000
C         3.49835500000000    1.23851800000000    2.93393600000000
C         2.62268700000000    2.04490200000000    2.19336800000000
C         1.74465800000000    1.48364800000000    1.26289200000000
N         1.02521000000000   -0.12641100000000   -1.30882300000000
C         2.25328600000000   -0.37253700000000   -1.89290400000000
C         2.67283900000000    0.47484500000000   -3.01995100000000
C         2.54775300000000    0.00753300000000   -4.33346500000000
C         2.96750600000000    0.81766400000000   -5.39011300000000
C         3.52237900000000    2.07225200000000   -5.12638100000000
C         3.65142300000000    2.51138500000000   -3.81186500000000
F         4.20702200000000    3.70623100000000   -3.56716200000000
C         3.23063600000000    1.72468500000000   -2.74792600000000
O         3.00374200000000   -1.26876900000000   -1.52300600000000
C        -0.01413600000000    0.78136700000000   -1.79346400000000
C        -0.73233500000000    0.20897700000000   -3.05586300000000
O        -0.43646300000000   -1.09668200000000   -3.30808900000000
O        -1.56260700000000    0.80412600000000   -3.72582100000000
N        -0.97682300000000    0.87653500000000   -0.70163400000000
C        -1.66465500000000    2.06603100000000   -0.53422900000000
C        -2.48763300000000    2.26447200000000    0.67736300000000
C        -3.56667500000000    1.43168700000000    0.97512100000000
C        -4.29321500000000    1.66358600000000    2.13727800000000
F        -5.32250800000000    0.86047800000000    2.44053400000000
C        -3.97371700000000    2.71540300000000    2.99354400000000
C        -2.91871800000000    3.57093500000000    2.67447000000000
C        -2.17504700000000    3.34545800000000    1.51472300000000
O        -1.55098300000000    3.00941200000000   -1.31238700000000
H        -0.90377200000000   -2.12515900000000    2.16844200000000
H        -2.35008300000000   -4.09244700000000    2.19290900000000
H        -4.13877600000000   -5.47200800000000    1.14237900000000
H        -5.73814300000000   -5.83896100000000   -0.69490600000000
H        -5.86703700000000   -4.22909400000000   -2.57779000000000
H        -4.40409500000000   -2.25028300000000   -2.62139700000000
H        -2.67632300000000   -0.88086400000000   -1.57172800000000
H        -0.84076600000000    0.30785900000000    1.31903500000000
H         0.89391800000000   -1.64889700000000    0.09820500000000
H         2.61216300000000   -1.78687200000000    1.62105400000000
H         4.40197300000000   -2.03992900000000    3.30249800000000
H         5.94800300000000   -1.03302900000000    4.93593100000000
H         5.94692100000000    1.41753400000000    5.31186100000000
H         4.40555800000000    2.86466000000000    4.04683300000000
H         2.62274200000000    3.12365200000000    2.33385100000000
H         1.09733400000000    2.15259300000000    0.70091000000000
H         2.13638500000000   -0.97881800000000   -4.54100300000000
H         2.87599600000000    0.46711700000000   -6.41494300000000
H         3.86240700000000    2.70734500000000   -5.93956000000000
H         3.36429300000000    2.07786100000000   -1.72897000000000
H         0.42490600000000    1.75160200000000   -2.04417000000000
H         0.14384700000000   -1.47717500000000   -2.61406800000000
H        -3.86667400000000    0.62302000000000    0.31918300000000
H        -4.56032700000000    2.87090000000000    3.89431200000000
H        -2.67608900000000    4.40758000000000    3.32599300000000
H        -1.35976300000000    4.02000800000000    1.25570400000000
72
 energy: -126.245442689448 gnorm: 0.052605152702 xtb: 6.3.3 (4ae9cef)
C        -1.59970964503775   -2.27329021110183    1.32794571871311
C        -2.41209411014377   -3.38475145933984    1.35494059557612
C        -3.33398434782921   -3.63023848285100    0.32208591368897
C        -4.18182211812580   -4.75336601945009    0.32289571485061
C        -5.07631963340368   -4.95863073068293   -0.70418787514720
C        -5.14978198327679   -4.05146547037875   -1.76316111288033
C        -4.33235982526392   -2.94238105415421   -1.78808427130554
C        -3.41103865894509   -2.70510636790766   -0.75146263536470
C        -2.56784173307896   -1.57489347615177   -0.75072353509867
C        -1.66276566970844   -1.34919561672225    0.26867780253219
C        -0.72708864782214   -0.14807268736030    0.31621642295898
C         0.75265537501985   -0.55589843084326    0.08015776185039
C         1.71838052445893    0.08631383918438    1.06591658223658
C         2.59270242702070   -0.71001028213403    1.78441545840395
C         3.49027702484152   -0.16288526512976    2.72074276347234
C         4.38449114232172   -0.96382379161959    3.45566275010179
C         5.24928391520562   -0.39984533506726    4.36787395880484
C         5.24980577429242    0.98068096584550    4.57880420023383
C         4.38802521106968    1.78960614103166    3.87176577162381
C         3.49617055615576    1.24105422418244    2.93085672082928
C         2.61365636957115    2.03826455393528    2.18052644166118
C         1.74959125831238    1.47626741479887    1.26532959974439
N         1.02261601674550   -0.11788530466363   -1.29172495031066
C         2.23946587868100   -0.37014570734410   -1.87671852987279
C         2.64006786777325    0.48666864472323   -3.02418758633065
C         2.53903607862075    0.02218194230439   -4.33283430551077
C         2.97248190050063    0.82078979461347   -5.38162432463690
C         3.52255233304405    2.06785946353062   -5.12829955213405
C         3.65073826027480    2.49846425560229   -3.81807226409786
F         4.20284225418323    3.69676153786195   -3.57056742102128
C         3.21255621510487    1.72527034687356   -2.75612754750863
O         2.97363951327952   -1.25629287569607   -1.48299957646847
C        -0.01020998621426    0.77601615243460   -1.79057279324478
C        -0.73778368095573    0.18769425452704   -3.03313173200567
O        -0.43495105587150   -1.09532296110727   -3.30740983181206
O        -1.52107196094236    0.79603575688142   -3.69932189413453
N        -0.96471373554118    0.87966896123369   -0.69863950633838
C        -1.63115772418459    2.06940164700739   -0.52602699248235
C        -2.46788148518339    2.24459476700211    0.69277223771255
C        -3.54969257164942    1.42115446241637    0.98563209783978
C        -4.28592404432577    1.67048273553542    2.13314540032005
F        -5.31803898582358    0.86624376718817    2.43535377785373
C        -3.97420648717750    2.71650390502106    2.98748528933191
C        -2.92150991749185    3.55863785500723    2.66569229773164
C        -2.17620890174069    3.33030442628744    1.51899242344252
O        -1.51995441745534    2.98432242684091   -1.31970515403794
H        -0.90738891481994   -2.11409664542336    2.14709142787593
H        -2.34348139387797   -4.07476653576825    2.18594747131267
H        -4.13478322459700   -5.46399477678592    1.13770536010962
H        -5.72387833255355   -5.82586400928695   -0.69004859470555
H        -5.85300619198242   -4.21869873000318   -2.56852087892168
H        -4.40044763081828   -2.24972903420815   -2.61671691315852
H        -2.65947247790513   -0.87363243297950   -1.56992783841485
H        -0.83145533501749    0.30918770531805    1.30771468149918
H         0.88216635625303   -1.64350301243258    0.12368061384452
H         2.60049994948298   -1.77983633239655    1.61907351901625
H         4.39819384196736   -2.03454410236162    3.30147292322876
H         5.93256770754336   -1.02953612637394    4.92308082390851
H         5.93170884741811    1.41634518029425    5.29787600029184
H         4.40177372112730    2.85825127199444    4.04205617060418
H         2.61482869145004    3.11134305535004    2.32132895213580
H         1.09465298674835    2.13199758632726    0.70397253427230
H         2.13125340581133   -0.95898896666002   -4.53470944038016
H         2.87877446080106    0.47246685898297   -6.40041314335478
H         3.85974344005093    2.70259619924092   -5.93554542505089
H         3.34493644893447    2.07584827898046   -1.74093784303314
H         0.39337449101119    1.76433777808005   -2.05324410808356
H         0.14678203248223   -1.47762729336495   -2.62405499709710
H        -3.84386057737931    0.61367176134455    0.33136355833562
H        -4.55917285464160    2.87038275707197    3.88363297702098
H        -2.68105369786154    4.39190512753456    3.31176888682903
H        -1.36617431891217    3.99874072536056    1.25805097214473
72
 energy: -126.249330696809 gnorm: 0.017507744087 xtb: 6.3.3 (4ae9cef)
C        -1.59532185892782   -2.26425627895191    1.32072021295408
C        -2.39957401238399   -3.36584068768531    1.35143424944740
C        -3.32677943815081   -3.61850102872818    0.31952394702600
C        -4.17665079871798   -4.74329978935890    0.31958150345310
C        -5.06352118181563   -4.94614525819128   -0.69981354713602
C        -5.13846375915427   -4.03561898325889   -1.76320410150990
C        -4.32942264384906   -2.93402709836582   -1.79270100441175
C        -3.40454967727619   -2.69184803065759   -0.75685652258190
C        -2.55761113498782   -1.56055906831295   -0.75637596704953
C        -1.66402769253295   -1.34136850795171    0.25623321271129
C        -0.73096353071803   -0.14322103071437    0.31604575931762
C         0.74658106400625   -0.55841852208801    0.09201654835990
C         1.71084622031717    0.07235481289040    1.07586583171504
C         2.57974937724388   -0.71582744519797    1.78224824773111
C         3.48457991004447   -0.16722456399599    2.71347676977631
C         4.38210665472420   -0.96586505272941    3.45194181882050
C         5.23800576831291   -0.40252973931327    4.35545286523344
C         5.23781407998960    0.98393363969964    4.56554354186412
C         4.38457920226005    1.78804737362291    3.86398528318695
C         3.49038418423677    1.23998329188747    2.92124492057800
C         2.60106229677075    2.03126675950533    2.16549411876189
C         1.74035717367564    1.46765094951920    1.26631113948497
N         1.02683505135425   -0.10725495950024   -1.27314659736352
C         2.23628370789455   -0.36645638517598   -1.85497799456714
C         2.61503232138225    0.49200587195826   -3.02330928774244
C         2.52287345349939    0.03064652990263   -4.32979507088667
C         2.96410132377029    0.82313265348688   -5.37549188262046
C         3.51764631188005    2.06572460780624   -5.12989575653610
C         3.63513709578373    2.49389914675347   -3.82073306194676
F         4.19742044515504    3.68946277786058   -3.56903359545631
C         3.18955369341201    1.72843274378147   -2.75893869271006
O         2.96244223293050   -1.24070495462156   -1.43481877598815
C        -0.00538311046816    0.76485038922960   -1.78575494944952
C        -0.71629791480641    0.17200055276805   -3.03427585247195
O        -0.44379951592120   -1.11216444188848   -3.28281881800152
O        -1.50145418500147    0.78544424198050   -3.67831843124059
N        -0.95662294899286    0.87954089387310   -0.69450823630735
C        -1.60895488979239    2.06949431770392   -0.52509717886712
C        -2.44655882180846    2.22571759106602    0.70423742711595
C        -3.52723168412330    1.40367626551750    0.99368212257766
C        -4.27099303559809    1.66465334961028    2.13111371741372
F        -5.31376843771630    0.86499715482183    2.42274340531824
C        -3.97391207269279    2.71290028387942    2.98291933678164
C        -2.91767713324691    3.54603846836801    2.66296877335676
C        -2.16497194856332    3.31219202045218    1.52741038316014
O        -1.47954098827037    2.97291631110637   -1.31950672073497
H        -0.89922845230606   -2.09143781814894    2.12926535943224
H        -2.33633446259391   -4.05779220948479    2.17787084798583
H        -4.12029438246720   -5.44625095228187    1.13767720848369
H        -5.71095455179444   -5.81063703659241   -0.68913468468242
H        -5.84219550947270   -4.20870176371284   -2.56350813618910
H        -4.39088029632307   -2.23792064293895   -2.61502421986866
H        -2.64619129891539   -0.86073116855396   -1.57479494533975
H        -0.83332027974880    0.31485932982512    1.30782240301973
H         0.86667106173053   -1.64697804818168    0.13885300201694
H         2.58795141837547   -1.78313298312559    1.62308708105655
H         4.38713559827081   -2.03359479069758    3.29355485281567
H         5.92088564709292   -1.02580737144180    4.91345888638408
H         5.91879895593337    1.41480277970704    5.28455921877150
H         4.38918290773994    2.85560523531073    4.02697479908999
H         2.60817388836321    3.10188844146527    2.30693005838696
H         1.07996569748630    2.10868390593396    0.69844790835293
H         2.11159781129968   -0.94600906958779   -4.52810596693011
H         2.88023623855032    0.46918530880949   -6.39024369388739
H         3.86503782024134    2.69646083987973   -5.93218278193315
H         3.31476057724244    2.08191756168901   -1.74664947897496
H         0.35793799891084    1.76996015525984   -2.06109698103041
H         0.16224936086824   -1.48506138051998   -2.62041772718940
H        -3.80927206672475    0.58917585533738    0.34572655892118
H        -4.56903824148279    2.87164129031786    3.86816397999213
H        -2.68490260723883    4.38338279185150    3.30153689318360
H        -1.35730598616465    3.97665956751771    1.26440846756615
72
 energy: -126.250394042288 gnorm: 0.012425873279 xtb: 6.3.3 (4ae9cef)
C        -1.58994163071143   -2.25271417951583    1.31918565062064
C        -2.39137226910637   -3.35346101944421    1.34890805370060
C        -3.31926183082029   -3.60542476437559    0.31550634677703
C        -4.16837159184700   -4.73127091450614    0.31693555627656
C        -5.05487665882249   -4.93513372290209   -0.70087914578239
C        -5.13142500945082   -4.02390281289483   -1.76647660222941
C        -4.32389668059664   -2.92315692901408   -1.79738339717193
C        -3.39846964426963   -2.68061115412360   -0.76104338340532
C        -2.55385108021552   -1.54711048828614   -0.76102241657039
C        -1.66477375444105   -1.32980702590280    0.25327535306029
C        -0.73272982424908   -0.13625732293270    0.31908989524021
C         0.73995178600738   -0.56220078114775    0.09712324680522
C         1.70152108035486    0.06181130402000    1.08097628603688
C         2.57034264688876   -0.72446458991383    1.78509196572444
C         3.47787735271879   -0.17058999035697    2.71071333029219
C         4.37739740491544   -0.96839639833748    3.44888700016230
C         5.23297023275364   -0.40303575776917    4.34903274165513
C         5.23146369713345    0.98624977645123    4.55594915214582
C         4.37879234031633    1.78777583884154    3.85320278236874
C         3.48338355098951    1.23645437831017    2.91267718017731
C         2.59143455563596    2.02650220813614    2.15609964816875
C         1.72882144075046    1.46007904554914    1.26402639401253
N         1.02958801318442   -0.10071662951565   -1.26166130148970
C         2.23700111986978   -0.36464064310977   -1.83996129614425
C         2.60164625871070    0.49120218603208   -3.01843021998974
C         2.50697039790335    0.03105732304230   -4.32475055861687
C         2.95217398484831    0.82099336172714   -5.37096930586602
C         3.51039485330294    2.06257413904057   -5.12826840166369
C         3.61792785512964    2.49352049858033   -3.81883884211919
F         4.18344080349142    3.68862209712243   -3.56577779088512
C         3.16915106096545    1.73174422564271   -2.75635245038566
O         2.96734527069029   -1.22664158563636   -1.40164884068688
C        -0.00417959564318    0.75733822272939   -1.78193920241729
C        -0.72502144813708    0.14483651674370   -3.01691936494017
O        -0.42527316132732   -1.12818040647670   -3.27795917217660
O        -1.48037070960747    0.77533527744386   -3.68838709963558
N        -0.95204284959028    0.88201490587605   -0.69096926510424
C        -1.59178044823503    2.07654545166204   -0.52147033854670
C        -2.43013486422086    2.22053326375337    0.70989501739015
C        -3.50440474256386    1.38943852845349    0.99718934585646
C        -4.25694862123626    1.65367222247802    2.12760347535438
F        -5.30358050642513    0.85308927092564    2.41019444058232
C        -3.97440847292218    2.70725335704166    2.97812099391270
C        -2.91390513977488    3.53911854889786    2.66601434325223
C        -2.15345107488167    3.30550035220759    1.53598107536461
O        -1.45255675136059    2.97981474239615   -1.31410987472842
H        -0.88939321449008   -2.07102080791267    2.12147892733702
H        -2.33134048321900   -4.04886139932431    2.17288820509474
H        -4.10558258509355   -5.42969925650490    1.13876173516106
H        -5.70281127203667   -5.79885416425471   -0.69232627102393
H        -5.83701040472035   -4.20090049443441   -2.56395765601894
H        -4.38136869184929   -2.22292550687795   -2.61690547100414
H        -2.64142984871871   -0.84839871919660   -1.58084524775102
H        -0.83615327794298    0.32132121945483    1.31094993977521
H         0.85180132229893   -1.65178492469127    0.14138494221753
H         2.57880384747062   -1.79301618802363    1.63202984045212
H         4.37727317285355   -2.03597001603331    3.28737545099216
H         5.91717910158815   -1.02163936108898    4.91008264280002
H         5.91243999892844    1.41561274826276    5.27534842443181
H         4.37761278441095    2.85666204241002    4.00932261491750
H         2.60405075749983    3.09760842105095    2.29516011075925
H         1.06234432809202    2.09090019703516    0.69232373512296
H         2.09176777488530   -0.94406449991631   -4.52287404475291
H         2.87285691851303    0.46273502571634   -6.38473810702733
H         3.86737623749534    2.68955901499945   -5.92909529124550
H         3.28585256630964    2.09080421894354   -1.74536064291124
H         0.34028590179184    1.76704559435983   -2.06959035951118
H         0.17861186310332   -1.50283681311351   -2.61623656078945
H        -3.77335982544046    0.56618817882673    0.35463138957484
H        -4.58253651641561    2.87006598180243    3.85349526156336
H        -2.68738048629591    4.37901577510961    3.30329136693794
H        -1.34245131512318    3.96709280645777    1.27694606051604
72
 energy: -126.251071682632 gnorm: 0.007333535309 xtb: 6.3.3 (4ae9cef)
C        -1.58656151110910   -2.24040856082581    1.31869628976914
C        -2.38597328310063   -3.34323676267982    1.34602785959523
C        -3.31248365705539   -3.59179128274222    0.31003768375390
C        -4.15973560617641   -4.71853486528840    0.31273200167283
C        -5.04738569725371   -4.92368678959816   -0.70536594710513
C        -5.12557497317157   -4.01260158316247   -1.77193585891636
C        -4.31810295840133   -2.91077368167138   -1.80315717412981
C        -3.39355706805343   -2.66937650962742   -0.76574992492898
C        -2.55280283423019   -1.53382794584179   -0.76582188547428
C        -1.66661244457559   -1.31766848726715    0.25248882877510
C        -0.73471316516365   -0.12894924688215    0.31960069511555
C         0.73327076225866   -0.56518378637186    0.09869929253015
C         1.69230325953225    0.05172459672848    1.08502442904596
C         2.56120527466988   -0.73463428838221    1.79074596771160
C         3.46989868158661   -0.17439006453133    2.71084212780558
C         4.37124776404638   -0.97101655403057    3.44793892116190
C         5.22932962667783   -0.40194902435571    4.34498001244838
C         5.22655356498760    0.98885467557860    4.54683197158162
C         4.37229041857854    1.78797556139116    3.84108682735329
C         3.47556816239647    1.23179126311438    2.90494347130532
C         2.58268400732675    2.02181852345627    2.14877243668354
C         1.71729956231705    1.45165148299687    1.26139224027487
N         1.03324580183102   -0.09385790328895   -1.25374628010884
C         2.24163263689790   -0.36061701372463   -1.82587128261456
C         2.59441762283759    0.48880512521095   -3.01179568437640
C         2.49343799812612    0.02818430244558   -4.31763223478499
C         2.93836620664115    0.81690609237905   -5.36576061008122
C         3.49955292116172    2.05877366471401   -5.12533980086690
C         3.59918305701358    2.49502336019451   -3.81624393792332
F         4.16028751881154    3.69307453796397   -3.56429640878213
C         3.15098856154542    1.73559138165554   -2.75231556615240
O         2.97884168571714   -1.21013188359275   -1.37309069702346
C        -0.00349985850703    0.75006755591853   -1.78345485726565
C        -0.71105968561427    0.12198125942480   -3.02023490987794
O        -0.42208651927676   -1.15777803315915   -3.25496133129586
O        -1.47162860541513    0.74627743183770   -3.69347370186531
N        -0.94911862942131    0.88547003471925   -0.69184820206119
C        -1.57275194965877    2.08781094115673   -0.51586634195597
C        -2.41232445523070    2.22191946713437    0.71444445207869
C        -3.47865156902000    1.37830505217216    0.99789875323304
C        -4.24117327048308    1.64059976084164    2.12184725098892
F        -5.28561238778087    0.83310135463231    2.39685942964055
C        -3.97451802305926    2.69938633475175    2.97223175786380
C        -2.91121249237302    3.53388145468241    2.67184687523803
C        -2.14160558277021    3.30429700930126    1.54649916322482
O        -1.42393695241254    2.99621758934153   -1.30221219762953
H        -0.88260974801747   -2.05108589366740    2.11665830846503
H        -2.32724323036592   -4.04262390303025    2.16749727232031
H        -4.09230902607713   -5.41382955424862    1.13751117078941
H        -5.69584428044977   -5.78713281694870   -0.69840543201579
H        -5.83296907414074   -4.19245250857899   -2.56749816519632
H        -4.37264910393538   -2.20699544944710   -2.62101430613925
H        -2.64058073521568   -0.83426396099757   -1.58573964790580
H        -0.83816596741132    0.32854803464851    1.31141794222113
H         0.83679575715463   -1.65586360975028    0.13734565144766
H         2.56911815438107   -1.80488843400654    1.64321254371849
H         4.36786674096812   -2.03904662558045    3.28498443490275
H         5.91632588955375   -1.01593927836146    4.90818888420106
H         5.90867817556570    1.41869212598157    5.26511638147022
H         4.36800081656651    2.85861239721027    3.98953788063054
H         2.59955806616997    3.09399043795010    2.28403559851943
H         1.04549057410101    2.07383176314127    0.68638404881060
H         2.07396146063225   -0.94596789326300   -4.51601583410524
H         2.85810101199561    0.45584454373763   -6.37912101761385
H         3.86338861319858    2.68204921871689   -5.92637233753510
H         3.25874340118523    2.10137645368315   -1.74238264681596
H         0.32933207160626    1.75936435072404   -2.08197571224391
H         0.19634860636467   -1.52142146611311   -2.59943888133171
H        -3.73366275407485    0.54718713513471    0.35921123989689
H        -4.59648145087676    2.86371721281521    3.83799735236452
H        -2.69094688258895    4.37381981186309    3.31207800538144
H        -1.32716300193668    3.96540136166677    1.29449536213165
72
 energy: -126.251460785463 gnorm: 0.005519217874 xtb: 6.3.3 (4ae9cef)
C        -1.58779262976665   -2.23113287024470    1.31810034512304
C        -2.38555500000716   -3.33638747345026    1.34285921222769
C        -3.30956144803818   -3.58142552421268    0.30424413355847
C        -4.15481497048709   -4.70900571496680    0.30628260975139
C        -5.04291526640395   -4.91406243636933   -0.71286312213602
C        -5.12202245200125   -4.00310500409996   -1.77881774395336
C        -4.31489978167121   -2.89978177148756   -1.80894336197477
C        -3.39233759999492   -2.65983637353505   -0.77006498400355
C        -2.55431723090015   -1.52352674813424   -0.76911687121042
C        -1.66944541254243   -1.30897714296062    0.25221365605420
C        -0.73677993497440   -0.12309985223640    0.31734228050583
C         0.72897123986093   -0.56674180930000    0.09892734389475
C         1.68575111818061    0.04407491102727    1.08992600993714
C         2.55285558962760   -0.74305221789791    1.79896950613767
C         3.46237137629909   -0.17791521731875    2.71475603582986
C         4.36531528323949   -0.97245759953424    3.45145304786628
C         5.22708542314990   -0.39907340361146    4.34405268880007
C         5.22446425766210    0.99209117867310    4.53950791686581
C         4.36829453672662    1.78883662065873    3.83142940830353
C         3.46941763024092    1.22794698123527    2.90094359853688
C         2.57692023882598    2.01808583337673    2.14533652201349
C         1.71002187934051    1.44430466776161    1.26089057880191
N         1.03762935844184   -0.08844143993802   -1.24857017779641
C         2.24840422665979   -0.35517257940522   -1.81465058158584
C         2.59286663981012    0.48651160257565   -3.00524508638620
C         2.48487410510994    0.02372287492370   -4.30969620773654
C         2.92357810215004    0.81267881290926   -5.36077856585958
C         3.48331696269556    2.05612686005952   -5.12315443106998
C         3.58036672102563    2.49856218922816   -3.81559647337067
F         4.13085478144074    3.70235339868683   -3.56786673973444
C         3.13890883592699    1.73915224295507   -2.74924099275056
O         2.99192957892380   -1.19485330008126   -1.35495439317067
C        -0.00402884584470    0.74315433497727   -1.78821387779241
C        -0.70545632622834    0.09354368305655   -3.01929357633144
O        -0.41127307979376   -1.18915864963093   -3.23278024003162
O        -1.46724071368521    0.70430571383946   -3.70411084023471
N        -0.94834330568336    0.88902364919593   -0.69701947401259
C        -1.55403847434420    2.10052868963521   -0.50985119422997
C        -2.39411609333402    2.22972468750761    0.71835454842573
C        -3.45414439373177    1.37518811500100    0.99518665499486
C        -4.22483434193551    1.62882013480727    2.11508800238780
F        -5.26175901478379    0.80968491687861    2.38443201515916
C        -3.97239880757560    2.68976409702018    2.96743599253370
C        -2.91050063592541    3.53093542091660    2.67920219742739
C        -2.13177571178148    3.30919340228828    1.55774700322037
O        -1.39245719822592    3.01747509624190   -1.28459125036036
H        -0.88370996453375   -2.03735732420931    2.11508978471971
H        -2.32609317574872   -4.03859830182146    2.16208784774862
H        -4.08599088320620   -5.40382002907060    1.13139242479982
H        -5.69133273668643   -5.77771098101350   -0.70702203434320
H        -5.82958952948727   -4.18396963460974   -2.57426283241317
H        -4.36781138656030   -2.19456850676832   -2.62617052126850
H        -2.64245881605630   -0.82135894172817   -1.58690478787634
H        -0.83899535172088    0.33672144041924    1.30823522525140
H         0.82611935766233   -1.65833236871790    0.13061669429806
H         2.55891076372677   -1.81403423679012    1.65453965430486
H         4.36082040807439   -2.04106316617328    3.29082519878699
H         5.91735501891912   -1.00952662733162    4.90754452040059
H         5.90915110683497    1.42452184845731    5.25415401680288
H         4.36491701317397    2.86059739405970    3.97299968713673
H         2.59501675604560    3.09092775735481    2.27660529343792
H         1.03697320392652    2.06161874058321    0.68239249575048
H         2.06597691565657   -0.95150144829509   -4.50708524914902
H         2.83913701868342    0.44982836750313   -6.37353934688090
H         3.84782678494896    2.67664928323039   -5.92604948655005
H         3.24171020289816    2.10990508379808   -1.74036510267345
H         0.32401823325600    1.74841509714521   -2.10029018863599
H         0.21357164914191   -1.54022844294865   -2.57607345843593
H        -3.69783435861838    0.54122533364492    0.35618208664866
H        -4.60474636474829    2.85054820247211    3.82636833972161
H        -2.69715670742981    4.36849394180160    3.32555245642885
H        -1.31716837383019    3.97403353198608    1.31391815936405
72
 energy: -126.251803088483 gnorm: 0.024969136309 xtb: 6.3.3 (4ae9cef)
C        -1.59277452434372   -2.22368154654660    1.31654560375389
C        -2.38923145719348   -3.33054798772428    1.33841008178036
C        -3.31030112114403   -3.57309818803863    0.29713849326414
C        -4.15388978485964   -4.70166440368488    0.29634418668488
C        -5.04104771573063   -4.90534084925682   -0.72437487069117
C        -5.12020629912901   -3.99367141129508   -1.78874450717498
C        -4.31425273519898   -2.88894069019697   -1.81623325115847
C        -3.39428266114355   -2.65036401378765   -0.77532642325530