86
 energy: -136.955427020493 gnorm: 0.150409368876 xtb: 6.3.3 (4ae9cef)
C        -2.06654200000000    2.21246700000000   -2.40703800000000
C        -3.07305300000000    3.10456000000000   -2.79181500000000
C        -3.43655800000000    4.17656400000000   -1.96398900000000
C        -4.45888500000000    5.07365800000000   -2.32737700000000
C        -4.80510300000000    6.13637900000000   -1.49156800000000
C        -4.14266100000000    6.31266900000000   -0.28072500000000
C        -3.13357400000000    5.42613200000000    0.09711600000000
C        -2.76677800000000    4.34954300000000   -0.73371600000000
C        -1.75651500000000    3.44036700000000   -0.35891000000000
C        -1.39170700000000    2.36348800000000   -1.18284500000000
C        -0.29772900000000    1.37994100000000   -0.81353500000000
C         0.56549600000000    1.54482500000000    0.46937600000000
C         1.69623900000000    2.55380000000000    0.33072700000000
C         1.77451000000000    3.63131600000000    1.22761300000000
C         2.80403400000000    4.58684300000000    1.14063200000000
C         2.87309300000000    5.66859900000000    2.03555300000000
C         3.91013500000000    6.59918900000000    1.94747800000000
C         4.88509200000000    6.46695000000000    0.96228000000000
C         4.82134400000000    5.40524800000000    0.06295100000000
C         3.79230400000000    4.45397800000000    0.14259800000000
C         3.72945900000000    3.36445600000000   -0.73979900000000
C         2.69687500000000    2.42395400000000   -0.64463900000000
N         1.09003000000000    0.19305600000000    0.68553000000000
C         1.59693100000000   -0.15308700000000    1.93442400000000
C         2.18926700000000   -1.46915100000000    2.04888200000000
C         3.40457100000000   -1.88724100000000    1.54989600000000
C         3.68765600000000   -3.24762400000000    1.87809400000000
C         4.90789400000000   -4.02323700000000    1.47390100000000
C         5.05941300000000   -5.30794100000000    2.30532200000000
C         3.72580500000000   -6.06219100000000    2.40708700000000
C         2.64890200000000   -5.22048100000000    3.12482800000000
C         2.66273500000000   -3.80931200000000    2.61654200000000
S         1.40639500000000   -2.69912600000000    2.94490900000000
O         1.60083600000000    0.64698600000000    2.86919700000000
C         0.43178500000000   -0.75882800000000   -0.19608500000000
C         1.33305500000000   -1.23961900000000   -1.37900100000000
O         0.72573200000000   -1.12704600000000   -2.59351500000000
O         2.45570500000000   -1.70714200000000   -1.27980800000000
N        -0.72331000000000   -0.04226900000000   -0.76327400000000
C        -1.90932900000000   -0.31386300000000   -0.04126400000000
C        -2.63049800000000   -1.51232900000000   -0.46036300000000
C        -2.19992100000000   -2.64673000000000   -1.14003400000000
C        -3.24163700000000   -3.61075200000000   -1.32481100000000
C        -4.43959400000000   -3.16495100000000   -0.79390400000000
C        -5.74100200000000   -3.90922600000000   -0.85135500000000
C        -5.51416200000000   -5.37526000000000   -1.25323400000000
C        -4.48907400000000   -5.50890400000000   -2.39631100000000
C        -3.11696900000000   -4.95218100000000   -1.98154100000000
S        -4.31069400000000   -1.61929900000000   -0.09708900000000
O        -2.28434200000000    0.42761300000000    0.86366200000000
H        -1.82138800000000    1.39579800000000   -3.08180300000000
H        -3.57919800000000    2.95288000000000   -3.74491000000000
H        -4.98281200000000    4.95277900000000   -3.27347100000000
H        -5.59141400000000    6.82564800000000   -1.78321200000000
H        -4.41252500000000    7.13385300000000    0.37995500000000
H        -2.63052400000000    5.57923100000000    1.05008600000000
H        -1.26976700000000    3.58911100000000    0.60316100000000
H         0.38713600000000    1.41823600000000   -1.67682800000000
H        -0.06582600000000    1.78554100000000    1.33507000000000
H         1.03728500000000    3.71653300000000    2.02229200000000
H         2.12202800000000    5.78782000000000    2.81662500000000
H         3.96620800000000    7.42843300000000    2.64872800000000
H         5.69341900000000    7.19153100000000    0.89411400000000
H         5.59219700000000    5.30954800000000   -0.70163500000000
H         4.48606500000000    3.24499900000000   -1.50978600000000
H         2.70259700000000    1.58235900000000   -1.33417900000000
H         4.06228400000000   -1.25173700000000    0.96939300000000
H         4.80961800000000   -4.28657400000000    0.40869000000000
H         5.80580100000000   -3.40951600000000    1.58298000000000
H         5.83249800000000   -5.94453100000000    1.85565700000000
H         5.40576200000000   -5.05580900000000    3.31803300000000
H         3.38176800000000   -6.30542300000000    1.39568300000000
H         3.86322700000000   -7.01223200000000    2.94383700000000
H         1.67320400000000   -5.68942100000000    2.96542400000000
H         2.84964500000000   -5.21209900000000    4.20415100000000
H         0.10476100000000   -1.64345700000000    0.35684000000000
H        -0.16619500000000   -0.72188900000000   -2.49722300000000
H        -1.18153400000000   -2.81484100000000   -1.48012800000000
H        -6.25689100000000   -3.86879200000000    0.11899700000000
H        -6.38591200000000   -3.42494300000000   -1.59983200000000
H        -5.15167900000000   -5.94130300000000   -0.38255000000000
H        -6.47228800000000   -5.82418200000000   -1.54480000000000
H        -4.85732100000000   -4.96902800000000   -3.27791300000000
H        -4.38589700000000   -6.55728600000000   -2.68782800000000
H        -2.64932900000000   -5.64439100000000   -1.26648100000000
H        -2.46065900000000   -4.89163900000000   -2.85819200000000
86
 energy: -136.971762038640 gnorm: 0.060179835307 xtb: 6.3.3 (4ae9cef)
C        -2.07050908505466    2.20943800634611   -2.38455501021239
C        -3.05981154940501    3.08668686162189   -2.77609354001910
C        -3.43366186428941    4.16781309276532   -1.95918709307406
C        -4.45015867155392    5.07373622672421   -2.32445443801267
C        -4.79159572761976    6.11905333082166   -1.49572635159893
C        -4.12794012370122    6.29380828946797   -0.27946240313973
C        -3.12910512148800    5.42360394540636    0.09965698046866
C        -2.75945781685602    4.34053371312387   -0.72269115857161
C        -1.75475257160517    3.42288125943936   -0.34596694503227
C        -1.40357641785759    2.35494813069788   -1.15184104692556
C        -0.28728426166160    1.37949469593060   -0.81930895936757
C         0.56520453736305    1.55927746920146    0.46278164400365
C         1.69209806740235    2.56540428907697    0.33926403833415
C         1.76614418587112    3.62650771354591    1.22339257331733
C         2.79619784179568    4.58367217363461    1.14479373712834
C         2.87588730970288    5.66894529806408    2.03838884604118
C         3.90046204789557    6.58478669240327    1.94490566639221
C         4.87744011437513    6.45226357044567    0.95491979407944
C         4.82159667290180    5.40326020207845    0.06560005669661
C         3.78890703629808    4.44949399571642    0.14007690311433
C         3.71287071679154    3.35337656450633   -0.73803877592432
C         2.69267676331478    2.43102872518491   -0.63745953327133
N         1.09191435303796    0.20397432425454    0.67338638852918
C         1.59810139756551   -0.13406410126366    1.91439321115226
C         2.18396451130290   -1.47554457401488    2.02444709265979
C         3.39070540991092   -1.90190237697738    1.53942501573475
C         3.67921110446204   -3.24964353218333    1.88243534217075
C         4.89776356909844   -4.02139383414407    1.47664112577157
C         5.05168189882357   -5.29825328883738    2.31076656932687
C         3.72800128077606   -6.05685181288487    2.40087059926579
C         2.66063876164215   -5.22244408960658    3.12261071248248
C         2.67132686166558   -3.81730256909196    2.61459335829784
S         1.39632570989475   -2.70946260352908    2.92950670512605
O         1.60596837504550    0.66319136603514    2.83328136892576
C         0.43956606248136   -0.74571349249973   -0.21281667473110
C         1.33542484406206   -1.22582645619646   -1.38723958779690
O         0.73403070626796   -1.13635584706158   -2.58674976730716
O         2.43398415156481   -1.68371231707258   -1.26965345799254
N        -0.72191474204984   -0.04240733391513   -0.76717640294196
C        -1.91902402599602   -0.31296939848487   -0.04374319961529
C        -2.63026062785237   -1.51480325641806   -0.46587613648916
C        -2.21034730963620   -2.64742274235130   -1.13851058616274
C        -3.24341427839101   -3.59910617069972   -1.32170111145333
C        -4.43740636359651   -3.16335029266752   -0.79502446504289
C        -5.73047381903313   -3.91008005796708   -0.86054015357056
C        -5.50129813900694   -5.37455764270344   -1.25037263805314
C        -4.48667676261947   -5.49333951487466   -2.39049211598809
C        -3.11708785983793   -4.94251502503229   -1.97441219997959
S        -4.30932912411563   -1.62092657994546   -0.06821046994978
O        -2.32939888274564    0.43787825733995    0.81843448256322
H        -1.81186246869457    1.39831311240055   -3.05542784780245
H        -3.55747748329310    2.94149321901292   -3.72762956050479
H        -4.97193807342754    4.94675574083361   -3.26465646402002
H        -5.57631081679468    6.80652491022044   -1.78500854593947
H        -4.39920767087173    7.11565160739493    0.37158331640330
H        -2.62764936749711    5.57283214271686    1.04658631778243
H        -1.25887829765414    3.57778677273735    0.60108354894369
H         0.40640753306352    1.42005824798263   -1.67566396508787
H        -0.06755853659096    1.80695002161794    1.32446060288495
H         1.03091636381852    3.71498412933754    2.01147202508853
H         2.12663431832607    5.78484100740168    2.81111870994557
H         3.95502056001063    7.41236006014952    2.64098116701784
H         5.68074689444999    7.17550387039214    0.88925727071161
H         5.58405393565250    5.30735285365152   -0.69785779317428
H         4.47088112325372    3.23078828207153   -1.50043655764570
H         2.69063674103282    1.58832863109782   -1.31871308341286
H         4.04974562759308   -1.27006878990396    0.96894353383583
H         4.80507000505782   -4.28365291252870    0.41561252020492
H         5.79035447879899   -3.40089219990061    1.58155405071208
H         5.81608246232143   -5.93717883973419    1.85876193393025
H         5.39238002163801   -5.04353345852038    3.31921458301402
H         3.38124095549718   -6.29527560806860    1.39226798455983
H         3.86733281838171   -6.99986157711822    2.93797685565744
H         1.67810346293774   -5.67702791064452    2.97137356272258
H         2.85628720773469   -5.21535833744595    4.20045421710881
H         0.12401911082129   -1.63917433933489    0.34158566675413
H        -0.15383603864317   -0.73033910567522   -2.48651886542600
H        -1.19969230264636   -2.81498910085315   -1.47659081445146
H        -6.24505952631337   -3.86036929124167    0.10382858658693
H        -6.37940767003937   -3.42552839909851   -1.59928399341027
H        -5.13564176042062   -5.93322210072670   -0.38344154816950
H        -6.45454721247181   -5.81995652657697   -1.54823612984179
H        -4.85560678327333   -4.94961963370435   -3.26487696278217
H        -4.38343023866002   -6.54210494450318   -2.67776785165291
H        -2.64977633305649   -5.63671962899119   -1.26589031980470
H        -2.46164218538179   -4.88076318785774   -2.84738614009695
86
 energy: -136.976919408333 gnorm: 0.016861323944 xtb: 6.3.3 (4ae9cef)
C        -2.06693844288547    2.19781435337314   -2.36620028187379
C        -3.04813653657645    3.06120892684737   -2.75855365446183
C        -3.42809100649727    4.14940382358166   -1.94755464722352
C        -4.43897039841007    5.06169230470952   -2.31726421497930
C        -4.77540069653270    6.10026478491460   -1.49673095328370
C        -4.10990867215765    6.27658805349934   -0.27515150575849
C        -3.12212257254839    5.41326429931633    0.10801740502139
C        -2.75344342703239    4.32324879516641   -0.70811249211763
C        -1.74335603721023    3.40899454632369   -0.33294971362353
C        -1.39666861522753    2.35402351359534   -1.13257841545554
C        -0.27799931530967    1.38038968546643   -0.82354314065304
C         0.55971883539695    1.56425392950892    0.45839353523425
C         1.67874547566291    2.57140760779745    0.34488186753213
C         1.75157879720154    3.62272318765707    1.21966937518659
C         2.78568529672618    4.57790000051387    1.14644176435465
C         2.87261630748302    5.66629502273284    2.03968719841130
C         3.89006339249270    6.57208463827086    1.94325767062754
C         4.86945342409352    6.43712777034282    0.94829217011934
C         4.81589705242416    5.39573881297251    0.06583930559221
C         3.78036592163246    4.44038125867568    0.13959916164161
C         3.69627002799838    3.33783039253074   -0.73491830979241
C         2.68196070179915    2.42929797498429   -0.63351634457777
N         1.09049062169345    0.20800348017278    0.66357872126044
C         1.59885509375996   -0.11714558924130    1.89698768133942
C         2.17308001739074   -1.48054210523130    1.99924331697068
C         3.37469033113778   -1.91182792548332    1.52626394641280
C         3.66475785270516   -3.25264004474960    1.87965429204612
C         4.88747204230374   -4.01666699717257    1.47607176809301
C         5.04445140039164   -5.28753596032308    2.31279345828574
C         3.72605210454683   -6.04972325694192    2.39792097557209
C         2.66298263919562   -5.22291832755551    3.12421266568544
C         2.67014215996957   -3.82345286969423    2.61200350463892
S         1.37440778591190   -2.71704040516394    2.91075892025089
O         1.63061486315827    0.68607180845190    2.80109171647527
C         0.44217689053551   -0.73743721939766   -0.22922661281388
C         1.34073787550832   -1.21618283807228   -1.39766847848346
O         0.74195198204967   -1.13587987100385   -2.58551815877672
O         2.44026242206378   -1.65110390795434   -1.26146304787583
N        -0.72054425125244   -0.03882695166648   -0.77256667916947
C        -1.93852670696848   -0.29261234317035   -0.06118486722597
C        -2.62493690193561   -1.51378988682356   -0.46627241126994
C        -2.21335995115850   -2.64514979026147   -1.13453097584464
C        -3.24271143175890   -3.58813471072941   -1.31427069709346
C        -4.43476868394144   -3.16181073040036   -0.78744204853238
C        -5.72367357012418   -3.90621462721075   -0.85958185824228
C        -5.48618796111329   -5.36773649995132   -1.24606025789404
C        -4.47938289634935   -5.47789362338105   -2.38662735635621
C        -3.11258764213597   -4.92992921831926   -1.96974374649246
S        -4.30451106462048   -1.61917815473114   -0.03953787813950
O        -2.38633891521419    0.47729116026270    0.75678526183042
H        -1.79782883434373    1.38210550718628   -3.02409435537107
H        -3.54077224286001    2.92496698078726   -3.71057469970789
H        -4.95129482847425    4.92794727703979   -3.25907561384408
H        -5.55698659594654    6.78914077518470   -1.78437100626817
H        -4.38544841368405    7.10100133108192    0.36620597511329
H        -2.61522523724546    5.55851454000851    1.04958474361138
H        -1.24592337550343    3.56866694088174    0.60887817005843
H         0.41900664827532    1.42373127133898   -1.67542434604042
H        -0.07696036523024    1.81571164229525    1.31524401600369
H         1.01639184716208    3.72111220716990    2.00378074988946
H         2.12234355456901    5.77421544624727    2.80799590748687
H         3.94656441058529    7.39981985262570    2.63499234764545
H         5.66868797432079    7.16122674619442    0.88504660713857
H         5.57185113411223    5.29308049810842   -0.69878766527854
H         4.45810043376989    3.21594944129771   -1.49142025567941
H         2.66984108491153    1.58157912522451   -1.30468274147752
H         4.03476453956526   -1.28564586545967    0.95622251548474
H         4.79905538700947   -4.27929142187284    0.41765750265390
H         5.77353419865809   -3.38648399119560    1.58010483742345
H         5.80947277489268   -5.92487991497167    1.86472651125166
H         5.37431147589843   -5.02637011579439    3.31992812005840
H         3.38004742427740   -6.28045247367518    1.38884385734778
H         3.87126690689933   -6.99220078594214    2.92834165996077
H         1.67503952038681   -5.66890095841788    2.98358681875731
H         2.86426550281060   -5.21709417884867    4.20022942818268
H         0.14153215424945   -1.63972184210910    0.32525955297970
H        -0.14797400401471   -0.73925904858990   -2.47825565452126
H        -1.20893318933226   -2.80758502018964   -1.48178491126725
H        -6.24229771662382   -3.84796953031824    0.09943157555637
H        -6.36969446192585   -3.42593552225710   -1.60105969194720
H        -5.11336993870470   -5.91848483817899   -0.38140793882655
H        -6.43490412653408   -5.81671984394729   -1.54443734692707
H        -4.84977605485236   -4.92381437197021   -3.25099729334280
H        -4.37399692584367   -6.52428014618996   -2.68037788622605
H        -2.64597839174511   -5.62332598845479   -1.26295178976373
H        -2.45562788776145   -4.86228200132715   -2.83903663468647
86
 energy: -136.978883229707 gnorm: 0.018577831882 xtb: 6.3.3 (4ae9cef)
C        -2.06193419334127    2.18079754101310   -2.35516360141907
C        -3.04194985097953    3.04033302676687   -2.74721120199940
C        -3.41959834166690    4.13153672143098   -1.93633748745440
C        -4.42795174409766    5.04471273761230   -2.30961562499451
C        -4.76227996532711    6.08516172648546   -1.49291014621564
C        -4.09715069580977    6.26348223702799   -0.26863259819234
C        -3.11247442330882    5.40080059381695    0.11716369068629
C        -2.74559252067091    4.30885509286587   -0.69812476008172
C        -1.73116245184532    3.39985883011797   -0.32286878755483
C        -1.38755866893879    2.34879836639004   -1.12403269749769
C        -0.27090934249234    1.37928115879701   -0.82687812450881
C         0.55233609771075    1.56260091852336    0.45770097707690
C         1.66624993128941    2.57011300293321    0.34973573356294
C         1.73677012347123    3.62263117591610    1.21932510399977
C         2.77510521257698    4.57342285165217    1.14563445470380
C         2.86468479894696    5.66212940524620    2.03949359927600
C         3.88248937203344    6.56475634739941    1.94164152858524
C         4.86209027893911    6.42646564028295    0.94400270169540
C         4.80759611234879    5.38437621155422    0.06483590100488
C         3.76979776833533    4.43069623370770    0.14062541168289
C         3.68520242017255    3.32476503484153   -0.73176305081073
C         2.67111367444428    2.41992645590396   -0.62864952866127
N         1.08575585457160    0.20810357214965    0.66082224424386
C         1.60305817875601   -0.10766628431633    1.88727980631085
C         2.16275031651430   -1.48238308855877    1.98479783749170
C         3.36144448601770   -1.91605171994473    1.51474458684354
C         3.65021003768776   -3.25556792117291    1.87247275381264
C         4.87851653124270   -4.01169002361073    1.47263821050420
C         5.03745095848905   -5.27736686251430    2.31483203803990
C         3.72097889581248   -6.04475700229502    2.39390343851214
C         2.65936403535898   -5.22277415658043    3.12652827712796
C         2.66059515443571   -3.82698986912631    2.60754381817244
S         1.35486075075762   -2.71939349748615    2.89793650932421
O         1.66411864391191    0.70442791826009    2.78214314206247
C         0.44140087366454   -0.73439563092217   -0.23722089081749
C         1.35008395138881   -1.19418551605570   -1.40763147271978
O         0.74310710660971   -1.14123909421266   -2.58977916795092
O         2.45649832718803   -1.61362892604501   -1.25959677731638
N        -0.71876874273761   -0.03649089942419   -0.77698733080577
C        -1.95143983256754   -0.27207648644777   -0.08029515606382
C        -2.61926226202443   -1.50816359872260   -0.46349165362601
C        -2.21047557366275   -2.63791214541764   -1.13182749605932
C        -3.23942346418049   -3.57945354756355   -1.30609130386991
C        -4.43107276893565   -3.15780365515911   -0.77686611158496
C        -5.71806289048561   -3.90119681217724   -0.85487216992919
C        -5.47244117853976   -5.36207046147148   -1.23829592385574
C        -4.47113377350680   -5.46125397117318   -2.38448302684960
C        -3.10441869007557   -4.91790850875927   -1.96629754010881
S        -4.30020343798746   -1.61171277280654   -0.02650338563501
O        -2.43688866779231    0.53226531596772    0.68660971078478
H        -1.78578398849487    1.35856641635677   -3.00134115174416
H        -3.53947434954395    2.90489284982350   -3.69640702799405
H        -4.93375528261260    4.90478306886189   -3.25418905615440
H        -5.53908347205222    6.77804419976587   -1.78174907532359
H        -4.37291801782190    7.09322953466653    0.36499169828993
H        -2.60105719429527    5.54198777909612    1.05728025623143
H        -1.23098369264300    3.56526939452111    0.61705916227057
H         0.42792085425514    1.42583842639587   -1.67648756482372
H        -0.09028036188008    1.81206628251710    1.31044045318055
H         0.99939949277148    3.73066603034537    2.00083912948469
H         2.11232391781172    5.76484937796856    2.80680720784112
H         3.94296967895960    7.39348865033849    2.63123779115716
H         5.66020739192460    7.15124465209708    0.88166876441223
H         5.56054389222661    5.27422375275478   -0.70181612555005
H         4.45106620741505    3.20197888337534   -1.48426876229020
H         2.65104360153881    1.56676593403759   -1.29218081174871
H         4.02197446480991   -1.29511196798158    0.93961497486586
H         4.79403520136887   -4.27594318092155    0.41463470838601
H         5.75855060351732   -3.37313633240221    1.57847443718446
H         5.80795672288729   -5.91260927353707    1.87443571143245
H         5.35752808424943   -5.00863850205590    3.32306589855080
H         3.37544659709773   -6.26827373623223    1.38290262087038
H         3.87081799957844   -6.99013091667453    2.91730878419266
H         1.67054590479688   -5.66968143089283    2.99620246714888
H         2.87058565535793   -5.21449553349629    4.20097715567729
H         0.15020329337987   -1.64340347876440    0.31239228981724
H        -0.14951882328325   -0.75073463483866   -2.47877206903178
H        -1.20862991908403   -2.79700889116741   -1.48809465532423
H        -6.24358144611617   -3.83945315806276    0.09978621472098
H        -6.35865410695919   -3.42434781373942   -1.60355858261106
H        -5.08898688750659   -5.90713725087203   -0.37484317977334
H        -6.41819597391936   -5.81907946217550   -1.53257262189848
H        -4.84413532327739   -4.89606086823530   -3.24050329860341
H        -4.36597191463061   -6.50413261697147   -2.68941014177909
H        -2.63755216155194   -5.61144977033285   -1.26022700481170
H        -2.44603305997516   -4.84323407826662   -2.83368505517475
86
 energy: -136.980256046397 gnorm: 0.018261201233 xtb: 6.3.3 (4ae9cef)
C        -2.05673098037206    2.16239405399877   -2.34762969562351
C        -3.04119783316438    3.01794579840587   -2.73690783553426
C        -3.41067232206368    4.11183818676163   -1.92475356518151
C        -4.41738771821033    5.02427244645418   -2.30070141206722
C        -4.74767965594351    6.07038684411150   -1.48753776606154
C        -4.08306024750880    6.25130389610828   -0.26233974152352
C        -3.09961037676609    5.38719730894233    0.12565409454416
C        -2.73498174225971    4.29571645607834   -0.69112462619188
C        -1.71368554654535    3.39548300142044   -0.31796061869920
C        -1.37450220245726    2.34540637927845   -1.12289793915493
C        -0.26377090860088    1.37878411760726   -0.82976592826628
C         0.54424700644885    1.55733752600305    0.45909882303525
C         1.65443265621404    2.56490641458104    0.35734583811037
C         1.71980456022515    3.62357590378453    1.22077351402686
C         2.76228358792453    4.56908010669849    1.14397392682600
C         2.85271726008216    5.65811674871630    2.03734654287782
C         3.87398201146102    6.55833010437821    1.93844139258772
C         4.85298143321653    6.41516880038605    0.93965312074612
C         4.79660149370500    5.36953955149759    0.06343133356824
C         3.75689058361956    4.41882748235655    0.14299836900231
C         3.67604430477703    3.30920180406291   -0.72573496239160
C         2.66117490520042    2.40502772479145   -0.61884038995351
N         1.07591286117104    0.20426519825686    0.66208692064178
C         1.61071612450478   -0.10209448522605    1.87872655597028
C         2.15150712554246   -1.48446690035171    1.97484740372281
C         3.34812297357118   -1.91933152420283    1.50540182064405
C         3.63310428265578   -3.26023222757033    1.86315961779227
C         4.86803010818855   -4.00752120738432    1.46830011191633
C         5.02918982629064   -5.26768695833389    2.31717263787475
C         3.71370950322676   -6.04038400909708    2.38926728878948
C         2.65195178505259   -5.22336919451733    3.12840189169540
C         2.64542926084689   -3.83135105755682    2.60054639338974
S         1.33508414758466   -2.72056644735795    2.88833220695410
O         1.70890934973321    0.72077957236526    2.76280840059199
C         0.43661869897917   -0.73449782875983   -0.24375728680931
C         1.35320695207024   -1.17921084379446   -1.41823504052355
O         0.74578243446207   -1.13267279378431   -2.59866146130387
O         2.48052914483181   -1.55042973142218   -1.26767605545214
N        -0.71857312593478   -0.03231542974770   -0.78062283170187
C        -1.96739022998964   -0.24508925725492   -0.10984214711207
C        -2.61364734315776   -1.49930790831937   -0.45620941669220
C        -2.20559578930006   -2.62519459639606   -1.12977047368090
C        -3.23391447608518   -3.56890316160001   -1.29666214456314
C        -4.42485007849710   -3.15226987231012   -0.76102035927472
C        -5.71005682736308   -3.89606434539455   -0.84564197686733
C        -5.45402945128557   -5.35574077980265   -1.22799625189603
C        -4.45999762478232   -5.44261087572269   -2.38332769901470
C        -3.09332056731379   -4.90286788706405   -1.96358154882539
S        -4.29434951306047   -1.60445383248622   -0.00865435107641
O        -2.48228422111610    0.58938652449469    0.60389037559780
H        -1.77715503578012    1.33036157427834   -2.97975266208151
H        -3.54924131096703    2.87852173875376   -3.68040087193557
H        -4.91970951590777    4.87744823761559   -3.24665362003816
H        -5.52054961772871    6.76683085788447   -1.77739022462863
H        -4.35952860519053    7.08505699884466    0.36588141162930
H        -2.58415517493260    5.52378397022079    1.06532003723288
H        -1.21041526236689    3.56516492740331    0.62049145018199
H         0.43860311361050    1.42677607408231   -1.67612712760918
H        -0.10769788130634    1.80300015111621    1.30591492299174
H         0.97858837530227    3.74133781148991    1.99842358195573
H         2.09821907939347    5.75798791356826    2.80423409547125
H         3.93988464629693    7.38825458476596    2.62643995656471
H         5.65130252127349    7.13996740568051    0.87730030148344
H         5.54834253818292    5.25057457079280   -0.70418230131275
H         4.44513636563122    3.18416415895910   -1.47510682475927
H         2.63526849299617    1.54445748511574   -1.27277571483710
H         4.00887370899206   -1.30404526905244    0.92337792903518
H         4.78936023380704   -4.27449573937910    0.41013229870618
H         5.74109955339691   -3.35998915864734    1.57715325393933
H         5.80881987613159   -5.90052520280257    1.88924592070521
H         5.33626387214030   -4.98914988154334    3.32756249968261
H         3.36865027751556   -6.25427634572992    1.37560792984753
H         3.86615199413010   -6.99070884157484    2.90369863969287
H         1.66415482899593   -5.67604476732527    3.01148206411763
H         2.87672723141369   -5.20869637121066    4.20068952080785
H         0.15313119668941   -1.65037019132170    0.29616507390494
H        -0.15707277764033   -0.76487060490819   -2.48194490402232
H        -1.20612237012671   -2.78069648623692   -1.49694762475072
H        -6.24542412114612   -3.83325636477349    0.10372942833214
H        -6.34351699097027   -3.42254376391864   -1.60357071808466
H        -5.05480853960506   -5.89406294344985   -0.36652264772162
H        -6.39698450779074   -5.82491191003563   -1.51267080648468
H        -4.83769225316394   -4.86233852789074   -3.22794152072543
H        -4.35712387193358   -6.48041025371178   -2.70547417847329
H        -2.62531489499568   -5.59822248853592   -1.25972726525279
H        -2.43374077415458   -4.81971414460511   -2.82946835902852
86
 energy: -136.980906350462 gnorm: 0.013054621253 xtb: 6.3.3 (4ae9cef)
C        -2.05549088015916    2.15326737483726   -2.34662563273105
C        -3.04681906749962    3.00488404846368   -2.73169921880182
C        -3.40694368706057    4.10143395496627   -1.91951518348675
C        -4.41495869137747    5.01180603848358   -2.29432906880415
C        -4.74055345773808    6.06260116877233   -1.48288012374823
C        -4.07464061206490    6.24588349459840   -0.25948525868023
C        -3.08906334867943    5.38187852942570    0.12742805226555
C        -2.72568976177596    4.29254887462022   -0.69186422681023
C        -1.69851154155939    3.39944725489103   -0.32284090214419
C        -1.36465534734299    2.34722314532349   -1.12936430351415
C        -0.25936187352358    1.38010247918798   -0.83129321997318