      -----------------------------------------------------------      
     |                   =====================                   |     
     |                           x T B                           |     
     |                   =====================                   |     
     |                         S. Grimme                         |     
     |          Mulliken Center for Theoretical Chemistry        |     
     |                    University of Bonn                     |     
      -----------------------------------------------------------      

   * xtb version 6.3.3 (4ae9cef) compiled by 'conda@95abc7406d43' on 2020-10-14

   xtb is free software: you can redistribute it and/or modify it under
   the terms of the GNU Lesser General Public License as published by
   the Free Software Foundation, either version 3 of the License, or
   (at your option) any later version.
   
   xtb is distributed in the hope that it will be useful,
   but WITHOUT ANY WARRANTY; without even the implied warranty of
   MERCHANTABILITY or FITNESS FOR A PARTICULAR PURPOSE.  See the
   GNU Lesser General Public License for more details.
   
   Cite this work as:
   * C. Bannwarth, E. Caldeweyher, S. Ehlert, A. Hansen, P. Pracht,
     J. Seibert, S. Spicher, S. Grimme, WIREs Comput. Mol. Sci., 2020,
     e01493. DOI: 10.1002/wcms.1493
   
   for GFN2-xTB:
   * S. Grimme, C. Bannwarth, P. Shushkov, J. Chem. Theory Comput., 2017,
     13, 1989-2009. DOI: 10.1021/acs.jctc.7b00118
   for GFN1-xTB:
   * C. Bannwarth, S. Ehlert and S. Grimme., J. Chem. Theory Comput., 2019,
     15, 1652-1671. DOI: 10.1021/acs.jctc.8b01176
   for GFN0-xTB:
   * P. Pracht, E. Caldeweyher, S. Ehlert, S. Grimme, ChemRxiv, 2019, preprint.
     DOI: 10.26434/chemrxiv.8326202.v1
   for GFN-FF:
   * S. Spicher and S. Grimme, Angew. Chem. Int. Ed., 2020, 59, 15665-15673.
     DOI: 10.1002/anie.202004239
   
   for DFT-D4:
   * E. Caldeweyher, C. Bannwarth and S. Grimme, J. Chem. Phys., 2017,
     147, 034112. DOI: 10.1063/1.4993215
   * E. Caldeweyher, S. Ehlert, A. Hansen, H. Neugebauer, S. Spicher,
     C. Bannwarth and S. Grimme, J. Chem. Phys., 2019, 150, 154122.
     DOI: 10.1063/1.5090222
   * E. Caldeweyher, J.-M. Mewes, S. Ehlert and S. Grimme, Phys. Chem. Chem. Phys.
     2020, 22, 8499-8512. DOI: 10.1039/D0CP00502A
   
   for sTDA-xTB:
   * S. Grimme and C. Bannwarth, J. Chem. Phys., 2016, 145, 054103.
     DOI: 10.1063/1.4959605
   
   in the mass-spec context:
   * V. Asgeirsson, C. Bauer and S. Grimme, Chem. Sci., 2017, 8, 4879.
     DOI: 10.1039/c7sc00601b
   * J. Koopman and S. Grimme, ACS Omega 2019, 4, 12, 15120-15133.
     DOI: 10.1021/acsomega.9b02011
   
   for metadynamics refer to:
   * S. Grimme, J. Chem. Theory Comput., 2019, 155, 2847-2862
     DOI: 10.1021/acs.jctc.9b00143
   
   with help from (in alphabetical order)
   C. Bannwarth, F. Bohle, G. Brandenburg, E. Caldeweyher, M. Checinski,
   S. Dohm, S. Ehlert, S. Ehrlich, F. März, H. Neugebauer, J. Pisarek,
   P. Pracht, P. Shushkov, and S. Spicher.
   
 * started run on 2022/03/17 at 02:19:44.998     

           -------------------------------------------------
          |                Calculation Setup                |
           -------------------------------------------------

          program call               : xtb alk_7.xyz --opt --chrg 0 --uhf 0 --gfn 2
          coordinate file            : alk_7.xyz
          omp threads                :                    64
          number of atoms            :                    24
          number of electrons        :                    64
          charge                     :                     0
          spin                       :                   0.0
          first test random number   :      0.54650882566196

   ID    Z sym.   atoms
    1    6 C      1, 3-11
    2    8 O      2, 12
    3    1 H      13-24

           -------------------------------------------------
          |                 G F N 2 - x T B                 |
           -------------------------------------------------

        Reference                      10.1021/acs.jctc.8b01176
      * Hamiltonian:
        H0-scaling (s, p, d)           1.850000    2.230000    2.230000
        zeta-weighting                 0.500000
      * Dispersion:
        s8                             2.700000
        a1                             0.520000
        a2                             5.000000
        s9                             5.000000
      * Repulsion:
        kExp                           1.500000    1.000000
        rExp                           1.000000
      * Coulomb:
        alpha                          2.000000
        third order                    shell-resolved
        anisotropic                    true
        a3                             3.000000
        a5                             4.000000
        cn-shift                       1.200000
        cn-exp                         4.000000
        max-rad                        5.000000


          ...................................................
          :                      SETUP                      :
          :.................................................:
          :  # basis functions                  60          :
          :  # atomic orbitals                  60          :
          :  # shells                           36          :
          :  # electrons                        64          :
          :  max. iterations                   250          :
          :  Hamiltonian                  GFN2-xTB          :
          :  restarted?                      false          :
          :  GBSA solvation                  false          :
          :  PC potential                    false          :
          :  electronic temp.          300.0000000     K    :
          :  accuracy                    1.0000000          :
          :  -> integral cutoff          0.2500000E+02      :
          :  -> integral neglect         0.1000000E-07      :
          :  -> SCF convergence          0.1000000E-05 Eh   :
          :  -> wf. convergence          0.1000000E-03 e    :
          :  Broyden damping             0.4000000          :
          ...................................................

 iter      E             dE          RMSdq      gap      omega  full diag
   1    -36.0771341 -0.360771E+02  0.404E+00    3.86       0.0  T
   2    -36.1089306 -0.317964E-01  0.229E+00    3.89       1.0  T
   3    -36.1018780  0.705260E-02  0.942E-01    3.80       1.0  T
   4    -36.1095487 -0.767070E-02  0.446E-01    3.92       1.0  T
   5    -36.1123910 -0.284234E-02  0.109E-01    3.92       1.0  T
   6    -36.1125063 -0.115323E-03  0.609E-02    3.90       1.0  T
   7    -36.1125352 -0.288414E-04  0.206E-02    3.90       1.0  T
   8    -36.1125368 -0.167207E-05  0.751E-03    3.90       2.7  T
   9    -36.1125376 -0.731600E-06  0.268E-03    3.90       7.6  T
  10    -36.1125376 -0.408148E-07  0.922E-04    3.90      22.1  T
  11    -36.1125376 -0.110235E-08  0.446E-04    3.90      45.8  T

   *** convergence criteria satisfied after 11 iterations ***

         #    Occupation            Energy/Eh            Energy/eV
      -------------------------------------------------------------
         1        2.0000           -0.7055654             -19.1994
       ...           ...                  ...                  ...
        26        2.0000           -0.4421107             -12.0304
        27        2.0000           -0.4346743             -11.8281
        28        2.0000           -0.4280614             -11.6481
        29        2.0000           -0.4250563             -11.5664
        30        2.0000           -0.3985507             -10.8451
        31        2.0000           -0.3894917             -10.5986
        32        2.0000           -0.3630218              -9.8783 (HOMO)
        33                         -0.2195806              -5.9751 (LUMO)
        34                         -0.2147875              -5.8447
        35                         -0.2018516              -5.4927
        36                         -0.0909414              -2.4746
        37                          0.0199169               0.5420
       ...                                ...                  ...
        60                          0.6358010              17.3010
      -------------------------------------------------------------
                  HL-Gap            0.1434412 Eh            3.9032 eV
             Fermi-level           -0.2913012 Eh           -7.9267 eV

 SCC (total)                   0 d,  0 h,  0 min,  0.224 sec
 SCC setup                      ...        0 min,  0.024 sec ( 10.649%)
 Dispersion                     ...        0 min,  0.017 sec (  7.588%)
 classical contributions        ...        0 min,  0.012 sec (  5.333%)
 integral evaluation            ...        0 min,  0.028 sec ( 12.677%)
 iterations                     ...        0 min,  0.016 sec (  7.074%)
 molecular gradient             ...        0 min,  0.127 sec ( 56.553%)
 printout                       ...        0 min,  0.000 sec (  0.092%)

         :::::::::::::::::::::::::::::::::::::::::::::::::::::
         ::                     SUMMARY                     ::
         :::::::::::::::::::::::::::::::::::::::::::::::::::::
         :: total energy             -35.618807000025 Eh    ::
         :: gradient norm              0.047536511119 Eh/a0 ::
         :: HOMO-LUMO gap              3.903232477828 eV    ::
         ::.................................................::
         :: SCC energy               -36.112537616175 Eh    ::
         :: -> isotropic ES            0.036826300324 Eh    ::
         :: -> anisotropic ES          0.007318630868 Eh    ::
         :: -> anisotropic XC          0.013243532856 Eh    ::
         :: -> dispersion             -0.019617221838 Eh    ::
         :: repulsion energy           0.493705104090 Eh    ::
         :: add. restraining           0.000000000000 Eh    ::
         :: total charge               0.000000000000 e     ::
         :::::::::::::::::::::::::::::::::::::::::::::::::::::

      ----------------------------------------------------------- 
     |                   =====================                   |
     |                        A N C O P T                        |
     |                   =====================                   |
     |               Approximate Normal Coordinate               |
     |                Rational Function Optimizer                |
      ----------------------------------------------------------- 

          ...................................................
          :                      SETUP                      :
          :.................................................:
          :   optimization level            normal          :
          :   max. optcycles                   200          :
          :   ANC micro-cycles                  20          :
          :   degrees of freedom                66          :
          :.................................................:
          :   RF solver                   davidson          :
          :   write xtbopt.log                true          :
          :   linear?                        false          :
          :   energy convergence         0.5000000E-05 Eh   :
          :   grad. convergence          0.1000000E-02 Eh/α :
          :   maximium RF displ.         1.0000000          :
          :   Hlow (freq-cutoff)         0.1000000E-01      :
          :   Hmax (freq-cutoff)         5.0000000          :
          :   S6 in model hess.         20.0000000          :
          ...................................................

generating ANC from model Hessian ...
Using Lindh-Hessian (1995)
 Shifting diagonal of input Hessian by    9.2707714604788622E-003
 Lowest  eigenvalues of input Hessian
    0.000000    0.000000    0.000000    0.000000    0.000000    0.000000
    0.010000    0.010795    0.012004    0.013159    0.014340    0.016205
    0.018524    0.019701    0.024448    0.025819    0.027267    0.032459
 Highest eigenvalues
    1.630665    1.751665    1.856513    1.859946    2.005512    2.090916


........................................................................
.............................. CYCLE    1 ..............................
........................................................................
   1    -36.1125376 -0.361125E+02  0.155E-04    3.90       0.0  T
   2    -36.1125376 -0.373390E-10  0.100E-04    3.90     204.0  T
   3    -36.1125376  0.242366E-10  0.636E-05    3.90     320.9  T
     SCC iter.                  ...        0 min,  0.008 sec
     gradient                   ...        0 min,  0.121 sec
 * total energy  :   -35.6188070 Eh     change       -0.3120597E-08 Eh
   gradient norm :     0.0475382 Eh/α   predicted     0.0000000E+00 (-100.00%)
   displ. norm   :     0.1717386 α      lambda       -0.4236075E-02
   maximum displ.:     0.0679480 α      in ANC's #20, #12, #13, ...

........................................................................
.............................. CYCLE    2 ..............................
........................................................................
   1    -36.1388029 -0.361388E+02  0.145E-01    3.98       0.0  T
   2    -36.1388091 -0.621296E-05  0.865E-02    3.99       1.0  T
   3    -36.1387954  0.137349E-04  0.285E-02    3.98       1.0  T
   4    -36.1388111 -0.157067E-04  0.566E-03    3.99       3.6  T
   5    -36.1388116 -0.504040E-06  0.251E-03    3.99       8.1  T
   6    -36.1388116 -0.440516E-07  0.108E-03    3.99      18.8  T
   7    -36.1388116 -0.433162E-08  0.347E-04    3.99      58.8  T
   8    -36.1388116 -0.370278E-09  0.103E-04    3.99     198.4  T
     SCC iter.                  ...        0 min,  0.010 sec
     gradient                   ...        0 min,  0.146 sec
 * total energy  :   -35.6214867 Eh     change       -0.2679715E-02 Eh
   gradient norm :     0.0159482 Eh/α   predicted    -0.2180516E-02 ( -18.63%)
   displ. norm   :     0.1131788 α      lambda       -0.6358183E-03
   maximum displ.:     0.0403268 α      in ANC's #20, #2, #12, ...

........................................................................
.............................. CYCLE    3 ..............................
........................................................................
   1    -36.1471904 -0.361472E+02  0.829E-02    4.01       0.0  T
   2    -36.1471947 -0.431192E-05  0.489E-02    4.02       1.0  T
   3    -36.1471912  0.354481E-05  0.159E-02    4.02       1.3  T
   4    -36.1471956 -0.448070E-05  0.270E-03    4.02       7.6  T
   5    -36.1471958 -0.116051E-06  0.136E-03    4.02      15.0  T
   6    -36.1471958 -0.179414E-07  0.652E-04    4.02      31.3  T
   7    -36.1471958 -0.199486E-08  0.305E-04    4.02      67.0  T
     SCC iter.                  ...        0 min,  0.009 sec
     gradient                   ...        0 min,  0.119 sec
 * total energy  :   -35.6218403 Eh     change       -0.3535509E-03 Eh
   gradient norm :     0.0053784 Eh/α   predicted    -0.3219840E-03 (  -8.93%)
   displ. norm   :     0.0727935 α      lambda       -0.1264029E-03
   maximum displ.:     0.0294176 α      in ANC's #2, #4, #1, ...

........................................................................
.............................. CYCLE    4 ..............................
........................................................................
   1    -36.1475416 -0.361475E+02  0.454E-02    4.02       0.0  T
   2    -36.1475429 -0.132122E-05  0.272E-02    4.02       1.0  T
   3    -36.1475410  0.183530E-05  0.101E-02    4.02       2.0  T
   4    -36.1475433 -0.229714E-05  0.127E-03    4.02      16.1  T
   5    -36.1475434 -0.262830E-07  0.564E-04    4.02      36.2  T
   6    -36.1475434 -0.171845E-08  0.295E-04    4.02      69.1  T
     SCC iter.                  ...        0 min,  0.006 sec
     gradient                   ...        0 min,  0.145 sec
 * total energy  :   -35.6219042 Eh     change       -0.6396670E-04 Eh
   gradient norm :     0.0027943 Eh/α   predicted    -0.6353934E-04 (  -0.67%)
   displ. norm   :     0.0726528 α      lambda        0.1218146E-03
   maximum displ.:     0.0294263 α      in ANC's #2, #4, #1, ...

........................................................................
.............................. CYCLE    5 ..............................
........................................................................
   1    -36.1476310 -0.361476E+02  0.455E-02    4.02       0.0  T
   2    -36.1476323 -0.131099E-05  0.273E-02    4.03       1.0  T
   3    -36.1476305  0.181787E-05  0.102E-02    4.02       2.0  T
   4    -36.1476328 -0.227596E-05  0.131E-03    4.03      15.6  T
   5    -36.1476328 -0.258728E-07  0.593E-04    4.03      34.4  T
   6    -36.1476328 -0.191852E-08  0.329E-04    4.03      62.0  T
     SCC iter.                  ...        0 min,  0.006 sec
     gradient                   ...        0 min,  0.142 sec
 * total energy  :   -35.6218428 Eh     change        0.6145698E-04 Eh
   gradient norm :     0.0062364 Eh/α   predicted     0.6122798E-04 (  -0.37%)
   displ. norm   :     0.0442807 α      lambda       -0.1862324E-03
   maximum displ.:     0.0260837 α      in ANC's #15, #16, #19, ...

........................................................................
.............................. CYCLE    6 ..............................
........................................................................
   1    -36.1463513 -0.361464E+02  0.450E-02    4.02       0.0  T
   2    -36.1463517 -0.359032E-06  0.270E-02    4.02       1.0  T
   3    -36.1463513  0.417423E-06  0.508E-03    4.02       4.0  T
   4    -36.1463518 -0.513951E-06  0.117E-03    4.02      17.4  T
   5    -36.1463518 -0.163544E-07  0.593E-04    4.02      34.4  T
   6    -36.1463518 -0.261070E-08  0.268E-04    4.02      76.0  T
     SCC iter.                  ...        0 min,  0.008 sec
     gradient                   ...        0 min,  0.108 sec
 * total energy  :   -35.6219440 Eh     change       -0.1012106E-03 Eh
   gradient norm :     0.0019361 Eh/α   predicted    -0.9330158E-04 (  -7.81%)
   displ. norm   :     0.0508876 α      lambda       -0.1612081E-04
   maximum displ.:     0.0329314 α      in ANC's #2, #1, #4, ...

........................................................................
.............................. CYCLE    7 ..............................
........................................................................
   1    -36.1457721 -0.361458E+02  0.232E-02    4.02       0.0  T
   2    -36.1457722 -0.997995E-07  0.137E-02    4.02       1.5  T
   3    -36.1457721  0.999825E-07  0.261E-03    4.02       7.8  T
   4    -36.1457722 -0.126076E-06  0.542E-04    4.02      37.7  T
   5    -36.1457722 -0.216272E-08  0.289E-04    4.02      70.6  T
     SCC iter.                  ...        0 min,  0.005 sec
     gradient                   ...        0 min,  0.136 sec
 * total energy  :   -35.6219612 Eh     change       -0.1718653E-04 Eh
   gradient norm :     0.0007280 Eh/α   predicted    -0.8071938E-05 ( -53.03%)
   displ. norm   :     0.0737021 α      lambda       -0.1214654E-04
   maximum displ.:     0.0470564 α      in ANC's #2, #1, #4, ...

........................................................................
.............................. CYCLE    8 ..............................
........................................................................
   1    -36.1459698 -0.361460E+02  0.304E-02    4.02       0.0  T
   2    -36.1459699 -0.622803E-07  0.180E-02    4.02       1.1  T
   3    -36.1459695  0.357889E-06  0.434E-03    4.02       4.7  T
   4    -36.1459699 -0.409681E-06  0.649E-04    4.02      31.5  T
   5    -36.1459699 -0.193070E-08  0.406E-04    4.02      50.3  T
     SCC iter.                  ...        0 min,  0.007 sec
     gradient                   ...        0 min,  0.141 sec
 * total energy  :   -35.6219745 Eh     change       -0.1328667E-04 Eh
   gradient norm :     0.0005987 Eh/α   predicted    -0.6089343E-05 ( -54.17%)
   displ. norm   :     0.0607075 α      lambda       -0.6696572E-05
   maximum displ.:     0.0406873 α      in ANC's #2, #1, #4, ...

........................................................................
.............................. CYCLE    9 ..............................
........................................................................
   1    -36.1462188 -0.361462E+02  0.256E-02    4.02       0.0  T
   2    -36.1462188 -0.391076E-07  0.151E-02    4.02       1.3  T
   3    -36.1462186  0.248140E-06  0.328E-03    4.02       6.2  T
   4    -36.1462188 -0.280970E-06  0.495E-04    4.02      41.2  T
   5    -36.1462188 -0.907193E-09  0.291E-04    4.02      70.2  T
     SCC iter.                  ...        0 min,  0.012 sec
     gradient                   ...        0 min,  0.140 sec
 * total energy  :   -35.6219823 Eh     change       -0.7816701E-05 Eh
   gradient norm :     0.0006591 Eh/α   predicted    -0.3354930E-05 ( -57.08%)
   displ. norm   :     0.0616439 α      lambda       -0.2399826E-05
   maximum displ.:     0.0406881 α      in ANC's #2, #1, #4, ...

........................................................................
.............................. CYCLE   10 ..............................
........................................................................
   1    -36.1464201 -0.361464E+02  0.258E-02    4.02       0.0  T
   2    -36.1464202 -0.420784E-07  0.153E-02    4.02       1.3  T
   3    -36.1464199  0.264532E-06  0.332E-03    4.02       6.1  T
   4    -36.1464202 -0.299387E-06  0.507E-04    4.02      40.3  T
   5    -36.1464202 -0.109557E-08  0.298E-04    4.02      68.5  T
     SCC iter.                  ...        0 min,  0.005 sec
     gradient                   ...        0 min,  0.137 sec
 * total energy  :   -35.6219856 Eh     change       -0.3320136E-05 Eh
   gradient norm :     0.0010145 Eh/α   predicted    -0.1206574E-05 ( -63.66%)
   displ. norm   :     0.0607366 α      lambda        0.2632349E-05
   maximum displ.:     0.0406874 α      in ANC's #2, #1, #4, ...

........................................................................
.............................. CYCLE   11 ..............................
........................................................................
   1    -36.1465790 -0.361466E+02  0.256E-02    4.02       0.0  T
   2    -36.1465791 -0.439849E-07  0.151E-02    4.02       1.3  T
   3    -36.1465788  0.269262E-06  0.332E-03    4.02       6.2  T
   4    -36.1465791 -0.304840E-06  0.515E-04    4.02      39.6  T
   5    -36.1465791 -0.124026E-08  0.302E-04    4.02      67.6  T
     SCC iter.                  ...        0 min,  0.005 sec
     gradient                   ...        0 min,  0.125 sec
 * total energy  :   -35.6219843 Eh     change        0.1339173E-05 Eh
   gradient norm :     0.0014720 Eh/α   predicted     0.1313978E-05 (  -1.88%)
   displ. norm   :     0.0261803 α      lambda       -0.5586078E-05
   maximum displ.:     0.0131410 α      in ANC's #4, #1, #6, ...

........................................................................
.............................. CYCLE   12 ..............................
........................................................................
   1    -36.1464187 -0.361464E+02  0.157E-02    4.01       0.0  T
   2    -36.1464187 -0.412607E-07  0.937E-03    4.02       2.2  T
   3    -36.1464185  0.163877E-06  0.267E-03    4.02       7.7  T
   4    -36.1464187 -0.185401E-06  0.452E-04    4.02      45.1  T
   5    -36.1464187 -0.240976E-08  0.205E-04    4.02      99.3  T
     SCC iter.                  ...        0 min,  0.009 sec
     gradient                   ...        0 min,  0.146 sec
 * total energy  :   -35.6219898 Eh     change       -0.5507973E-05 Eh
   gradient norm :     0.0006674 Eh/α   predicted    -0.2797916E-05 ( -49.20%)
   displ. norm   :     0.0305565 α      lambda       -0.4256939E-05
   maximum displ.:     0.0176937 α      in ANC's #4, #6, #5, ...

........................................................................
.............................. CYCLE   13 ..............................
........................................................................
   1    -36.1462481 -0.361462E+02  0.183E-02    4.01       0.0  T
   2    -36.1462481 -0.401816E-07  0.109E-02    4.02       1.9  T
   3    -36.1462479  0.206255E-06  0.318E-03    4.02       6.4  T
   4    -36.1462482 -0.232318E-06  0.473E-04    4.02      43.1  T
   5    -36.1462482 -0.226832E-08  0.248E-04    4.02      82.2  T
     SCC iter.                  ...        0 min,  0.007 sec
     gradient                   ...        0 min,  0.125 sec
 * total energy  :   -35.6219943 Eh     change       -0.4566740E-05 Eh
   gradient norm :     0.0003705 Eh/α   predicted    -0.2131347E-05 ( -53.33%)
   displ. norm   :     0.0630357 α      lambda       -0.4639172E-05
   maximum displ.:     0.0382351 α      in ANC's #2, #1, #6, ...

   *** GEOMETRY OPTIMIZATION CONVERGED AFTER 13 ITERATIONS ***

------------------------------------------------------------------------
 total energy gain   :        -0.0031873 Eh       -2.0001 kcal/mol
 total RMSD          :         0.1144387 a0        0.0606 Å
 total power (kW/mol):        -0.6437190 (step)   -2.7119 (real)
------------------------------------------------------------------------

 ANCopt (total)                0 d,  0 h,  0 min,  3.086 sec
 optimizer setup                ...        0 min,  0.000 sec (  0.003%)
 model hessian                  ...        0 min,  0.003 sec (  0.113%)
 ANC generation                 ...        0 min,  0.005 sec (  0.159%)
 coordinate transformation      ...        0 min,  0.000 sec (  0.005%)
 single point calculation       ...        0 min,  2.903 sec ( 94.065%)
 optimization log               ...        0 min,  0.001 sec (  0.030%)
 hessian update                 ...        0 min,  0.167 sec (  5.400%)
 rational function              ...        0 min,  0.006 sec (  0.188%)

================
 final structure:
================
24
 xtb: 6.3.3 (4ae9cef)
C        -4.00999931385580    0.28372957237929    1.08649484884746
O        -3.18990659488823   -0.40892752588735    0.18182712584336
C        -1.87600687602688   -0.05627827354948    0.10196955996421
C        -1.25963105945514    0.92609198486431    0.85892431776985
C         0.08944363760637    1.20891952893518    0.69501250152554
C         0.85150784658928    0.52157102305630   -0.23029229156931
C         2.32368051687122    0.79025540964017   -0.39983652428700
C         3.11798183851556   -0.27839530275986    0.29068354705266
C         3.99460712642564   -1.06319787444474   -0.30584179717457
C         0.23785556973434   -0.47147433926824   -0.98787869388619
C        -1.10330106328038   -0.76676589783293   -0.83732065628213
O        -1.72104229083983   -1.73191141026641   -1.57279140487097
H        -4.04853355967355    1.35471494246168    0.85879113124883
H        -5.00439338592070   -0.14414036184364    0.96875259126146
H        -3.67826443284387    0.14550484741301    2.12151075815732
H        -1.82317350019940    1.48550109151234    1.58848857435270
H         0.54073854178059    1.98150609469568    1.29995064398493
H         2.58398287558743    0.81512700804021   -1.45987980898939
H         2.56799679259098    1.75989130822113    0.04145092470708
H         2.91030983152692   -0.38927903536074    1.34693953499102
H         4.53822185952639   -1.82330491676060    0.22908272774209
H         4.21510559314056   -0.97272705616524   -1.35739497320337
H         0.82186341977649   -1.02689854491709   -1.71084561923966
H        -1.07904237268812   -2.13951327216280   -2.16670401794599

 Bond Distances (Angstroems)
 ---------------------------
C1-O2=1.4038         C1-H13=1.0956        C1-H14=1.0889        C1-H15=1.0956        O2-C1=1.4038         O2-C3=1.3627         
C3-O2=1.3627         C3-C4=1.3849         C3-C11=1.4086        C4-C3=1.3849         C4-C5=1.3881         C4-H16=1.0783        
C5-C4=1.3881         C5-C6=1.3818         C5-H17=1.0800        C6-C5=1.3818         C6-C7=1.5061         C6-C10=1.3916        
C7-C6=1.5061         C7-C8=1.4999         C7-H18=1.0918        C7-H19=1.0930        C8-C7=1.4999         C8-C9=1.3192         
C8-H20=1.0822        C9-C8=1.3192         C9-H21=1.0768        C9-H22=1.0782        C10-C6=1.3916        C10-C11=1.3815       
C10-H23=1.0827       C11-C3=1.4086        C11-C10=1.3815       C11-O12=1.3616       O12-C11=1.3616       O12-H24=0.9649       
H13-C1=1.0956        H14-C1=1.0889        H15-C1=1.0956        H16-C4=1.0783        H17-C5=1.0800        H18-C7=1.0918        
H19-C7=1.0930        H20-C8=1.0822        H21-C9=1.0768        H22-C9=1.0782        H23-C10=1.0827       H24-O12=0.9649       
 C  H  Rav=1.0857 sigma=0.0070  Rmin=1.0768  Rmax=1.0956    11
 C  C  Rav=1.4069 sigma=0.0563  Rmin=1.3192  Rmax=1.5061     9
 O  H  Rav=0.9649 sigma=0.0000  Rmin=0.9649  Rmax=0.9649     1
 O  C  Rav=1.3761 sigma=0.0196  Rmin=1.3616  Rmax=1.4038     3

 selected bond angles (degree)
 --------------------
H13-C1-O2=111.65               H14-C1-O2=105.66               H14-C1-H13=109.24              H15-C1-O2=111.69               
H15-C1-H13=109.29              H15-C1-H14=109.21              C3-O2-C1=118.25                C4-C3-O2=125.50                
C11-C3-O2=115.94               C11-C3-C4=118.56               C5-C4-C3=120.83                H16-C4-C3=120.34               
H16-C4-C5=118.82               C6-C5-C4=120.91                H17-C5-C4=119.06               H17-C5-C6=120.03               
C7-C6-C5=121.72                C10-C6-C5=118.44               C10-C6-C7=119.81               C8-C7-C6=109.80                
H18-C7-C6=110.27               H18-C7-C8=109.69               H19-C7-C6=109.35               H19-C7-C8=109.14               
H19-C7-H18=108.57              C9-C8-C7=124.58                H20-C8-C7=114.88               H20-C8-C9=120.53               
H21-C9-C8=122.06               H22-C9-C8=121.80               H22-C9-H21=116.13              C11-C10-C6=121.42              
H23-C10-C6=119.45              H23-C10-C11=119.13             

 selected dihedral angles (degree)
 ---------------------------------
C3-O2-C1-H13= 60.28           C3-O2-C1-H14=178.93           C3-O2-C1-H15=297.57           C4-C3-O2-C1=  1.06            
C11-C3-O2-C1=181.05           C5-C4-C3-O2=180.16            C5-C4-C3-C11=  0.17           H16-C4-C3-O2=  0.18           
H16-C4-C3-C11=180.19          C6-C5-C4-C3=  0.23            C6-C5-C4-H16=180.21           H17-C5-C4-C3=179.95           
H17-C5-C4-H16=359.93          C7-C6-C5-C4=181.51            C7-C6-C5-H17=  1.79           C10-C6-C5-C4=359.43           
C10-C6-C5-H17=179.71          C8-C7-C6-C5=101.54            C8-C7-C6-C10=283.65           H18-C7-C6-C5=222.52           
H18-C7-C6-C10= 44.62          H19-C7-C6-C5=341.82           H19-C7-C6-C10=163.93          C9-C8-C7-C6=121.27            
C9-C8-C7-H18=359.95           C9-C8-C7-H19=241.11           H20-C8-C7-C6=302.47           H20-C8-C7-H18=181.15          
H20-C8-C7-H19= 62.31          H21-C9-C8-C7=180.44           H21-C9-C8-H20=359.18          H22-C9-C8-C7=  1.08           
H22-C9-C8-H20=179.81          C11-C10-C6-C5=  0.53          C11-C10-C6-C7=178.49          H23-C10-C6-C5=180.59          
H23-C10-C6-C7=358.55          
           -------------------------------------------------
          |                Final Singlepoint                |
           -------------------------------------------------

          ...................................................
          :                      SETUP                      :
          :.................................................:
          :  # basis functions                  60          :
          :  # atomic orbitals                  60          :
          :  # shells                           36          :
          :  # electrons                        64          :
          :  max. iterations                   250          :
          :  Hamiltonian                  GFN2-xTB          :
          :  restarted?                      false          :
          :  GBSA solvation                  false          :
          :  PC potential                    false          :
          :  electronic temp.          300.0000000     K    :
          :  accuracy                    1.0000000          :
          :  -> integral cutoff          0.2500000E+02      :
          :  -> integral neglect         0.1000000E-07      :
          :  -> SCF convergence          0.1000000E-05 Eh   :
          :  -> wf. convergence          0.1000000E-03 e    :
          :  Broyden damping             0.4000000          :
          ...................................................

 iter      E             dE          RMSdq      gap      omega  full diag
   1    -36.1462482 -0.361462E+02  0.111E-04    4.02       0.0  T
   2    -36.1462482 -0.285638E-10  0.720E-05    4.02     283.6  T
   3    -36.1462482 -0.198312E-10  0.473E-05    4.02     431.6  T

   *** convergence criteria satisfied after 3 iterations ***

         #    Occupation            Energy/Eh            Energy/eV
      -------------------------------------------------------------
         1        2.0000           -0.7081260             -19.2691
       ...           ...                  ...                  ...
        26        2.0000           -0.4421397             -12.0312
        27        2.0000           -0.4350704             -11.8389
        28        2.0000           -0.4274800             -11.6323
        29        2.0000           -0.4238416             -11.5333
        30        2.0000           -0.4008824             -10.9086
        31        2.0000           -0.3900264             -10.6132
        32        2.0000           -0.3623953              -9.8613 (HOMO)
        33                         -0.2148280              -5.8458 (LUMO)
        34                         -0.2117236              -5.7613
        35                         -0.1957331              -5.3262
        36                         -0.0840064              -2.2859
        37                          0.0372955               1.0149
       ...                                ...                  ...
        60                          0.6734942              18.3267
      -------------------------------------------------------------
                  HL-Gap            0.1475674 Eh            4.0155 eV
             Fermi-level           -0.2886117 Eh           -7.8535 eV

 SCC (total)                   0 d,  0 h,  0 min,  0.170 sec
 SCC setup                      ...        0 min,  0.011 sec (  6.526%)
 Dispersion                     ...        0 min,  0.022 sec ( 12.860%)
 classical contributions        ...        0 min,  0.016 sec (  9.602%)
 integral evaluation            ...        0 min,  0.036 sec ( 21.251%)
 iterations                     ...        0 min,  0.004 sec (  2.126%)
 molecular gradient             ...        0 min,  0.081 sec ( 47.523%)
 printout                       ...        0 min,  0.000 sec (  0.074%)

         :::::::::::::::::::::::::::::::::::::::::::::::::::::
         ::                     SUMMARY                     ::
         :::::::::::::::::::::::::::::::::::::::::::::::::::::
         :: total energy             -35.621994335379 Eh    ::
         :: gradient norm              0.000369165142 Eh/a0 ::
         :: HOMO-LUMO gap              4.015512696533 eV    ::
         ::.................................................::
         :: SCC energy               -36.146248156810 Eh    ::
         :: -> isotropic ES            0.036116771905 Eh    ::
         :: -> anisotropic ES          0.007000056103 Eh    ::
         :: -> anisotropic XC          0.012222207966 Eh    ::
         :: -> dispersion             -0.019843205891 Eh    ::
         :: repulsion energy           0.524222919538 Eh    ::
         :: add. restraining           0.000000000000 Eh    ::
         :: total charge               0.000000000000 e     ::
         :::::::::::::::::::::::::::::::::::::::::::::::::::::

           -------------------------------------------------
          |                Property Printout                |
           -------------------------------------------------

    * Orbital Energies and Occupations

         #    Occupation            Energy/Eh            Energy/eV
      -------------------------------------------------------------
         1        2.0000           -0.7081260             -19.2691
       ...           ...                  ...                  ...
        20        2.0000           -0.4896438             -13.3239
        21        2.0000           -0.4866522             -13.2425
        22        2.0000           -0.4765152             -12.9666
        23        2.0000           -0.4640717             -12.6280
        24        2.0000           -0.4602208             -12.5232
        25        2.0000           -0.4501740             -12.2499
        26        2.0000           -0.4421397             -12.0312
        27        2.0000           -0.4350704             -11.8389
        28        2.0000           -0.4274800             -11.6323
        29        2.0000           -0.4238416             -11.5333
        30        2.0000           -0.4008824             -10.9086
        31        2.0000           -0.3900264             -10.6132
        32        2.0000           -0.3623953              -9.8613 (HOMO)
        33                         -0.2148280              -5.8458 (LUMO)
        34                         -0.2117236              -5.7613
        35                         -0.1957331              -5.3262
        36                         -0.0840064              -2.2859
        37                          0.0372955               1.0149
        38                          0.0691616               1.8820
        39                          0.1056279               2.8743
        40                          0.1191996               3.2436
        41                          0.1248681               3.3978
        42                          0.1267830               3.4499
        43                          0.1420800               3.8662
       ...                                ...                  ...
        60                          0.6734942              18.3267
      -------------------------------------------------------------
                  HL-Gap            0.1475674 Eh            4.0155 eV
             Fermi-level           -0.2886117 Eh           -7.8535 eV

     #   Z          covCN         q      C6AA      α(0)
     1   6 C        3.646     0.037    20.273     6.471
     2   8 O        1.705    -0.254    18.208     5.761
     3   6 C        2.865     0.122    25.325     8.249
     4   6 C        2.918    -0.073    29.817     8.954
     5   6 C        2.924    -0.053    29.324     8.880
     6   6 C        2.972     0.005    27.907     8.665
     7   6 C        3.812    -0.063    21.693     6.629
     8   6 C        2.890    -0.022    28.558     8.761
     9   6 C        2.837    -0.095    30.390     9.034
    10   6 C        2.924    -0.082    30.048     8.989
    11   6 C        2.844     0.124    25.271     8.239
    12   8 O        1.659    -0.381    20.489     6.111
    13   1 H        0.924     0.038     2.470     2.458
    14   1 H        0.925     0.063     2.170     2.303
    15   1 H        0.924     0.038     2.471     2.458
    16   1 H        0.926     0.039     2.467     2.456
    17   1 H        0.926     0.034     2.533     2.489
    18   1 H        0.924     0.044     2.392     2.418
    19   1 H        0.924     0.046     2.371     2.408
    20   1 H        0.925     0.032     2.554     2.499
    21   1 H        0.926     0.034     2.527     2.486
    22   1 H        0.926     0.035     2.519     2.482
    23   1 H        0.925     0.032     2.560     2.502
    24   1 H        0.805     0.300     0.721     1.333

 Mol. C6AA /au·bohr⁶  :       6152.688426
 Mol. C8AA /au·bohr⁸  :     144241.990881
 Mol. α(0) /au        :        123.037310


Wiberg/Mayer (AO) data.
largest (>0.10) Wiberg bond orders for each atom

 ---------------------------------------------------------------------------
     #   Z sym  total        # sym  WBO       # sym  WBO       # sym  WBO
 ---------------------------------------------------------------------------
     1   6 C    3.948 --     2 O    0.989    14 H    0.979    13 H    0.976
                            15 H    0.976
     2   8 O    2.237 --     3 C    1.061     1 C    0.989
     3   6 C    3.936 --     4 C    1.404    11 C    1.272     2 O    1.061
     4   6 C    3.986 --     5 C    1.410     3 C    1.404    16 H    0.966
     5   6 C    3.989 --     6 C    1.433     4 C    1.410    17 H    0.969
     6   6 C    3.988 --     5 C    1.433    10 C    1.380     7 C    0.996
     7   6 C    3.997 --     8 C    1.010     6 C    0.996    18 H    0.968
                            19 H    0.959
     8   6 C    3.989 --     9 C    1.977     7 C    1.010    20 H    0.967
     9   6 C    3.989 --     8 C    1.977    21 H    0.976    22 H    0.975
    10   6 C    3.983 --    11 C    1.418     6 C    1.380    23 H    0.964
    11   6 C    3.941 --    10 C    1.418     3 C    1.272    12 O    1.072
    12   8 O    2.125 --    11 C    1.072    24 H    0.889
    13   1 H    0.998 --     1 C    0.976
    14   1 H    0.996 --     1 C    0.979
    15   1 H    0.998 --     1 C    0.976
    16   1 H    0.998 --     4 C    0.966
    17   1 H    0.999 --     5 C    0.969
    18   1 H    0.997 --     7 C    0.968
    19   1 H    0.998 --     7 C    0.959
    20   1 H    0.999 --     8 C    0.967
    21   1 H    0.998 --     9 C    0.976
    22   1 H    0.999 --     9 C    0.975
    23   1 H    0.998 --    10 C    0.964
    24   1 H    0.910 --    12 O    0.889
 ---------------------------------------------------------------------------

Topologies differ in total number of bonds
Writing topology from bond orders to xtbtopo.mol

molecular dipole:
                 x           y           z       tot (Debye)
 q only:        0.181       0.277       0.089
   full:        0.329       0.332       0.109       1.221
molecular quadrupole (traceless):
                xx          xy          yy          xz          yz          zz
 q only:       -0.631      -3.978      -1.107      -5.760       2.992       1.738
  q+dip:       -2.838      -6.490      -1.129      -8.102       5.056       3.967
   full:       -2.942      -6.295      -0.809      -7.519       3.933       3.751

           -------------------------------------------------
          |                Geometry Summary                 |
           -------------------------------------------------

      molecular mass/u    :      164.2014578
   center of mass at/Å    :       -0.2898158      -0.1221197      -0.1048382
  moments of inertia/u·Å² :        0.2446545E+03   0.1010531E+04   0.1184716E+04
rotational constants/cm⁻¹ :        0.6890384E-01   0.1668195E-01   0.1422926E-01

 * 22 selected distances

     #   Z          #   Z                                           value/Å
     1   6 C        2   8 O                                       1.4038339
     2   8 O        3   6 C                                       1.3627440
     3   6 C        4   6 C                                       1.3849011
     4   6 C        5   6 C                                       1.3881142
     5   6 C        6   6 C                                       1.3818027
     8   6 C        9   6 C                                       1.3191776
     6   6 C       10   6 C                                       1.3916341
     3   6 C       11   6 C                                       1.4085926 (max)
    10   6 C       11   6 C                                       1.3815086
    11   6 C       12   8 O                                       1.3616267
     1   6 C       13   1 H                                       1.0956019
     1   6 C       14   1 H                                       1.0889240
     1   6 C       15   1 H                                       1.0956332
     4   6 C       16   1 H                                       1.0783240
     5   6 C       17   1 H                                       1.0800497
     7   6 C       18   1 H                                       1.0918185
     7   6 C       19   1 H                                       1.0929862
     8   6 C       20   1 H                                       1.0821735
     9   6 C       21   1 H                                       1.0767655
     9   6 C       22   1 H                                       1.0782248
    10   6 C       23   1 H                                       1.0827014
    12   8 O       24   1 H                                       0.9649017 (min)

 * 4 distinct bonds (by element types)

   Z      Z             #   av. dist./Å        max./Å        min./Å
   1 H    6 C          11     1.0857457     1.0956332     1.0767655
   6 C    6 C           7     1.3793901     1.4085926     1.3191776
   1 H    8 O           1     0.9649017     0.9649017     0.9649017
   6 C    8 O           3     1.3760682     1.4038339     1.3616267


optimized geometry written to: xtbopt.xyz


           -------------------------------------------------
          | TOTAL ENERGY              -35.621994335379 Eh   |
          | GRADIENT NORM               0.000369165142 Eh/α |
          | HOMO-LUMO GAP               4.015512696533 eV   |
           -------------------------------------------------

------------------------------------------------------------------------
 * finished run on 2022/03/17 at 02:19:48.568     
------------------------------------------------------------------------
 total:
 * wall-time:     0 d,  0 h,  0 min,  3.569 sec
 *  cpu-time:     0 d,  0 h,  1 min, 54.981 sec
 * ratio c/w:    32.213 speedup
 SCF:
 * wall-time:     0 d,  0 h,  0 min,  0.224 sec
 *  cpu-time:     0 d,  0 h,  0 min,  7.243 sec
 * ratio c/w:    32.311 speedup
 ANC optimizer:
 * wall-time:     0 d,  0 h,  0 min,  3.256 sec
 *  cpu-time:     0 d,  0 h,  1 min, 44.875 sec
 * ratio c/w:    32.207 speedup

