24
 energy: -35.618807003145 gnorm: 0.047538158701 xtb: 6.3.3 (4ae9cef)
C        -4.04330000000000    0.31540100000000    1.09160700000000
O        -3.24152000000000   -0.39072800000000    0.15663700000000
C        -1.91473000000000   -0.05723500000000    0.08458500000000
C        -1.28872600000000    0.91916700000000    0.86285300000000
C         0.07816600000000    1.18166400000000    0.70880600000000
C         0.84207900000000    0.47643200000000   -0.23003500000000
C         2.31840800000000    0.75334200000000   -0.38759800000000
C         3.16823600000000   -0.27610000000000    0.30218900000000
C         4.08394900000000   -1.03671400000000   -0.31230500000000
C         0.21776600000000   -0.50858300000000   -1.00680000000000
C        -1.14557100000000   -0.76692300000000   -0.84730700000000
O        -1.74584300000000   -1.73213000000000   -1.61317700000000
H        -4.07440200000000    1.38475600000000    0.85803000000000
H        -5.06448300000000   -0.07051400000000    1.01570100000000
H        -3.69901700000000    0.14378000000000    2.11680700000000
H        -1.83436900000000    1.49531200000000    1.60229000000000
H         0.54180000000000    1.94433000000000    1.33127100000000
H         2.55596500000000    0.81440400000000   -1.45740200000000
H         2.55763900000000    1.74025100000000    0.02775400000000
H         3.01900200000000   -0.39456800000000    1.37382300000000
H         4.66625200000000   -1.76281000000000    0.24715300000000
H         4.27375900000000   -0.95609500000000   -1.37798600000000
H         0.80484800000000   -1.06882400000000   -1.72891700000000
H        -1.07590700000000   -2.14761600000000   -2.17688600000000
24
 energy: -35.621486718230 gnorm: 0.015948196232 xtb: 6.3.3 (4ae9cef)
C        -4.03269840080392    0.31417711228689    1.08711802134694
O        -3.23007439400736   -0.38445854558765    0.16050180123418
C        -1.90532859508685   -0.05550369576490    0.08960387470738
C        -1.27698553002655    0.91383401984054    0.86010717996169
C         0.07981142770281    1.17261796155299    0.70792582775397
C         0.84218388476435    0.47687793518114   -0.21867894697414
C         2.31497949807957    0.75623744262504   -0.39113637180403
C         3.15729995030000   -0.27832545161904    0.29136602675016
C         4.06166241308352   -1.03229498182763   -0.31142803833507
C         0.21820865677279   -0.50055369518578   -0.98855429997920
C        -1.13577155745774   -0.76768491819105   -0.84239681089894
O        -1.74717418782326   -1.72515337896591   -1.60295313112259
H        -4.05822018377038    1.38502170891894    0.86338564012347
H        -5.04129700834964   -0.09174084996397    0.98656204999445
H        -3.68735091658403    0.15333136017580    2.11292285861197
H        -1.82743994854795    1.48627403423851    1.59109822119055
H         0.53928036465814    1.93569014466247    1.32086607135853
H         2.56348334064707    0.79152692196550   -1.45686114729865
H         2.54710907637288    1.73712966400365    0.03831628473459
H         2.99449357977907   -0.38990415341809    1.35653234753657
H         4.65073692943778   -1.74841528814547    0.23960835394456
H         4.26127124142119   -0.94950147956311   -1.36825002056370
H         0.79904193156303   -1.05765623600210   -1.71221056857474
H        -1.08722057212453   -2.14152663121676   -2.17235222369797
24
 energy: -35.621840269118 gnorm: 0.005378365048 xtb: 6.3.3 (4ae9cef)
C        -4.02423394880924    0.31110151795110    1.08287310886988
O        -3.21930872726142   -0.38343330820552    0.16326013432103
C        -1.89670921533334   -0.05661601929633    0.09451619007146
C        -1.26867881872304    0.91121073591963    0.86164474578136
C         0.08369894965521    1.17414128695305    0.70748123236894
C         0.84394000503045    0.48330875868380   -0.21680975422801
C         2.31413033800894    0.76243642307388   -0.39467466540745
C         3.15101874691464   -0.27440319994418    0.29057746139942
C         4.05336847705071   -1.02648724392042   -0.30816777221260
C         0.22089250151780   -0.49603287233203   -0.98123552495160
C        -1.12705190792270   -0.77145471226943   -0.83980497630460
O        -1.74722652991170   -1.72430969428513   -1.59352579514016
H        -4.05090922065141    1.38357157415647    0.86475563085167
H        -5.02494827234958   -0.10463013051117    0.96889263918342
H        -3.68342984781008    0.15736045424717    2.11182432675128
H        -1.82523007585813    1.47980233637675    1.58871547704832
H         0.54154428003874    1.93684955112808    1.31884014264125
H         2.56450189302604    0.78641566911787   -1.45790036794047
H         2.54350648918716    1.74011730173957    0.03855720491974
H         2.96838664162842   -0.38711889635042    1.35145863781394
H         4.62802841490168   -1.75972107860633    0.23092343344047
H         4.25233362162389   -0.94738446695120   -1.36400746927167
H         0.79889766613277   -1.05456999123491   -1.70526904343865
H        -1.09652046008583   -2.14015499544027   -2.17183199656699
24
 energy: -35.621904235815 gnorm: 0.002794287292 xtb: 6.3.3 (4ae9cef)
C        -4.02088789150342    0.30740822700515    1.08076545076031
O        -3.21241708867092   -0.38499185782014    0.16547700626987
C        -1.89140749573043   -0.05671889548380    0.09745631704494
C        -1.26475567208594    0.91190294670655    0.86371196343788
C         0.08696966804039    1.17878989852246    0.70781462377584
C         0.84589991572034    0.48998534397716   -0.21828598877386
C         2.31524745314706    0.76744365044687   -0.39769834255425
C         3.14105047302701   -0.27780247568831    0.29031692443679
C         4.03842639734480   -1.03599812799124   -0.30836860312027
C         0.22381927962271   -0.49264962760845   -0.98048565037770
C        -1.12171479096790   -0.77282174598642   -0.83872283665654
O        -1.74571032335370   -1.72557539167424   -1.58646161197936
H        -4.04978548063250    1.38063581095765    0.86376136825881
H        -5.01882643857758   -0.11128953822969    0.96241957643424
H        -3.68407918147564    0.15701604993977    2.11213204487477
H        -1.82465032116740    1.47698476116783    1.59103352777645
H         0.54401224601570    1.94267513976518    1.31860453896579
H         2.56565769096938    0.78747851735545   -1.46009748310159
H         2.54807737632865    1.74365410042354    0.03531626302228
H         2.95216756469972   -0.38591683300123    1.35050106517585
H         4.61920231786715   -1.76556497931762    0.22898628029287
H         4.25258799370981   -0.94194821006298   -1.36083045152522
H         0.80186011418341   -1.05228212418936   -1.70444300532478
H        -1.10074280651075   -2.14041563921408   -2.17180997711314
24
 energy: -35.621842778838 gnorm: 0.006236382904 xtb: 6.3.3 (4ae9cef)
C        -4.01756179175427    0.30374750553999    1.07862600746489
O        -3.20553561654164   -0.38654528856190    0.16769076647668
C        -1.88611011164746   -0.05683473632691    0.10041293773095
C        -1.26083511568919    0.91257533749563    0.86580305561064
C         0.09024033298147    1.18341127583224    0.70817956107573
C         0.84785934135255    0.49663769416035   -0.21973367446748
C         2.31635920068590    0.77244475832589   -0.40071006471950
C         3.13110672697813   -0.28120010197157    0.29004263092178
C         4.02351633454660   -1.04547893742178   -0.30860762875029
C         0.22674610400194   -0.48929120779148   -0.97970706347874
C        -1.11637937890586   -0.77420864212273   -0.83761663825550
O        -1.74419601609755   -1.72685824304581   -1.57937678070606
H        -4.04866242399771    1.37772879190149    0.86271470960711
H        -5.01272880272915   -0.11790308094314    0.95590087347755
H        -3.68477227027141    0.15671792316755    2.11241813341381
H        -1.82407392795957    1.47415027479856    1.59337274313894
H         0.54648034219758    1.94847242787072    1.31840178446856
H         2.56679119129347    0.78855021695937   -1.46228568606026
H         2.55263546692578    1.74718439839237    0.03209272641971
H         2.93598974710646   -0.38473306555475    1.34952980088843
H         4.61042356615776   -1.77138293781247    0.22698981328565
H         4.25285042352061   -0.93646845439599   -1.35769490900431
H         0.80482308882025   -1.05001860424996   -1.70358824456063
H        -1.10496541097472   -2.14069830424560   -2.17176185397767
24
 energy: -35.621943989416 gnorm: 0.001936137734 xtb: 6.3.3 (4ae9cef)
C        -4.01915226026174    0.30312083784238    1.07953585992358
O        -3.20656369181995   -0.38818788486912    0.16800048414947
C        -1.88687661867396   -0.05676464785558    0.10000442376851
C        -1.26202968038486    0.91349316043444    0.86557729074120
C         0.08975478504702    1.18414411885101    0.70751729342395
C         0.84797576923150    0.49633473557707   -0.22062411634720
C         2.31722678720415    0.77269581202813   -0.40024649769225
C         3.13683567663405   -0.27621022088707    0.29133912957398
C         4.03344021351753   -1.03708475512129   -0.30648067930375
C         0.22721915429087   -0.48963138178258   -0.98143024491009
C        -1.11704469436205   -0.77333032082811   -0.83755948682262
O        -1.74276254165960   -1.72774031662096   -1.57991077419206
H        -4.05020179354419    1.37657882411725    0.86165760908726
H        -5.01605859881156   -0.11676960220198    0.95939690279430
H        -3.68605281037215    0.15503165621236    2.11289433311069
H        -1.82381285334470    1.47559456560470    1.59428886289377
H         0.54610550003007    1.94972839557845    1.31753556181464
H         2.56848496376406    0.79167762193722   -1.46218429167204
H         2.55291635968556    1.74839847612577    0.03182231630495
H         2.93688762856375   -0.38776283979727    1.34938451816403
H         4.60268821876406   -1.77966251834010    0.22686989236211
H         4.24681114987105   -0.94338160407950   -1.35948742643732
H         0.80636612657083   -1.04909587683923   -1.70545163059953
H        -1.10215578993978   -2.14117723508592   -2.17135633013559
24
 energy: -35.621961175948 gnorm: 0.000727965916 xtb: 6.3.3 (4ae9cef)
C        -4.01892705287455    0.29958455346346    1.08027059239696
O        -3.20368086355757   -0.39243473410935    0.17071123952763
C        -1.88474538053811   -0.05643074891741    0.10137605359935
C        -1.26143893155683    0.91590517642037    0.86576359002006
C         0.09015919264471    1.18889556676050    0.70550279161580
C         0.84842742228774    0.50141454814732   -0.22325975833624
C         2.31870347075910    0.77538596851073   -0.40101906461393
C         3.13354754066922   -0.27694844181387    0.29106318220823
C         4.02841014430509   -1.04074281255517   -0.30582603857492
C         0.22918414572119   -0.48612869952182   -0.98364833296992
C        -1.11475491095568   -0.77173069831952   -0.83663570954609
O        -1.73877215443505   -1.72943331537876   -1.57639566825278
H        -4.05094477577473    1.37241721628415    0.85972756878646
H        -5.01636250877858   -0.12061481263021    0.96046156748783
H        -3.68755421333100    0.15238704751270    2.11418724420302
H        -1.82249451728559    1.47705430456340    1.59597957788465
H         0.54631235456454    1.95506662028302    1.31506475739001
H         2.57176212552284    0.79530241495170   -1.46295164598626
H         2.55760251859481    1.75086634739986    0.03080134198573
H         2.93071356752963   -0.38996578715599    1.34809251940454
H         4.59090595172535   -1.78836705919503    0.22781371955744
H         4.24297197135000   -0.94638479037669   -1.35848836297514
H         0.81003780699126   -1.04390417340610   -1.70751024457056
H        -1.09906190357787   -2.14119469091718   -2.16998792024191
24
 energy: -35.621974462620 gnorm: 0.000598718649 xtb: 6.3.3 (4ae9cef)
C        -4.01668376435839    0.29456981180094    1.08118921495005
O        -3.19842446155636   -0.39861531474969    0.17516022045020
C        -1.88098662752070   -0.05641622899556    0.10344016206736
C        -1.25981031191290    0.91872148395697    0.86566538017253
C         0.09099224542833    1.19501092993926    0.70301069913942
C         0.84934296337174    0.50864053715427   -0.22610263798705
C         2.32030362016683    0.78004929860188   -0.40240392977289
C         3.12703713180861   -0.27810782267620    0.29019975501652
C         4.01822508511144   -1.04734875188639   -0.30519648640585
C         0.23196813123188   -0.48091129077653   -0.98552265365378
C        -1.11069550626060   -0.77010946636595   -0.83547001509594
O        -1.73338915452007   -1.73116105230361   -1.57187771664453
H        -4.04963663592784    1.36665277873636    0.85769991641458
H        -5.01342439103298   -0.12738671689099    0.95992280297601
H        -3.68788950204268    0.15013801379560    2.11620704373475
H        -1.82082518820932    1.47854033379507    1.59691848404995
H         0.54627447318142    1.96281879782973    1.31105144669195
H         2.57549129942181    0.80007369189034   -1.46395129789093
H         2.56247164209255    1.75419266860086    0.03084813906729
H         2.91900929110814   -0.39209148894960    1.34600318491069
H         4.57438528165046   -1.79886100992894    0.22907945318592
H         4.23727079765880   -0.95124277150302   -1.35664454987671
H         0.81420882925615   -1.03658530444103   -1.70959588477723
H        -1.09521424814642   -2.14057212663365   -2.16853773072237
24
 energy: -35.621982279321 gnorm: 0.000659086200 xtb: 6.3.3 (4ae9cef)
C        -4.01435739037699    0.29056191116578    1.08284516858276
O        -3.19464722126683   -0.40404176761278    0.17911642681711
C        -1.87856647222428   -0.05692338021336    0.10432762819632
C        -1.25926529218486    0.92108151685086    0.86434484117400
C         0.09068704103296    1.20028368517824    0.70011603405105
C         0.84988481227353    0.51421056442719   -0.22836649090812
C         2.32138033760407    0.78378889067343   -0.40254773444802
C         3.12249516637032   -0.27861418011320    0.28958241309741
C         4.00997057686169   -1.05274278973675   -0.30495197475871
C         0.23395023852006   -0.47675264139500   -0.98704221168358
C        -1.10777209583564   -0.76887864141394   -0.83523894651614
O        -1.72868736908061   -1.73215532090090   -1.57052316688935
H        -4.04779535197134    1.36195243599632    0.85679416150523
H        -5.01036084000074   -0.13285992389098    0.96135060159437
H        -3.68629193903128    0.14880643193131    2.11836081464486
H        -1.82050412970918    1.48067305580126    1.59554611512368
H         0.54494571126414    1.96941994239863    1.30718742417377
H         2.57825289285089    0.80493537671349   -1.46360080652904
H         2.56518692799534    1.75628213542214    0.03322732194202
H         2.91266975971852   -0.39250193952459    1.34498096492359
H         4.55961630240190   -1.80848300063991    0.23011700216705
H         4.23229254710139   -0.95690194598494   -1.35571147090711
H         0.81692317612493   -1.03134184510219   -1.71116100975174
H        -1.09000638843810   -2.13979957002995   -2.16766010560146
24
 energy: -35.621985599457 gnorm: 0.001014534810 xtb: 6.3.3 (4ae9cef)
C        -4.01196164885819    0.28643729181543    1.08461375077025
O        -3.19083311584618   -0.40948953989565    0.18308549933210
C        -1.87613041063810   -0.05738473668412    0.10515713389585
C        -1.25871134729802    0.92351281895899    0.86294006803143
C         0.09038238468063    1.20565404941905    0.69710941698304
C         0.85042909333139    0.51986614367493   -0.23073139393287
C         2.32247691449527    0.78755194967982   -0.40273320907324
C         3.11787571739954   -0.27911671102833    0.28901583739920
C         4.00161853281359   -1.05822742209953   -0.30456895866636
C         0.23593371212203   -0.47250638930141   -0.98866440141478
C        -1.10484194395954   -0.76757664380920   -0.83509279753854
O        -1.72397575915072   -1.73308988742806   -1.56924141657351
H        -4.04595233460978    1.35714818891232    0.85607035285711
H        -5.00721447186711   -0.13849506582390    0.96294099069747
H        -3.68454308046637    0.14731041214163    2.12059221868749
H        -1.82017012175797    1.48286666546370    1.59410051884456
H         0.54361712699273    1.97612359196127    1.30320577851393
H         2.58109347156301    0.80977152636715   -1.46328175596737
H         2.56794592592722    1.75839736885664    0.03554548970216
H         2.90618184448103   -0.39285207039087    1.34400615630646
H         4.54466213094226   -1.81821408255226    0.23136057167240
H         4.22727278980226   -0.96272658697107   -1.35463523176111
H         0.81963845515264   -1.02601122995479   -1.71282893907719
H        -1.08479286525175   -2.13895064131156   -2.16687267968855
24
 energy: -35.621984260284 gnorm: 0.001472031236 xtb: 6.3.3 (4ae9cef)
C        -4.00963310672077    0.28242580531528    1.08627320181738
O        -3.18705472786196   -0.41491685669620    0.18704227491283
C        -1.87370975736849   -0.05789059677116    0.10604290691732
C        -1.25816606104396    0.92587499477809    0.86161695583684
C         0.09007714405202    1.21092984307074    0.69421124318237
C         0.85097097644284    0.52543887494188   -0.23299841501565
C         2.32355421188548    0.79129228525966   -0.40287832700703
C         3.11333130212853   -0.27962295460360    0.28839998245854
C         3.99336100844540   -1.06362427940162   -0.30432017476735
C         0.23791582698731   -0.46834498214890   -0.99018715402140
C        -1.10191832534983   -0.76634366002154   -0.83486429199908
O        -1.71927365226831   -1.73408236318487   -1.56788910217449
H        -4.04411079737913    1.35244461996169    0.85517011228432
H        -5.00414832654569   -0.14397320813667    0.96437375175017
H        -3.68294088779799    0.14597387366194    2.12274842715935
H        -1.81984864433722    1.48500127561854    1.59272587407326
H         0.54228832373675    1.98272787963535    1.29933811326226
H         2.58385746318137    0.81463245061556   -1.46293225167635
H         2.57066253458112    1.76048760272074    0.03792283870768
H         2.89983775842339   -0.39326060191206    1.34298533354497
H         4.52988717267091   -1.82783966303739    0.23240455068451
H         4.22229359605335   -0.96839071653516   -1.35369767064402
H         0.82235277108179   -1.02076495198580   -1.71439731282357
H        -1.07958480299706   -2.13817567114430   -2.16599786646293
24
 energy: -35.621989768257 gnorm: 0.000667446757 xtb: 6.3.3 (4ae9cef)
C        -4.01008530104672    0.28365803418330    1.08606355133308
O        -3.18855424712949   -0.41194991359087    0.18474414456284
C        -1.87486993364197   -0.05731008000195    0.10442317738119
C        -1.25870431426965    0.92541310843760    0.86092160980405
C         0.09004602544392    1.20908028771956    0.69521778713733
C         0.85125996768925    0.52296068591733   -0.23153253446035
C         2.32352254041104    0.79056549736730   -0.40185683797402
C         3.11566269367255   -0.27901598528324    0.28929184063357
C         3.99521972587060   -1.06243642824863   -0.30485012694018
C         0.23763596618891   -0.47025598326430   -0.98908704161352
C        -1.10283470984049   -0.76681850092772   -0.83585842590715
O        -1.72074186196935   -1.73314913576682   -1.56993597877998
H        -4.04568355794417    1.35415635049826    0.85650224990318
H        -5.00471283858548   -0.14278071400501    0.96558813939782
H        -3.68170213582947    0.14624333754413    2.12206641093415
H        -1.82107667349671    1.48449646933032    1.59161674270442
H         0.54196060897853    1.98128326800221    1.30018964352367
H         2.58348576607910    0.81427881692318   -1.46197842847588
H         2.56917653733149    1.76019540539385    0.03875113977102
H         2.90331936977307   -0.39275782943362    1.34430941294548
H         4.53651153047696   -1.82317479628863    0.23131850643507
H         4.21982435108909   -0.96999151301982   -1.35524608930627
H         0.82166528804387   -1.02394584475172   -1.71301842979732
H        -1.08032379729502   -2.13874553673451   -2.16654746321230
24
 energy: -35.621994334997 gnorm: 0.000370519173 xtb: 6.3.3 (4ae9cef)
C        -4.00999931385580    0.28372957237929    1.08649484884746
O        -3.18990659488823   -0.40892752588735    0.18182712584336
C        -1.87600687602688   -0.05627827354948    0.10196955996421
C        -1.25963105945514    0.92609198486431    0.85892431776985
C         0.08944363760637    1.20891952893518    0.69501250152554
C         0.85150784658928    0.52157102305630   -0.23029229156931
C         2.32368051687122    0.79025540964017   -0.39983652428700
C         3.11798183851556   -0.27839530275986    0.29068354705266
C         3.99460712642564   -1.06319787444474   -0.30584179717457
C         0.23785556973434   -0.47147433926824   -0.98787869388619
C        -1.10330106328038   -0.76676589783293   -0.83732065628213
O        -1.72104229083983   -1.73191141026641   -1.57279140487097
H        -4.04853355967355    1.35471494246168    0.85879113124883
H        -5.00439338592070   -0.14414036184364    0.96875259126146
H        -3.67826443284387    0.14550484741301    2.12151075815732
H        -1.82317350019940    1.48550109151234    1.58848857435270
H         0.54073854178059    1.98150609469568    1.29995064398493
H         2.58398287558743    0.81512700804021   -1.45987980898939
H         2.56799679259098    1.75989130822113    0.04145092470708
H         2.91030983152692   -0.38927903536074    1.34693953499102
H         4.53822185952639   -1.82330491676060    0.22908272774209
H         4.21510559314056   -0.97272705616524   -1.35739497320337
H         0.82186341977649   -1.02689854491709   -1.71084561923966
H        -1.07904237268812   -2.13951327216280   -2.16670401794599
