      -----------------------------------------------------------      
     |                   =====================                   |     
     |                           x T B                           |     
     |                   =====================                   |     
     |                         S. Grimme                         |     
     |          Mulliken Center for Theoretical Chemistry        |     
     |                    University of Bonn                     |     
      -----------------------------------------------------------      

   * xtb version 6.3.3 (4ae9cef) compiled by 'conda@95abc7406d43' on 2020-10-14

   xtb is free software: you can redistribute it and/or modify it under
   the terms of the GNU Lesser General Public License as published by
   the Free Software Foundation, either version 3 of the License, or
   (at your option) any later version.
   
   xtb is distributed in the hope that it will be useful,
   but WITHOUT ANY WARRANTY; without even the implied warranty of
   MERCHANTABILITY or FITNESS FOR A PARTICULAR PURPOSE.  See the
   GNU Lesser General Public License for more details.
   
   Cite this work as:
   * C. Bannwarth, E. Caldeweyher, S. Ehlert, A. Hansen, P. Pracht,
     J. Seibert, S. Spicher, S. Grimme, WIREs Comput. Mol. Sci., 2020,
     e01493. DOI: 10.1002/wcms.1493
   
   for GFN2-xTB:
   * S. Grimme, C. Bannwarth, P. Shushkov, J. Chem. Theory Comput., 2017,
     13, 1989-2009. DOI: 10.1021/acs.jctc.7b00118
   for GFN1-xTB:
   * C. Bannwarth, S. Ehlert and S. Grimme., J. Chem. Theory Comput., 2019,
     15, 1652-1671. DOI: 10.1021/acs.jctc.8b01176
   for GFN0-xTB:
   * P. Pracht, E. Caldeweyher, S. Ehlert, S. Grimme, ChemRxiv, 2019, preprint.
     DOI: 10.26434/chemrxiv.8326202.v1
   for GFN-FF:
   * S. Spicher and S. Grimme, Angew. Chem. Int. Ed., 2020, 59, 15665-15673.
     DOI: 10.1002/anie.202004239
   
   for DFT-D4:
   * E. Caldeweyher, C. Bannwarth and S. Grimme, J. Chem. Phys., 2017,
     147, 034112. DOI: 10.1063/1.4993215
   * E. Caldeweyher, S. Ehlert, A. Hansen, H. Neugebauer, S. Spicher,
     C. Bannwarth and S. Grimme, J. Chem. Phys., 2019, 150, 154122.
     DOI: 10.1063/1.5090222
   * E. Caldeweyher, J.-M. Mewes, S. Ehlert and S. Grimme, Phys. Chem. Chem. Phys.
     2020, 22, 8499-8512. DOI: 10.1039/D0CP00502A
   
   for sTDA-xTB:
   * S. Grimme and C. Bannwarth, J. Chem. Phys., 2016, 145, 054103.
     DOI: 10.1063/1.4959605
   
   in the mass-spec context:
   * V. Asgeirsson, C. Bauer and S. Grimme, Chem. Sci., 2017, 8, 4879.
     DOI: 10.1039/c7sc00601b
   * J. Koopman and S. Grimme, ACS Omega 2019, 4, 12, 15120-15133.
     DOI: 10.1021/acsomega.9b02011
   
   for metadynamics refer to:
   * S. Grimme, J. Chem. Theory Comput., 2019, 155, 2847-2862
     DOI: 10.1021/acs.jctc.9b00143
   
   with help from (in alphabetical order)
   C. Bannwarth, F. Bohle, G. Brandenburg, E. Caldeweyher, M. Checinski,
   S. Dohm, S. Ehlert, S. Ehrlich, F. März, H. Neugebauer, J. Pisarek,
   P. Pracht, P. Shushkov, and S. Spicher.
   
 * started run on 2022/03/16 at 23:57:38.772     

           -------------------------------------------------
          |                Calculation Setup                |
           -------------------------------------------------

          program call               : xtb acid_336.xyz --opt --chrg 0 --uhf 0 --gfn 2
          coordinate file            : acid_336.xyz
          omp threads                :                    64
          number of atoms            :                    92
          number of electrons        :                   270
          charge                     :                     0
          spin                       :                   0.0
          first test random number   :      0.45283519257599

   ID    Z sym.   atoms
    1    6 C      1-22, 24-36, 38, 39, 43-55
    2    7 N      23, 42
    3    8 O      37, 40, 41, 56
    4    1 H      57-92

           -------------------------------------------------
          |                 G F N 2 - x T B                 |
           -------------------------------------------------

        Reference                      10.1021/acs.jctc.8b01176
      * Hamiltonian:
        H0-scaling (s, p, d)           1.850000    2.230000    2.230000
        zeta-weighting                 0.500000
      * Dispersion:
        s8                             2.700000
        a1                             0.520000
        a2                             5.000000
        s9                             5.000000
      * Repulsion:
        kExp                           1.500000    1.000000
        rExp                           1.000000
      * Coulomb:
        alpha                          2.000000
        third order                    shell-resolved
        anisotropic                    true
        a3                             3.000000
        a5                             4.000000
        cn-shift                       1.200000
        cn-exp                         4.000000
        max-rad                        5.000000


          ...................................................
          :                      SETUP                      :
          :.................................................:
          :  # basis functions                 260          :
          :  # atomic orbitals                 260          :
          :  # shells                          148          :
          :  # electrons                       270          :
          :  max. iterations                   250          :
          :  Hamiltonian                  GFN2-xTB          :
          :  restarted?                      false          :
          :  GBSA solvation                  false          :
          :  PC potential                    false          :
          :  electronic temp.          300.0000000     K    :
          :  accuracy                    1.0000000          :
          :  -> integral cutoff          0.2500000E+02      :
          :  -> integral neglect         0.1000000E-07      :
          :  -> SCF convergence          0.1000000E-05 Eh   :
          :  -> wf. convergence          0.1000000E-03 e    :
          :  Broyden damping             0.4000000          :
          ...................................................

 iter      E             dE          RMSdq      gap      omega  full diag
   1   -149.7493962 -0.149749E+03  0.464E+00    2.41       0.0  T
   2   -149.8973715 -0.147975E+00  0.271E+00    2.86       1.0  T
   3   -149.8821915  0.151800E-01  0.113E+00    2.85       1.0  T
   4   -149.9162264 -0.340349E-01  0.208E-01    2.55       1.0  T
   5   -149.9186443 -0.241786E-02  0.103E-01    2.63       1.0  T
   6   -149.9195541 -0.909784E-03  0.414E-02    2.64       1.0  T
   7   -149.9196193 -0.651828E-04  0.214E-02    2.64       1.0  T
   8   -149.9196221 -0.289150E-05  0.108E-02    2.65       1.0  T
   9   -149.9196297 -0.752039E-05  0.273E-03    2.66       3.8  T
  10   -149.9196298 -0.175920E-06  0.148E-03    2.65       7.1  T
  11   -149.9196300 -0.123784E-06  0.547E-04    2.65      19.1  T
  12   -149.9196300 -0.285138E-08  0.300E-04    2.65      34.7  T

   *** convergence criteria satisfied after 12 iterations ***

         #    Occupation            Energy/Eh            Energy/eV
      -------------------------------------------------------------
         1        2.0000           -0.7742010             -21.0671
       ...           ...                  ...                  ...
       129        2.0000           -0.4001977             -10.8899
       130        2.0000           -0.3966532             -10.7935
       131        2.0000           -0.3946696             -10.7395
       132        2.0000           -0.3935634             -10.7094
       133        2.0000           -0.3901174             -10.6156
       134        2.0000           -0.3787746             -10.3070
       135        2.0000           -0.3774933             -10.2721 (HOMO)
       136                         -0.2799959              -7.6191 (LUMO)
       137                         -0.2722908              -7.4094
       138                         -0.2708455              -7.3701
       139                         -0.2555549              -6.9540
       140                         -0.2521142              -6.8604
       ...                                ...                  ...
       260                          0.6847643              18.6334
      -------------------------------------------------------------
                  HL-Gap            0.0974974 Eh            2.6530 eV
             Fermi-level           -0.3287446 Eh           -8.9456 eV

 SCC (total)                   0 d,  0 h,  0 min,  0.837 sec
 SCC setup                      ...        0 min,  0.014 sec (  1.655%)
 Dispersion                     ...        0 min,  0.018 sec (  2.152%)
 classical contributions        ...        0 min,  0.018 sec (  2.120%)
 integral evaluation            ...        0 min,  0.156 sec ( 18.682%)
 iterations                     ...        0 min,  0.472 sec ( 56.385%)
 molecular gradient             ...        0 min,  0.138 sec ( 16.498%)
 printout                       ...        0 min,  0.021 sec (  2.495%)

         :::::::::::::::::::::::::::::::::::::::::::::::::::::
         ::                     SUMMARY                     ::
         :::::::::::::::::::::::::::::::::::::::::::::::::::::
         :: total energy            -147.540081182339 Eh    ::
         :: gradient norm              0.135400843930 Eh/a0 ::
         :: HOMO-LUMO gap              2.653039475072 eV    ::
         ::.................................................::
         :: SCC energy              -149.919629968265 Eh    ::
         :: -> isotropic ES            0.119758910125 Eh    ::
         :: -> anisotropic ES          0.009227981739 Eh    ::
         :: -> anisotropic XC          0.077266689991 Eh    ::
         :: -> dispersion             -0.126647335823 Eh    ::
         :: repulsion energy           2.375816637183 Eh    ::
         :: add. restraining           0.000000000000 Eh    ::
         :: total charge               0.000000000000 e     ::
         :::::::::::::::::::::::::::::::::::::::::::::::::::::

      ----------------------------------------------------------- 
     |                   =====================                   |
     |                        A N C O P T                        |
     |                   =====================                   |
     |               Approximate Normal Coordinate               |
     |                Rational Function Optimizer                |
      ----------------------------------------------------------- 

          ...................................................
          :                      SETUP                      :
          :.................................................:
          :   optimization level            normal          :
          :   max. optcycles                   276          :
          :   ANC micro-cycles                  20          :
          :   degrees of freedom               270          :
          :.................................................:
          :   RF solver                   davidson          :
          :   write xtbopt.log                true          :
          :   linear?                        false          :
          :   energy convergence         0.5000000E-05 Eh   :
          :   grad. convergence          0.1000000E-02 Eh/α :
          :   maximium RF displ.         1.0000000          :
          :   Hlow (freq-cutoff)         0.1000000E-01      :
          :   Hmax (freq-cutoff)         5.0000000          :
          :   S6 in model hess.         20.0000000          :
          ...................................................

generating ANC from model Hessian ...
Using Lindh-Hessian (1995)
 Shifting diagonal of input Hessian by    9.9333902972611049E-003
 Lowest  eigenvalues of input Hessian
    0.000000    0.000000    0.000000    0.000000    0.000000    0.000000
    0.010000    0.010021    0.010071    0.010108    0.010150    0.010250
    0.010303    0.010538    0.010628    0.010696    0.010745    0.011018
 Highest eigenvalues
    2.008312    2.082380    2.084854    2.204187    2.237675    2.252559


........................................................................
.............................. CYCLE    1 ..............................
........................................................................
   1   -149.9196300 -0.149920E+03  0.105E-04    2.65       0.0  T
   2   -149.9196300 -0.142990E-09  0.777E-05    2.65     134.1  T
   3   -149.9196300 -0.312610E-09  0.447E-05    2.65     233.2  T
     SCC iter.                  ...        0 min,  0.120 sec
     gradient                   ...        0 min,  0.123 sec
 * total energy  :  -147.5400812 Eh     change       -0.3672369E-08 Eh
   gradient norm :     0.1354023 Eh/α   predicted     0.0000000E+00 (-100.00%)
   displ. norm   :     0.3674310 α      lambda       -0.2469680E-01
   maximum displ.:     0.1018233 α      in ANC's #70, #45, #153, ...

........................................................................
.............................. CYCLE    2 ..............................
........................................................................
   1   -150.0301055 -0.150030E+03  0.144E-01    2.95       0.0  T
   2   -150.0302152 -0.109669E-03  0.907E-02    2.90       1.0  T
   3   -150.0301274  0.877558E-04  0.412E-02    2.91       1.0  T
   4   -150.0302619 -0.134446E-03  0.816E-03    2.89       1.3  T
   5   -150.0302672 -0.535679E-05  0.260E-03    2.89       4.0  T
   6   -150.0302674 -0.132143E-06  0.125E-03    2.89       8.3  T
   7   -150.0302674 -0.698694E-08  0.608E-04    2.89      17.1  T
   8   -150.0302674 -0.203642E-07  0.218E-04    2.89      47.8  T
     SCC iter.                  ...        0 min,  0.314 sec
     gradient                   ...        0 min,  0.146 sec
 * total energy  :  -147.5575490 Eh     change       -0.1746777E-01 Eh
   gradient norm :     0.0546825 Eh/α   predicted    -0.1401551E-01 ( -19.76%)
   displ. norm   :     0.3847766 α      lambda       -0.8853648E-02
   maximum displ.:     0.1125830 α      in ANC's #45, #31, #28, ...

........................................................................
.............................. CYCLE    3 ..............................
........................................................................
   1   -150.0875257 -0.150088E+03  0.118E-01    3.05       0.0  T
   2   -150.0875801 -0.543897E-04  0.739E-02    3.02       1.0  T
   3   -150.0875061  0.740029E-04  0.333E-02    3.02       1.0  T
   4   -150.0876091 -0.102971E-03  0.571E-03    3.01       1.8  T
   5   -150.0876117 -0.261077E-05  0.178E-03    3.01       5.9  T
   6   -150.0876117 -0.231077E-07  0.841E-04    3.01      12.4  T
   7   -150.0876117 -0.102762E-07  0.332E-04    3.01      31.4  T
     SCC iter.                  ...        0 min,  0.285 sec
     gradient                   ...        0 min,  0.136 sec
 * total energy  :  -147.5630077 Eh     change       -0.5458762E-02 Eh
   gradient norm :     0.0139988 Eh/α   predicted    -0.5082226E-02 (  -6.90%)
   displ. norm   :     0.3040992 α      lambda       -0.1968328E-02
   maximum displ.:     0.0918721 α      in ANC's #21, #22, #31, ...

........................................................................
.............................. CYCLE    4 ..............................
........................................................................
   1   -150.0946281 -0.150095E+03  0.761E-02    3.03       0.0  T
   2   -150.0946573 -0.292614E-04  0.462E-02    3.02       1.0  T
   3   -150.0946391  0.182227E-04  0.192E-02    3.02       1.0  T
   4   -150.0946643 -0.252165E-04  0.458E-03    3.02       2.3  T
   5   -150.0946663 -0.203389E-05  0.109E-03    3.02       9.6  T
   6   -150.0946664 -0.206975E-07  0.626E-04    3.02      16.6  T
   7   -150.0946664 -0.507839E-08  0.240E-04    3.02      43.5  T
     SCC iter.                  ...        0 min,  0.278 sec
     gradient                   ...        0 min,  0.128 sec
 * total energy  :  -147.5644526 Eh     change       -0.1444850E-02 Eh
   gradient norm :     0.0129097 Eh/α   predicted    -0.1075184E-02 ( -25.59%)
   displ. norm   :     0.3654308 α      lambda       -0.1376242E-02
   maximum displ.:     0.1327133 α      in ANC's #22, #21, #12, ...

........................................................................
.............................. CYCLE    5 ..............................
........................................................................
   1   -150.0949187 -0.150095E+03  0.842E-02    3.02       0.0  T
   2   -150.0949538 -0.350368E-04  0.503E-02    3.01       1.0  T
   3   -150.0949348  0.189374E-04  0.208E-02    3.01       1.0  T
   4   -150.0949606 -0.257898E-04  0.515E-03    3.01       2.0  T
   5   -150.0949632 -0.254501E-05  0.124E-03    3.01       8.4  T
   6   -150.0949632 -0.246895E-07  0.737E-04    3.01      14.1  T
   7   -150.0949632 -0.792772E-08  0.308E-04    3.01      33.8  T
     SCC iter.                  ...        0 min,  0.275 sec
     gradient                   ...        0 min,  0.129 sec
 * total energy  :  -147.5653940 Eh     change       -0.9414368E-03 Eh
   gradient norm :     0.0095713 Eh/α   predicted    -0.7800157E-03 ( -17.15%)
   displ. norm   :     0.3114909 α      lambda       -0.6871253E-03
   maximum displ.:     0.1304243 α      in ANC's #22, #12, #23, ...

........................................................................
.............................. CYCLE    6 ..............................
........................................................................
   1   -150.0954067 -0.150095E+03  0.656E-02    3.00       0.0  T
   2   -150.0954202 -0.135552E-04  0.387E-02    3.00       1.0  T
   3   -150.0954073  0.129510E-04  0.151E-02    3.00       1.0  T
   4   -150.0954236 -0.163436E-04  0.325E-03    3.00       3.2  T
   5   -150.0954246 -0.953760E-06  0.985E-04    3.00      10.6  T
   6   -150.0954246 -0.126506E-07  0.593E-04    3.00      17.6  T
     SCC iter.                  ...        0 min,  0.240 sec
     gradient                   ...        0 min,  0.117 sec
 * total energy  :  -147.5659024 Eh     change       -0.5083629E-03 Eh
   gradient norm :     0.0073644 Eh/α   predicted    -0.3769006E-03 ( -25.86%)
   displ. norm   :     0.3800654 α      lambda       -0.6531609E-03
   maximum displ.:     0.1595730 α      in ANC's #22, #12, #6, ...

........................................................................
.............................. CYCLE    7 ..............................
........................................................................
   1   -150.0965525 -0.150097E+03  0.786E-02    2.98       0.0  T
   2   -150.0965656 -0.130177E-04  0.461E-02    2.98       1.0  T
   3   -150.0965472  0.183546E-04  0.163E-02    2.98       1.0  T
   4   -150.0965694 -0.222185E-04  0.317E-03    2.98       3.3  T
   5   -150.0965703 -0.866046E-06  0.111E-03    2.98       9.4  T
   6   -150.0965703 -0.122906E-07  0.653E-04    2.98      16.0  T
   7   -150.0965703 -0.111971E-07  0.252E-04    2.98      41.4  T
     SCC iter.                  ...        0 min,  0.278 sec
     gradient                   ...        0 min,  0.135 sec
 * total energy  :  -147.5663960 Eh     change       -0.4936552E-03 Eh
   gradient norm :     0.0077095 Eh/α   predicted    -0.3737751E-03 ( -24.28%)
   displ. norm   :     0.4308653 α      lambda       -0.6265974E-03
   maximum displ.:     0.1888999 α      in ANC's #12, #22, #6, ...

........................................................................
.............................. CYCLE    8 ..............................
........................................................................
   1   -150.0978549 -0.150098E+03  0.874E-02    2.96       0.0  T
   2   -150.0978636 -0.866681E-05  0.512E-02    2.97       1.0  T
   3   -150.0978464  0.172222E-04  0.144E-02    2.97       1.0  T
   4   -150.0978668 -0.204008E-04  0.257E-03    2.97       4.1  T
   5   -150.0978672 -0.453652E-06  0.116E-03    2.97       9.0  T
   6   -150.0978672 -0.158969E-07  0.630E-04    2.97      16.5  T
   7   -150.0978672 -0.122221E-07  0.246E-04    2.97      42.3  T
     SCC iter.                  ...        0 min,  0.277 sec
     gradient                   ...        0 min,  0.116 sec
 * total energy  :  -147.5668703 Eh     change       -0.4742960E-03 Eh
   gradient norm :     0.0078126 Eh/α   predicted    -0.3714616E-03 ( -21.68%)
   displ. norm   :     0.4352707 α      lambda       -0.5390975E-03
   maximum displ.:     0.1944301 α      in ANC's #12, #6, #10, ...

........................................................................
.............................. CYCLE    9 ..............................
........................................................................
   1   -150.0987731 -0.150099E+03  0.882E-02    2.95       0.0  T
   2   -150.0987789 -0.580529E-05  0.517E-02    2.96       1.0  T
   3   -150.0987659  0.129959E-04  0.119E-02    2.96       1.0  T
   4   -150.0987813 -0.154428E-04  0.217E-03    2.96       4.8  T
   5   -150.0987815 -0.239399E-06  0.111E-03    2.96       9.4  T
   6   -150.0987816 -0.159575E-07  0.549E-04    2.96      19.0  T
   7   -150.0987816 -0.113631E-07  0.207E-04    2.96      50.5  T
     SCC iter.                  ...        0 min,  0.278 sec
     gradient                   ...        0 min,  0.121 sec
 * total energy  :  -147.5672836 Eh     change       -0.4132638E-03 Eh
   gradient norm :     0.0061051 Eh/α   predicted    -0.3206321E-03 ( -22.41%)
   displ. norm   :     0.4432202 α      lambda       -0.4645200E-03
   maximum displ.:     0.1941481 α      in ANC's #12, #6, #10, ...

........................................................................
.............................. CYCLE   10 ..............................
........................................................................
   1   -150.0991340 -0.150099E+03  0.882E-02    2.95       0.0  T
   2   -150.0991394 -0.542868E-05  0.517E-02    2.95       1.0  T
   3   -150.0991315  0.787488E-05  0.959E-03    2.96       1.1  T
   4   -150.0991410 -0.949821E-05  0.221E-03    2.96       4.7  T
   5   -150.0991413 -0.274069E-06  0.108E-03    2.95       9.7  T
   6   -150.0991413 -0.210443E-07  0.539E-04    2.95      19.4  T
   7   -150.0991413 -0.105014E-07  0.188E-04    2.95      55.3  T
     SCC iter.                  ...        0 min,  0.276 sec
     gradient                   ...        0 min,  0.126 sec
 * total energy  :  -147.5676454 Eh     change       -0.3617978E-03 Eh
   gradient norm :     0.0046607 Eh/α   predicted    -0.2778869E-03 ( -23.19%)
   displ. norm   :     0.4554327 α      lambda       -0.4139948E-03
   maximum displ.:     0.1929704 α      in ANC's #6, #12, #10, ...

........................................................................
.............................. CYCLE   11 ..............................
........................................................................
   1   -150.0988045 -0.150099E+03  0.875E-02    2.95       0.0  T
   2   -150.0988083 -0.386098E-05  0.513E-02    2.95       1.0  T
   3   -150.0988028  0.552782E-05  0.814E-03    2.95       1.3  T
   4   -150.0988096 -0.680854E-05  0.191E-03    2.95       5.5  T
   5   -150.0988098 -0.164708E-06  0.101E-03    2.95      10.4  T
   6   -150.0988098 -0.225997E-07  0.461E-04    2.95      22.6  T
   7   -150.0988098 -0.672054E-08  0.163E-04    2.95      63.8  T
     SCC iter.                  ...        0 min,  0.277 sec
     gradient                   ...        0 min,  0.139 sec
 * total energy  :  -147.5679755 Eh     change       -0.3301484E-03 Eh
   gradient norm :     0.0051411 Eh/α   predicted    -0.2499424E-03 ( -24.29%)
   displ. norm   :     0.5144182 α      lambda       -0.4142602E-03
   maximum displ.:     0.2276603 α      in ANC's #6, #10, #12, ...

........................................................................
.............................. CYCLE   12 ..............................
........................................................................
   1   -150.0964634 -0.150096E+03  0.980E-02    2.94       0.0  T
   2   -150.0964776 -0.142186E-04  0.576E-02    2.94       1.0  T
   3   -150.0964707  0.687769E-05  0.105E-02    2.94       1.0  T
   4   -150.0964793 -0.861218E-05  0.278E-03    2.94       3.7  T
   5   -150.0964799 -0.610981E-06  0.113E-03    2.94       9.3  T
   6   -150.0964800 -0.367877E-07  0.595E-04    2.94      17.5  T
   7   -150.0964800 -0.102319E-07  0.251E-04    2.94      41.5  T
     SCC iter.                  ...        0 min,  0.282 sec
     gradient                   ...        0 min,  0.145 sec
 * total energy  :  -147.5682862 Eh     change       -0.3106318E-03 Eh
   gradient norm :     0.0077698 Eh/α   predicted    -0.2619424E-03 ( -15.67%)
   displ. norm   :     0.5235062 α      lambda       -0.4777471E-03
   maximum displ.:     0.2274745 α      in ANC's #6, #10, #9, ...

........................................................................
.............................. CYCLE   13 ..............................
........................................................................
   1   -150.0982995 -0.150098E+03  0.970E-02    2.94       0.0  T
   2   -150.0983112 -0.116476E-04  0.571E-02    2.95       1.0  T
   3   -150.0983029  0.827138E-05  0.108E-02    2.94       1.0  T
   4   -150.0983130 -0.100729E-04  0.269E-03    2.95       3.9  T
   5   -150.0983135 -0.567956E-06  0.112E-03    2.94       9.3  T
   6   -150.0983136 -0.336995E-07  0.576E-04    2.94      18.1  T
   7   -150.0983136 -0.451220E-08  0.238E-04    2.94      43.9  T
     SCC iter.                  ...        0 min,  0.279 sec
     gradient                   ...        0 min,  0.145 sec
 * total energy  :  -147.5685405 Eh     change       -0.2543573E-03 Eh
   gradient norm :     0.0119097 Eh/α   predicted    -0.3043542E-03 (  19.66%)
   displ. norm   :     0.4207078 α      lambda       -0.3478383E-03
   maximum displ.:     0.2007589 α      in ANC's #6, #10, #12, ...

........................................................................
.............................. CYCLE   14 ..............................
........................................................................
   1   -150.0944599 -0.150094E+03  0.779E-02    2.94       0.0  T
   2   -150.0944659 -0.598068E-05  0.458E-02    2.93       1.0  T
   3   -150.0944623  0.360270E-05  0.752E-03    2.93       1.4  T
   4   -150.0944670 -0.467739E-05  0.171E-03    2.93       6.1  T
   5   -150.0944672 -0.166939E-06  0.793E-04    2.93      13.1  T
   6   -150.0944672 -0.168858E-07  0.392E-04    2.93      26.6  T
     SCC iter.                  ...        0 min,  0.238 sec
     gradient                   ...        0 min,  0.119 sec
 * total energy  :  -147.5687989 Eh     change       -0.2583968E-03 Eh
   gradient norm :     0.0069197 Eh/α   predicted    -0.2047060E-03 ( -20.78%)
   displ. norm   :     0.3667567 α      lambda       -0.3354482E-03
   maximum displ.:     0.1837561 α      in ANC's #6, #10, #1, ...

........................................................................
.............................. CYCLE   15 ..............................
........................................................................
   1   -150.0979164 -0.150098E+03  0.657E-02    2.94       0.0  T
   2   -150.0979226 -0.628753E-05  0.386E-02    2.93       1.0  T
   3   -150.0979207  0.192812E-05  0.636E-03    2.93       1.6  T
   4   -150.0979232 -0.243894E-05  0.185E-03    2.93       5.6  T
   5   -150.0979234 -0.278105E-06  0.642E-04    2.93      16.2  T
   6   -150.0979234 -0.100864E-07  0.348E-04    2.93      30.0  T
     SCC iter.                  ...        0 min,  0.239 sec
     gradient                   ...        0 min,  0.132 sec
 * total energy  :  -147.5690342 Eh     change       -0.2352530E-03 Eh
   gradient norm :     0.0075605 Eh/α   predicted    -0.1903270E-03 ( -19.10%)
   displ. norm   :     0.4654784 α      lambda       -0.3177537E-03
   maximum displ.:     0.2270685 α      in ANC's #6, #10, #1, ...

........................................................................
.............................. CYCLE   16 ..............................
........................................................................
   1   -150.0975963 -0.150098E+03  0.833E-02    2.93       0.0  T
   2   -150.0976009 -0.454808E-05  0.489E-02    2.93       1.0  T
   3   -150.0975995  0.133874E-05  0.515E-03    2.93       2.0  T
   4   -150.0976014 -0.182934E-05  0.166E-03    2.93       6.3  T
   5   -150.0976016 -0.195586E-06  0.649E-04    2.93      16.1  T
   6   -150.0976016 -0.682792E-08  0.346E-04    2.93      30.1  T
     SCC iter.                  ...        0 min,  0.238 sec
     gradient                   ...        0 min,  0.132 sec
 * total energy  :  -147.5692767 Eh     change       -0.2425243E-03 Eh
   gradient norm :     0.0072160 Eh/α   predicted    -0.1933040E-03 ( -20.29%)
   displ. norm   :     0.4960358 α      lambda       -0.2995841E-03
   maximum displ.:     0.2470401 α      in ANC's #6, #10, #1, ...

........................................................................
.............................. CYCLE   17 ..............................
........................................................................
   1   -150.0977224 -0.150098E+03  0.869E-02    2.93       0.0  T
   2   -150.0977272 -0.487610E-05  0.510E-02    2.93       1.0  T
   3   -150.0977251  0.217660E-05  0.576E-03    2.93       1.8  T
   4   -150.0977280 -0.297235E-05  0.144E-03    2.93       7.2  T
   5   -150.0977282 -0.131538E-06  0.661E-04    2.93      15.8  T
   6   -150.0977282 -0.942586E-08  0.331E-04    2.93      31.5  T
     SCC iter.                  ...        0 min,  0.240 sec
     gradient                   ...        0 min,  0.138 sec
 * total energy  :  -147.5695078 Eh     change       -0.2310764E-03 Eh
   gradient norm :     0.0052362 Eh/α   predicted    -0.1866518E-03 ( -19.23%)
   displ. norm   :     0.4704305 α      lambda       -0.2540149E-03
   maximum displ.:     0.2413663 α      in ANC's #6, #10, #1, ...

........................................................................
.............................. CYCLE   18 ..............................
........................................................................
   1   -150.0997147 -0.150100E+03  0.783E-02    2.93       0.0  T
   2   -150.0997171 -0.237020E-05  0.460E-02    2.93       1.0  T
   3   -150.0997152  0.188403E-05  0.491E-03    2.93       2.1  T
   4   -150.0997176 -0.238445E-05  0.136E-03    2.93       7.7  T
   5   -150.0997177 -0.129880E-06  0.603E-04    2.93      17.3  T
   6   -150.0997178 -0.723153E-08  0.315E-04    2.93      33.1  T
     SCC iter.                  ...        0 min,  0.240 sec
     gradient                   ...        0 min,  0.124 sec
 * total energy  :  -147.5696949 Eh     change       -0.1871282E-03 Eh
   gradient norm :     0.0051619 Eh/α   predicted    -0.1551220E-03 ( -17.10%)
   displ. norm   :     0.5059985 α      lambda       -0.1937042E-03
   maximum displ.:     0.2558680 α      in ANC's #6, #10, #1, ...

........................................................................
.............................. CYCLE   19 ..............................
........................................................................
   1   -150.0960202 -0.150096E+03  0.843E-02    2.92       0.0  T
   2   -150.0960232 -0.298166E-05  0.495E-02    2.92       1.0  T
   3   -150.0960206  0.251817E-05  0.566E-03    2.92       1.8  T
   4   -150.0960237 -0.306635E-05  0.148E-03    2.92       7.1  T
   5   -150.0960239 -0.170533E-06  0.572E-04    2.92      18.2  T
   6   -150.0960239 -0.724287E-08  0.306E-04    2.92      34.0  T
     SCC iter.                  ...        0 min,  0.242 sec
     gradient                   ...        0 min,  0.152 sec
 * total energy  :  -147.5698304 Eh     change       -0.1354670E-03 Eh
   gradient norm :     0.0056226 Eh/α   predicted    -0.1216514E-03 ( -10.20%)
   displ. norm   :     0.3580674 α      lambda       -0.1736028E-03
   maximum displ.:     0.1904119 α      in ANC's #6, #1, #10, ...

........................................................................
.............................. CYCLE   20 ..............................
........................................................................
   1   -150.1010008 -0.150101E+03  0.527E-02    2.93       0.0  T
   2   -150.1010018 -0.965892E-06  0.309E-02    2.93       1.0  T
   3   -150.1010004  0.130260E-05  0.416E-03    2.93       2.5  T
   4   -150.1010021 -0.162944E-05  0.892E-04    2.93      11.7  T
   5   -150.1010021 -0.350960E-07  0.474E-04    2.93      22.0  T
   6   -150.1010021 -0.566197E-08  0.237E-04    2.93      44.1  T
     SCC iter.                  ...        0 min,  0.235 sec
     gradient                   ...        0 min,  0.158 sec
 * total energy  :  -147.5699453 Eh     change       -0.1149507E-03 Eh
   gradient norm :     0.0049931 Eh/α   predicted    -0.9793707E-04 ( -14.80%)
   displ. norm   :     0.4160737 α      lambda       -0.1306424E-03
   maximum displ.:     0.2139201 α      in ANC's #6, #1, #10, ...
 * RMSD in coord.:     0.7098313 α      energy gain  -0.2986413E-01 Eh

generating ANC from model Hessian ...
Using Lindh-Hessian (1995)
 Shifting diagonal of input Hessian by    9.9365475066791487E-003
 Lowest  eigenvalues of input Hessian
    0.000000    0.000000    0.000000    0.000000    0.000000    0.000000
    0.010000    0.010035    0.010080    0.010134    0.010193    0.010273
    0.010315    0.010581    0.010694    0.010768    0.010820    0.011202
 Highest eigenvalues
    2.082464    2.126367    2.127825    2.313500    2.338277    2.386468


........................................................................
.............................. CYCLE   21 ..............................
........................................................................
   1   -150.0991068 -0.150099E+03  0.633E-02    2.92       0.0  T
   2   -150.0991082 -0.140561E-05  0.371E-02    2.92       1.0  T
   3   -150.0991058  0.230681E-05  0.511E-03    2.92       2.0  T
   4   -150.0991086 -0.276161E-05  0.106E-03    2.92       9.8  T
   5   -150.0991087 -0.733168E-07  0.505E-04    2.92      20.6  T
   6   -150.0991087 -0.397716E-08  0.269E-04    2.92      38.7  T
     SCC iter.                  ...        0 min,  0.242 sec
     gradient                   ...        0 min,  0.146 sec
 * total energy  :  -147.5700508 Eh     change       -0.1055316E-03 Eh
   gradient norm :     0.0036955 Eh/α   predicted     0.0000000E+00 (-100.00%)
   displ. norm   :     0.0520376 α      lambda       -0.5950291E-04
   maximum displ.:     0.0164174 α      in ANC's #5, #34, #2, ...

........................................................................
.............................. CYCLE   22 ..............................
........................................................................
   1   -150.1001877 -0.150100E+03  0.130E-02    2.92       0.0  T
   2   -150.1001879 -0.213880E-06  0.776E-03    2.92       1.3  T
   3   -150.1001875  0.430778E-06  0.219E-03    2.92       4.8  T
   4   -150.1001880 -0.514171E-06  0.410E-04    2.92      25.5  T
   5   -150.1001880 -0.118581E-07  0.183E-04    2.92      56.9  T
     SCC iter.                  ...        0 min,  0.205 sec
     gradient                   ...        0 min,  0.134 sec
 * total energy  :  -147.5701007 Eh     change       -0.4982168E-04 Eh
   gradient norm :     0.0017878 Eh/α   predicted    -0.2984352E-04 ( -40.10%)
   displ. norm   :     0.2762828 α      lambda       -0.1351497E-03
   maximum displ.:     0.0913494 α      in ANC's #5, #34, #2, ...

........................................................................
.............................. CYCLE   23 ..............................
........................................................................
   1   -150.1020975 -0.150102E+03  0.661E-02    2.92       0.0  T
   2   -150.1021010 -0.353092E-05  0.390E-02    2.92       1.0  T
   3   -150.1020944  0.662368E-05  0.868E-03    2.92       1.2  T
   4   -150.1021024 -0.801215E-05  0.179E-03    2.92       5.8  T
   5   -150.1021026 -0.186245E-06  0.909E-04    2.92      11.5  T
   6   -150.1021026 -0.860146E-08  0.456E-04    2.92      22.8  T
     SCC iter.                  ...        0 min,  0.242 sec
     gradient                   ...        0 min,  0.140 sec
 * total energy  :  -147.5702033 Eh     change       -0.1025989E-03 Eh
   gradient norm :     0.0056283 Eh/α   predicted    -0.6990973E-04 ( -31.86%)
   displ. norm   :     0.0900188 α      lambda       -0.5551952E-04
   maximum displ.:     0.0327549 α      in ANC's #5, #6, #2, ...

........................................................................
.............................. CYCLE   24 ..............................
........................................................................
   1   -150.1018548 -0.150102E+03  0.198E-02    2.93       0.0  T
   2   -150.1018550 -0.182736E-06  0.116E-02    2.93       1.0  T
   3   -150.1018549  0.135242E-06  0.150E-03    2.93       7.0  T
   4   -150.1018551 -0.199277E-06  0.457E-04    2.93      22.8  T
   5   -150.1018551 -0.792909E-08  0.258E-04    2.93      40.4  T
     SCC iter.                  ...        0 min,  0.200 sec
     gradient                   ...        0 min,  0.129 sec
 * total energy  :  -147.5702556 Eh     change       -0.5229853E-04 Eh
   gradient norm :     0.0047543 Eh/α   predicted    -0.2800442E-04 ( -46.45%)
   displ. norm   :     0.4777390 α      lambda       -0.2787882E-03
   maximum displ.:     0.1739221 α      in ANC's #5, #6, #12, ...

........................................................................
.............................. CYCLE   25 ..............................
........................................................................
   1   -150.0991269 -0.150099E+03  0.105E-01    2.91       0.0  T
   2   -150.0991314 -0.452010E-05  0.617E-02    2.92       1.0  T
   3   -150.0991265  0.489835E-05  0.840E-03    2.92       1.2  T
   4   -150.0991334 -0.692612E-05  0.225E-03    2.92       4.6  T
   5   -150.0991335 -0.140064E-06  0.138E-03    2.92       7.6  T
   6   -150.0991336 -0.274876E-07  0.502E-04    2.92      20.8  T
   7   -150.0991336 -0.130027E-07  0.177E-04    2.92      59.0  T
     SCC iter.                  ...        0 min,  0.276 sec
     gradient                   ...        0 min,  0.125 sec
 * total energy  :  -147.5704532 Eh     change       -0.1976575E-03 Eh
   gradient norm :     0.0049483 Eh/α   predicted    -0.1712105E-03 ( -13.38%)
   displ. norm   :     0.3524276 α      lambda       -0.1360042E-03
   maximum displ.:     0.1348123 α      in ANC's #5, #6, #12, ...

........................................................................
.............................. CYCLE   26 ..............................
........................................................................
   1   -150.0981861 -0.150098E+03  0.716E-02    2.93       0.0  T
   2   -150.0981880 -0.192096E-05  0.419E-02    2.92       1.0  T
   3   -150.0981864  0.166270E-05  0.498E-03    2.92       2.1  T
   4   -150.0981888 -0.239683E-05  0.151E-03    2.92       6.9  T
   5   -150.0981889 -0.911725E-07  0.859E-04    2.92      12.1  T
   6   -150.0981889 -0.836772E-08  0.424E-04    2.92      24.6  T
     SCC iter.                  ...        0 min,  0.241 sec
     gradient                   ...        0 min,  0.133 sec
 * total energy  :  -147.5705557 Eh     change       -0.1024561E-03 Eh
   gradient norm :     0.0052062 Eh/α   predicted    -0.7644933E-04 ( -25.38%)
   displ. norm   :     0.3421395 α      lambda       -0.1437822E-03
   maximum displ.:     0.1373667 α      in ANC's #5, #6, #1, ...

........................................................................
.............................. CYCLE   27 ..............................
........................................................................
   1   -150.0992275 -0.150099E+03  0.656E-02    2.95       0.0  T
   2   -150.0992289 -0.136468E-05  0.385E-02    2.95       1.0  T
   3   -150.0992268  0.211881E-05  0.530E-03    2.95       2.0  T
   4   -150.0992296 -0.278777E-05  0.129E-03    2.95       8.1  T
   5   -150.0992296 -0.490474E-07  0.790E-04    2.95      13.2  T
   6   -150.0992296 -0.107030E-07  0.277E-04    2.95      37.6  T
     SCC iter.                  ...        0 min,  0.239 sec
     gradient                   ...        0 min,  0.140 sec
 * total energy  :  -147.5706699 Eh     change       -0.1142308E-03 Eh
   gradient norm :     0.0041777 Eh/α   predicted    -0.8030938E-04 ( -29.70%)
   displ. norm   :     0.5569503 α      lambda       -0.1885755E-03
   maximum displ.:     0.2231531 α      in ANC's #5, #6, #1, ...

........................................................................
.............................. CYCLE   28 ..............................
........................................................................
   1   -150.0977731 -0.150098E+03  0.109E-01    2.91       0.0  T
   2   -150.0977779 -0.475550E-05  0.642E-02    2.92       1.0  T
   3   -150.0977706  0.724734E-05  0.970E-03    2.92       1.1  T
   4   -150.0977802 -0.956192E-05  0.226E-03    2.92       4.6  T
   5   -150.0977803 -0.125283E-06  0.140E-03    2.92       7.5  T
   6   -150.0977804 -0.396175E-07  0.446E-04    2.92      23.4  T
   7   -150.0977804 -0.851713E-08  0.201E-04    2.92      51.8  T
     SCC iter.                  ...        0 min,  0.278 sec
     gradient                   ...        0 min,  0.137 sec
 * total energy  :  -147.5708020 Eh     change       -0.1321039E-03 Eh
   gradient norm :     0.0078026 Eh/α   predicted    -0.1235568E-03 (  -6.47%)
   displ. norm   :     0.4216379 α      lambda       -0.2482845E-03
   maximum displ.:     0.1738067 α      in ANC's #5, #1, #6, ...

........................................................................
.............................. CYCLE   29 ..............................
........................................................................
   1   -150.1022110 -0.150102E+03  0.732E-02    2.98       0.0  T
   2   -150.1022151 -0.409326E-05  0.429E-02    2.97       1.0  T
   3   -150.1022114  0.373130E-05  0.731E-03    2.97       1.4  T
   4   -150.1022162 -0.480942E-05  0.160E-03    2.97       6.5  T
   5   -150.1022163 -0.129746E-06  0.876E-04    2.97      11.9  T
   6   -150.1022163 -0.196915E-07  0.407E-04    2.97      25.6  T
     SCC iter.                  ...        0 min,  0.243 sec
     gradient                   ...        0 min,  0.139 sec
 * total energy  :  -147.5709572 Eh     change       -0.1552265E-03 Eh
   gradient norm :     0.0037842 Eh/α   predicted    -0.1462217E-03 (  -5.80%)
   displ. norm   :     0.4213705 α      lambda        0.4243626E-04
   maximum displ.:     0.1738093 α      in ANC's #5, #1, #6, ...

........................................................................
.............................. CYCLE   30 ..............................
........................................................................
   1   -150.1051407 -0.150105E+03  0.731E-02    3.02       0.0  T
   2   -150.1051444 -0.374587E-05  0.428E-02    3.01       1.0  T
   3   -150.1051411  0.330079E-05  0.670E-03    3.01       1.6  T
   4   -150.1051454 -0.424274E-05  0.164E-03    3.01       6.4  T
   5   -150.1051455 -0.148765E-06  0.868E-04    3.01      12.0  T
   6   -150.1051456 -0.178321E-07  0.419E-04    3.01      24.9  T
     SCC iter.                  ...        0 min,  0.247 sec
     gradient                   ...        0 min,  0.125 sec
 * total energy  :  -147.5709483 Eh     change        0.8986240E-05 Eh
   gradient norm :     0.0116233 Eh/α   predicted     0.2498322E-04 ( 178.02%)
   displ. norm   :     0.2887022 α      lambda       -0.2197966E-03
   maximum displ.:     0.1182638 α      in ANC's #5, #1, #6, ...

........................................................................
.............................. CYCLE   31 ..............................
........................................................................
   1   -150.1005105 -0.150101E+03  0.565E-02    2.93       0.0  T
   2   -150.1005165 -0.600029E-05  0.334E-02    2.95       1.0  T
   3   -150.1005129  0.360643E-05  0.880E-03    2.94       1.2  T
   4   -150.1005180 -0.510597E-05  0.149E-03    2.95       7.0  T
   5   -150.1005181 -0.637580E-07  0.941E-04    2.95      11.1  T
   6   -150.1005181 -0.324254E-07  0.393E-04    2.95      26.5  T
     SCC iter.                  ...        0 min,  0.239 sec
     gradient                   ...        0 min,  0.142 sec
 * total energy  :  -147.5710712 Eh     change       -0.1229000E-03 Eh
   gradient norm :     0.0069746 Eh/α   predicted    -0.1190601E-03 (  -3.12%)
   displ. norm   :     0.1008344 α      lambda       -0.1361191E-03
   maximum displ.:     0.0501228 α      in ANC's #12, #15, #9, ...

........................................................................
.............................. CYCLE   32 ..............................
........................................................................
   1   -150.1026182 -0.150103E+03  0.276E-02    2.96       0.0  T
   2   -150.1026200 -0.175471E-05  0.165E-02    2.95       1.0  T
   3   -150.1026183  0.165336E-05  0.491E-03    2.96       2.1  T
   4   -150.1026204 -0.205343E-05  0.106E-03    2.96       9.8  T
   5   -150.1026205 -0.103693E-06  0.357E-04    2.96      29.2  T
   6   -150.1026205 -0.250347E-08  0.202E-04    2.96      51.7  T
     SCC iter.                  ...        0 min,  0.238 sec
     gradient                   ...        0 min,  0.136 sec
 * total energy  :  -147.5711451 Eh     change       -0.7398966E-04 Eh
   gradient norm :     0.0045505 Eh/α   predicted    -0.6875251E-04 (  -7.08%)
   displ. norm   :     0.3642265 α      lambda       -0.1067749E-03
   maximum displ.:     0.1618022 α      in ANC's #1, #5, #6, ...

........................................................................
.............................. CYCLE   33 ..............................
........................................................................
   1   -150.1018962 -0.150102E+03  0.570E-02    2.96       0.0  T
   2   -150.1019004 -0.417223E-05  0.332E-02    2.96       1.0  T
   3   -150.1018991  0.129333E-05  0.504E-03    2.95       2.1  T
   4   -150.1019007 -0.162852E-05  0.170E-03    2.95       6.1  T
   5   -150.1019009 -0.240406E-06  0.634E-04    2.95      16.4  T
   6   -150.1019009 -0.875428E-08  0.373E-04    2.95      27.9  T
     SCC iter.                  ...        0 min,  0.244 sec
     gradient                   ...        0 min,  0.146 sec
 * total energy  :  -147.5712242 Eh     change       -0.7907748E-04 Eh
   gradient norm :     0.0031099 Eh/α   predicted    -0.6046810E-04 ( -23.53%)
   displ. norm   :     0.3711796 α      lambda       -0.9058126E-04
   maximum displ.:     0.1722944 α      in ANC's #1, #6, #5, ...

........................................................................
.............................. CYCLE   34 ..............................
........................................................................
   1   -150.1023097 -0.150102E+03  0.554E-02    2.97       0.0  T
   2   -150.1023107 -0.995746E-06  0.325E-02    2.97       1.0  T
   3   -150.1023092  0.152810E-05  0.440E-03    2.97       2.4  T
   4   -150.1023112 -0.198589E-05  0.937E-04    2.97      11.1  T
   5   -150.1023112 -0.288687E-07  0.557E-04    2.97      18.7  T
   6   -150.1023112 -0.471798E-08  0.186E-04    2.97      56.1  T
     SCC iter.                  ...        0 min,  0.233 sec
     gradient                   ...        0 min,  0.152 sec
 * total energy  :  -147.5712909 Eh     change       -0.6670477E-04 Eh
   gradient norm :     0.0021629 Eh/α   predicted    -0.5153165E-04 ( -22.75%)
   displ. norm   :     0.2734052 α      lambda       -0.5777878E-04
   maximum displ.:     0.1363851 α      in ANC's #1, #6, #5, ...

........................................................................
.............................. CYCLE   35 ..............................
........................................................................
   1   -150.1033316 -0.150103E+03  0.377E-02    2.98       0.0  T
   2   -150.1033327 -0.107669E-05  0.220E-02    2.97       1.0  T
   3   -150.1033320  0.638867E-06  0.299E-03    2.97       3.5  T
   4   -150.1033328 -0.809053E-06  0.931E-04    2.97      11.2  T
   5   -150.1033329 -0.685068E-07  0.396E-04    2.97      26.3  T
     SCC iter.                  ...        0 min,  0.200 sec
     gradient                   ...        0 min,  0.128 sec
 * total energy  :  -147.5713360 Eh     change       -0.4508949E-04 Eh
   gradient norm :     0.0022224 Eh/α   predicted    -0.3105587E-04 ( -31.12%)
   displ. norm   :     0.2530977 α      lambda       -0.5783071E-04
   maximum displ.:     0.1330688 α      in ANC's #1, #6, #5, ...

........................................................................
.............................. CYCLE   36 ..............................
........................................................................
   1   -150.1038412 -0.150104E+03  0.347E-02    2.98       0.0  T
   2   -150.1038415 -0.341000E-06  0.204E-02    2.98       1.0  T
   3   -150.1038409  0.666817E-06  0.277E-03    2.98       3.8  T
   4   -150.1038417 -0.835517E-06  0.602E-04    2.98      17.3  T
   5   -150.1038417 -0.117886E-07  0.355E-04    2.98      29.4  T
     SCC iter.                  ...        0 min,  0.197 sec
     gradient                   ...        0 min,  0.144 sec
 * total energy  :  -147.5713839 Eh     change       -0.4790645E-04 Eh
   gradient norm :     0.0022478 Eh/α   predicted    -0.3076867E-04 ( -35.77%)
   displ. norm   :     0.2942423 α      lambda       -0.7336115E-04
   maximum displ.:     0.1592607 α      in ANC's #1, #6, #10, ...

........................................................................
.............................. CYCLE   37 ..............................
........................................................................
   1   -150.1037786 -0.150104E+03  0.427E-02    2.98       0.0  T
   2   -150.1037792 -0.611349E-06  0.250E-02    2.98       1.0  T
   3   -150.1037776  0.162735E-05  0.412E-03    2.98       2.5  T
   4   -150.1037795 -0.191311E-05  0.827E-04    2.98      12.6  T
   5   -150.1037796 -0.332764E-07  0.430E-04    2.98      24.3  T
   6   -150.1037796 -0.345855E-08  0.203E-04    2.98      51.3  T
     SCC iter.                  ...        0 min,  0.241 sec
     gradient                   ...        0 min,  0.126 sec
 * total energy  :  -147.5714433 Eh     change       -0.5934783E-04 Eh
   gradient norm :     0.0025869 Eh/α   predicted    -0.3985715E-04 ( -32.84%)
   displ. norm   :     0.3220206 α      lambda       -0.7523672E-04
   maximum displ.:     0.1774269 α      in ANC's #1, #6, #10, ...

........................................................................
.............................. CYCLE   38 ..............................
........................................................................
   1   -150.1030100 -0.150103E+03  0.494E-02    2.97       0.0  T
   2   -150.1030107 -0.672613E-06  0.289E-02    2.98       1.0  T
   3   -150.1030081  0.257796E-05  0.504E-03    2.98       2.1  T
   4   -150.1030110 -0.297296E-05  0.889E-04    2.98      11.7  T
   5   -150.1030111 -0.339241E-07  0.460E-04    2.98      22.7  T
   6   -150.1030111 -0.334046E-08  0.201E-04    2.98      52.0  T
     SCC iter.                  ...        0 min,  0.243 sec
     gradient                   ...        0 min,  0.136 sec
 * total energy  :  -147.5715038 Eh     change       -0.6055341E-04 Eh
   gradient norm :     0.0024960 Eh/α   predicted    -0.4152153E-04 ( -31.43%)
   displ. norm   :     0.3021413 α      lambda       -0.6981298E-04
   maximum displ.:     0.1692971 α      in ANC's #1, #10, #3, ...

........................................................................
.............................. CYCLE   39 ..............................
........................................................................
   1   -150.1024569 -0.150102E+03  0.482E-02    2.97       0.0  T
   2   -150.1024575 -0.621253E-06  0.283E-02    2.97       1.0  T
   3   -150.1024550  0.252184E-05  0.490E-03    2.97       2.1  T
   4   -150.1024579 -0.288831E-05  0.850E-04    2.97      12.3  T
   5   -150.1024579 -0.357760E-07  0.415E-04    2.97      25.1  T
   6   -150.1024579 -0.235858E-08  0.183E-04    2.97      57.0  T
     SCC iter.                  ...        0 min,  0.242 sec
     gradient                   ...        0 min,  0.128 sec
 * total energy  :  -147.5715613 Eh     change       -0.5750720E-04 Eh
   gradient norm :     0.0022949 Eh/α   predicted    -0.3809492E-04 ( -33.76%)
   displ. norm   :     0.3066495 α      lambda       -0.7582462E-04
   maximum displ.:     0.1740192 α      in ANC's #1, #3, #12, ...

........................................................................
.............................. CYCLE   40 ..............................
........................................................................
   1   -150.1023109 -0.150102E+03  0.492E-02    2.97       0.0  T
   2   -150.1023116 -0.683797E-06  0.289E-02    2.97       1.0  T
   3   -150.1023092  0.232186E-05  0.468E-03    2.97       2.2  T
   4   -150.1023119 -0.266045E-05  0.897E-04    2.97      11.6  T
   5   -150.1023120 -0.465890E-07  0.411E-04    2.97      25.3  T
   6   -150.1023120 -0.279152E-08  0.194E-04    2.97      53.8  T
     SCC iter.                  ...        0 min,  0.236 sec
     gradient                   ...        0 min,  0.124 sec
 * total energy  :  -147.5716252 Eh     change       -0.6390059E-04 Eh
   gradient norm :     0.0019775 Eh/α   predicted    -0.4147959E-04 ( -35.09%)
   displ. norm   :     0.4995516 α      lambda       -0.8658539E-04
   maximum displ.:     0.2872211 α      in ANC's #1, #12, #3, ...

........................................................................
.............................. CYCLE   41 ..............................
........................................................................
   1   -150.1024790 -0.150102E+03  0.794E-02    2.96       0.0  T
   2   -150.1024806 -0.156581E-05  0.466E-02    2.96       1.0  T
   3   -150.1024758  0.473065E-05  0.676E-03    2.97       1.5  T
   4   -150.1024813 -0.548232E-05  0.134E-03    2.97       7.8  T
   5   -150.1024814 -0.106426E-06  0.623E-04    2.97      16.7  T
   6   -150.1024814 -0.577663E-08  0.283E-04    2.97      36.9  T
     SCC iter.                  ...        0 min,  0.237 sec
     gradient                   ...        0 min,  0.148 sec
 * total energy  :  -147.5717197 Eh     change       -0.9448385E-04 Eh
   gradient norm :     0.0025653 Eh/α   predicted    -0.4809600E-04 ( -49.10%)
   displ. norm   :     0.2661336 α      lambda       -0.6195834E-04
   maximum displ.:     0.1583083 α      in ANC's #1, #3, #10, ...

........................................................................
.............................. CYCLE   42 ..............................
........................................................................
   1   -150.1027949 -0.150103E+03  0.374E-02    2.95       0.0  T
   2   -150.1027953 -0.332275E-06  0.220E-02    2.95       1.0  T
   3   -150.1027945  0.721929E-06  0.282E-03    2.95       3.7  T
   4   -150.1027954 -0.875960E-06  0.608E-04    2.95      17.1  T
   5   -150.1027954 -0.156418E-07  0.338E-04    2.95      30.8  T
     SCC iter.                  ...        0 min,  0.201 sec
     gradient                   ...        0 min,  0.155 sec
 * total energy  :  -147.5717715 Eh     change       -0.5176065E-04 Eh
   gradient norm :     0.0028132 Eh/α   predicted    -0.3317452E-04 ( -35.91%)
   displ. norm   :     0.3334895 α      lambda       -0.8359569E-04
   maximum displ.:     0.1995005 α      in ANC's #1, #3, #12, ...
 * RMSD in coord.:     0.6043938 α      energy gain  -0.1826160E-02 Eh

generating ANC from model Hessian ...
Using Lindh-Hessian (1995)
 Shifting diagonal of input Hessian by    9.9522190011094580E-003
 Lowest  eigenvalues of input Hessian
    0.000000    0.000000    0.000000    0.000000    0.000000    0.000000
    0.010000    0.010063    0.010103    0.010163    0.010227    0.010303
    0.010410    0.010639    0.010757    0.010770    0.010876    0.011265
 Highest eigenvalues
    2.085243    2.126672    2.127750    2.333358    2.339256    2.391514


........................................................................
.............................. CYCLE   43 ..............................
........................................................................
   1   -150.1044345 -0.150104E+03  0.507E-02    2.97       0.0  T
   2   -150.1044354 -0.863612E-06  0.298E-02    2.96       1.0  T
   3   -150.1044341  0.120716E-05  0.392E-03    2.97       2.7  T
   4   -150.1044356 -0.149840E-05  0.771E-04    2.96      13.5  T
   5   -150.1044357 -0.310827E-07  0.416E-04    2.96      25.1  T
   6   -150.1044357 -0.326349E-08  0.175E-04    2.96      59.5  T
     SCC iter.                  ...        0 min,  0.237 sec
     gradient                   ...        0 min,  0.152 sec
 * total energy  :  -147.5718337 Eh     change       -0.6222640E-04 Eh
   gradient norm :     0.0025712 Eh/α   predicted     0.0000000E+00 (-100.00%)
   displ. norm   :     0.0350272 α      lambda       -0.2534146E-04
   maximum displ.:     0.0172022 α      in ANC's #1, #23, #17, ...

........................................................................
.............................. CYCLE   44 ..............................
........................................................................
   1   -150.1041832 -0.150104E+03  0.722E-03    2.95       0.0  T
   2   -150.1041834 -0.180370E-06  0.429E-03    2.96       2.4  T
   3   -150.1041833  0.730502E-07  0.151E-03    2.96       6.9  T
   4   -150.1041834 -0.112494E-06  0.234E-04    2.96      44.6  T
   5   -150.1041834 -0.398757E-08  0.115E-04    2.96      90.6  T
     SCC iter.                  ...        0 min,  0.198 sec
     gradient                   ...        0 min,  0.111 sec
 * total energy  :  -147.5718532 Eh     change       -0.1954154E-04 Eh
   gradient norm :     0.0011798 Eh/α   predicted    -0.1269078E-04 ( -35.06%)
   displ. norm   :     0.1342876 α      lambda       -0.3746808E-04
   maximum displ.:     0.0678427 α      in ANC's #1, #23, #9, ...

........................................................................
.............................. CYCLE   45 ..............................
........................................................................
   1   -150.1034637 -0.150103E+03  0.241E-02    2.94       0.0  T
   2   -150.1034651 -0.139878E-05  0.142E-02    2.94       1.0  T
   3   -150.1034641  0.918396E-06  0.418E-03    2.94       2.5  T
   4   -150.1034653 -0.116422E-05  0.851E-04    2.94      12.2  T
   5   -150.1034654 -0.674294E-07  0.338E-04    2.94      30.8  T
   6   -150.1034654 -0.582423E-08  0.172E-04    2.94      60.6  T
     SCC iter.                  ...        0 min,  0.239 sec
     gradient                   ...        0 min,  0.138 sec
 * total energy  :  -147.5718834 Eh     change       -0.3015767E-04 Eh
   gradient norm :     0.0029457 Eh/α   predicted    -0.1889448E-04 ( -37.35%)
   displ. norm   :     0.0516846 α      lambda       -0.1620848E-04
   maximum displ.:     0.0295937 α      in ANC's #1, #9, #12, ...

........................................................................
.............................. CYCLE   46 ..............................
........................................................................
   1   -150.1035106 -0.150104E+03  0.831E-03    2.95       0.0  T
   2   -150.1035107 -0.572557E-07  0.490E-03    2.94       2.1  T
   3   -150.1035105  0.143819E-06  0.122E-03    2.94       8.5  T
   4   -150.1035107 -0.165320E-06  0.230E-04    2.94      45.4  T
   5   -150.1035107 -0.357275E-08  0.944E-05    2.94     110.5  T
     SCC iter.                  ...        0 min,  0.198 sec
     gradient                   ...        0 min,  0.142 sec
 * total energy  :  -147.5718978 Eh     change       -0.1444214E-04 Eh
   gradient norm :     0.0021011 Eh/α   predicted    -0.8133317E-05 ( -43.68%)
   displ. norm   :     0.1455938 α      lambda       -0.4132645E-04
   maximum displ.:     0.0825688 α      in ANC's #1, #9, #7, ...

........................................................................
.............................. CYCLE   47 ..............................
........................................................................
   1   -150.1036373 -0.150104E+03  0.239E-02    2.96       0.0  T
   2   -150.1036377 -0.424268E-06  0.141E-02    2.95       1.0  T
   3   -150.1036368  0.910917E-06  0.319E-03    2.96       3.3  T
   4   -150.1036378 -0.106375E-05  0.607E-04    2.95      17.2  T
   5   -150.1036379 -0.276347E-07  0.255E-04    2.95      40.9  T
   6   -150.1036379 -0.957868E-09  0.122E-04    2.95      85.7  T
     SCC iter.                  ...        0 min,  0.238 sec
     gradient                   ...        0 min,  0.122 sec
 * total energy  :  -147.5719280 Eh     change       -0.3020607E-04 Eh
   gradient norm :     0.0012998 Eh/α   predicted    -0.2110912E-04 ( -30.12%)
   displ. norm   :     0.2082865 α      lambda       -0.2324205E-04
   maximum displ.:     0.1217013 α      in ANC's #1, #9, #7, ...

........................................................................
.............................. CYCLE   48 ..............................
........................................................................
   1   -150.1035680 -0.150104E+03  0.339E-02    2.96       0.0  T
   2   -150.1035685 -0.550886E-06  0.199E-02    2.96       1.0  T
   3   -150.1035675  0.104523E-05  0.333E-03    2.96       3.1  T
   4   -150.1035687 -0.121845E-05  0.720E-04    2.96      14.5  T
   5   -150.1035687 -0.372976E-07  0.321E-04    2.96      32.5  T
   6   -150.1035687 -0.243350E-08  0.158E-04    2.96      66.1  T
     SCC iter.                  ...        0 min,  0.239 sec
     gradient                   ...        0 min,  0.153 sec
 * total energy  :  -147.5719513 Eh     change       -0.2325398E-04 Eh
   gradient norm :     0.0021591 Eh/α   predicted    -0.1185051E-04 ( -49.04%)
   displ. norm   :     0.0817510 α      lambda       -0.1481490E-04
   maximum displ.:     0.0495392 α      in ANC's #1, #9, #7, ...

........................................................................
.............................. CYCLE   49 ..............................
........................................................................
   1   -150.1036569 -0.150104E+03  0.133E-02    2.96       0.0  T
   2   -150.1036570 -0.407575E-07  0.781E-03    2.96       1.3  T
   3   -150.1036569  0.412531E-07  0.729E-04    2.96      14.3  T
   4   -150.1036570 -0.550284E-07  0.180E-04    2.96      57.9  T
     SCC iter.                  ...        0 min,  0.163 sec
     gradient                   ...        0 min,  0.138 sec
 * total energy  :  -147.5719652 Eh     change       -0.1393088E-04 Eh
   gradient norm :     0.0017260 Eh/α   predicted    -0.7494988E-05 ( -46.20%)
   displ. norm   :     0.2835812 α      lambda       -0.4143236E-04
   maximum displ.:     0.1664922 α      in ANC's #1, #9, #4, ...

........................................................................
.............................. CYCLE   50 ..............................
........................................................................
   1   -150.1037501 -0.150104E+03  0.476E-02    2.94       0.0  T
   2   -150.1037506 -0.502701E-06  0.280E-02    2.94       1.0  T
   3   -150.1037497  0.881465E-06  0.319E-03    2.94       3.3  T
   4   -150.1037508 -0.109440E-05  0.612E-04    2.94      17.0  T
   5   -150.1037508 -0.164161E-07  0.331E-04    2.94      31.5  T
   6   -150.1037508 -0.161131E-08  0.128E-04    2.94      81.2  T
     SCC iter.                  ...        0 min,  0.239 sec
     gradient                   ...        0 min,  0.155 sec
 * total energy  :  -147.5720139 Eh     change       -0.4866687E-04 Eh
   gradient norm :     0.0016032 Eh/α   predicted    -0.2145800E-04 ( -55.91%)
   displ. norm   :     0.3640346 α      lambda       -0.3781513E-04
   maximum displ.:     0.2136814 α      in ANC's #1, #9, #4, ...

........................................................................
.............................. CYCLE   51 ..............................
........................................................................
   1   -150.1031610 -0.150103E+03  0.621E-02    2.94       0.0  T
   2   -150.1031617 -0.770839E-06  0.364E-02    2.94       1.0  T
   3   -150.1031606  0.114315E-05  0.364E-03    2.93       2.9  T
   4   -150.1031620 -0.145193E-05  0.766E-04    2.94      13.6  T
   5   -150.1031621 -0.262358E-07  0.417E-04    2.94      25.0  T
   6   -150.1031621 -0.295475E-08  0.193E-04    2.94      54.1  T
     SCC iter.                  ...        0 min,  0.241 sec
     gradient                   ...        0 min,  0.140 sec
 * total energy  :  -147.5720596 Eh     change       -0.4573819E-04 Eh
   gradient norm :     0.0022745 Eh/α   predicted    -0.2003862E-04 ( -56.19%)
   displ. norm   :     0.2491846 α      lambda       -0.3545478E-04
   maximum displ.:     0.1475647 α      in ANC's #1, #9, #4, ...

........................................................................
.............................. CYCLE   52 ..............................
........................................................................
   1   -150.1033351 -0.150103E+03  0.433E-02    2.93       0.0  T
   2   -150.1033355 -0.414535E-06  0.254E-02    2.93       1.0  T
   3   -150.1033351  0.405902E-06  0.226E-03    2.93       4.6  T
   4   -150.1033356 -0.541446E-06  0.576E-04    2.93      18.1  T
   5   -150.1033357 -0.170690E-07  0.304E-04    2.93      34.2  T
     SCC iter.                  ...        0 min,  0.201 sec
     gradient                   ...        0 min,  0.127 sec
 * total energy  :  -147.5720907 Eh     change       -0.3105156E-04 Eh
   gradient norm :     0.0020470 Eh/α   predicted    -0.1883199E-04 ( -39.35%)
   displ. norm   :     0.3376986 α      lambda       -0.4742585E-04
   maximum displ.:     0.2010377 α      in ANC's #1, #4, #9, ...

........................................................................
.............................. CYCLE   53 ..............................
........................................................................
   1   -150.1034254 -0.150103E+03  0.597E-02    2.93       0.0  T
   2   -150.1034263 -0.873575E-06  0.350E-02    2.93       1.0  T
   3   -150.1034256  0.648581E-06  0.301E-03    2.93       3.5  T
   4   -150.1034265 -0.914329E-06  0.810E-04    2.93      12.9  T
   5   -150.1034265 -0.324187E-07  0.425E-04    2.93      24.5  T
     SCC iter.                  ...        0 min,  0.205 sec
     gradient                   ...        0 min,  0.142 sec
 * total energy  :  -147.5721315 Eh     change       -0.4077317E-04 Eh
   gradient norm :     0.0014532 Eh/α   predicted    -0.2641932E-04 ( -35.20%)
   displ. norm   :     0.5536386 α      lambda       -0.4722924E-04
   maximum displ.:     0.3335929 α      in ANC's #1, #4, #10, ...

........................................................................
.............................. CYCLE   54 ..............................
........................................................................
   1   -150.1029015 -0.150103E+03  0.983E-02    2.92       0.0  T
   2   -150.1029039 -0.237530E-05  0.576E-02    2.92       1.0  T
   3   -150.1029022  0.162516E-05  0.490E-03    2.92       2.1  T
   4   -150.1029046 -0.237726E-05  0.135E-03    2.92       7.7  T
   5   -150.1029047 -0.813078E-07  0.741E-04    2.92      14.1  T
   6   -150.1029047 -0.557696E-08  0.350E-04    2.92      29.8  T
     SCC iter.                  ...        0 min,  0.239 sec
     gradient                   ...        0 min,  0.152 sec
 * total energy  :  -147.5721856 Eh     change       -0.5416567E-04 Eh
   gradient norm :     0.0017030 Eh/α   predicted    -0.2683298E-04 ( -50.46%)
   displ. norm   :     0.3801841 α      lambda       -0.3268827E-04
   maximum displ.:     0.2351688 α      in ANC's #1, #4, #10, ...

........................................................................
.............................. CYCLE   55 ..............................
........................................................................
   1   -150.1039780 -0.150104E+03  0.663E-02    2.92       0.0  T
   2   -150.1039790 -0.101808E-05  0.389E-02    2.92       1.0  T
   3   -150.1039781  0.880458E-06  0.342E-03    2.92       3.0  T
   4   -150.1039794 -0.124528E-05  0.983E-04    2.92      10.6  T
   5   -150.1039794 -0.414387E-07  0.567E-04    2.92      18.4  T
   6   -150.1039794 -0.422602E-08  0.282E-04    2.92      37.0  T
     SCC iter.                  ...        0 min,  0.247 sec
     gradient                   ...        0 min,  0.153 sec
 * total energy  :  -147.5722277 Eh     change       -0.4208018E-04 Eh
   gradient norm :     0.0015829 Eh/α   predicted    -0.1744773E-04 ( -58.54%)
   displ. norm   :     0.4609142 α      lambda       -0.4362001E-04
   maximum displ.:     0.2861088 α      in ANC's #1, #10, #4, ...

........................................................................
.............................. CYCLE   56 ..............................
........................................................................
   1   -150.1041234 -0.150104E+03  0.803E-02    2.92       0.0  T
   2   -150.1041246 -0.121820E-05  0.471E-02    2.92       1.0  T
   3   -150.1041228  0.179511E-05  0.462E-03    2.92       2.3  T
   4   -150.1041252 -0.240794E-05  0.113E-03    2.92       9.2  T
   5   -150.1041252 -0.314048E-07  0.706E-04    2.92      14.8  T
   6   -150.1041253 -0.809118E-08  0.289E-04    2.92      36.1  T
     SCC iter.                  ...        0 min,  0.238 sec
     gradient                   ...        0 min,  0.140 sec
 * total energy  :  -147.5722865 Eh     change       -0.5874059E-04 Eh
   gradient norm :     0.0015206 Eh/α   predicted    -0.2387150E-04 ( -59.36%)
   displ. norm   :     0.6288749 α      lambda       -0.6839560E-04
   maximum displ.:     0.3913995 α      in ANC's #1, #10, #4, ...

........................................................................
.............................. CYCLE   57 ..............................
........................................................................
   1   -150.1044813 -0.150104E+03  0.107E-01    2.91       0.0  T
   2   -150.1044838 -0.248095E-05  0.629E-02    2.91       1.0  T
   3   -150.1044795  0.433022E-05  0.699E-03    2.91       1.5  T
   4   -150.1044850 -0.557358E-05  0.162E-03    2.91       6.4  T
   5   -150.1044851 -0.764667E-07  0.996E-04    2.91      10.5  T
   6   -150.1044851 -0.155836E-07  0.425E-04    2.91      24.5  T
     SCC iter.                  ...        0 min,  0.243 sec
     gradient                   ...        0 min,  0.128 sec
 * total energy  :  -147.5723764 Eh     change       -0.8990234E-04 Eh
   gradient norm :     0.0015763 Eh/α   predicted    -0.4022148E-04 ( -55.26%)
   displ. norm   :     0.7966615 α      lambda       -0.8493305E-04
   maximum displ.:     0.4954924 α      in ANC's #1, #10, #4, ...

........................................................................
.............................. CYCLE   58 ..............................
........................................................................
   1   -150.1026006 -0.150103E+03  0.135E-01    2.90       0.0  T
   2   -150.1026047 -0.410752E-05  0.791E-02    2.90       1.0  T
   3   -150.1025959  0.872947E-05  0.980E-03    2.89       1.1  T
   4   -150.1026068 -0.108526E-04  0.206E-03    2.90       5.1  T
   5   -150.1026069 -0.136502E-06  0.125E-03    2.90       8.3  T
   6   -150.1026070 -0.236684E-07  0.532E-04    2.90      19.6  T
   7   -150.1026070 -0.872055E-08  0.175E-04    2.90      59.5  T
     SCC iter.                  ...        0 min,  0.282 sec
     gradient                   ...        0 min,  0.125 sec
 * total energy  :  -147.5724820 Eh     change       -0.1056405E-03 Eh
   gradient norm :     0.0034798 Eh/α   predicted    -0.5444587E-04 ( -48.46%)
   displ. norm   :     0.5053531 α      lambda       -0.1095219E-03
   maximum displ.:     0.3085721 α      in ANC's #1, #10, #4, ...

........................................................................
.............................. CYCLE   59 ..............................
........................................................................
   1   -150.1052181 -0.150105E+03  0.794E-02    2.91       0.0  T
   2   -150.1052201 -0.194006E-05  0.465E-02    2.91       1.0  T
   3   -150.1052159  0.413823E-05  0.657E-03    2.91       1.6  T
   4   -150.1052209 -0.499382E-05  0.137E-03    2.91       7.6  T
   5   -150.1052210 -0.797427E-07  0.761E-04    2.91      13.7  T
   6   -150.1052210 -0.820424E-08  0.374E-04    2.91      27.9  T
     SCC iter.                  ...        0 min,  0.239 sec
     gradient                   ...        0 min,  0.143 sec
 * total energy  :  -147.5725672 Eh     change       -0.8522203E-04 Eh
   gradient norm :     0.0018880 Eh/α   predicted    -0.6874641E-04 ( -19.33%)
   displ. norm   :     1.0030899 α      lambda       -0.1049036E-03
   maximum displ.:     0.6206544 α      in ANC's #1, #10, #4, ...

........................................................................
.............................. CYCLE   60 ..............................
........................................................................
   1   -150.0997644 -0.150100E+03  0.165E-01    2.87       0.0  T
   2   -150.0997724 -0.800214E-05  0.966E-02    2.87       1.0  T
   3   -150.0997555  0.169065E-04  0.139E-02    2.87       1.0  T
   4   -150.0997761 -0.206128E-04  0.279E-03    2.87       3.7  T
   5   -150.0997764 -0.345015E-06  0.159E-03    2.87       6.5  T
   6   -150.0997765 -0.331583E-07  0.694E-04    2.87      15.0  T
   7   -150.0997765 -0.135403E-07  0.254E-04    2.87      41.0  T
     SCC iter.                  ...        0 min,  0.278 sec
     gradient                   ...        0 min,  0.146 sec
 * total energy  :  -147.5726663 Eh     change       -0.9904295E-04 Eh
   gradient norm :     0.0072566 Eh/α   predicted    -0.7591671E-04 ( -23.35%)
   displ. norm   :     0.2985359 α      lambda       -0.1163208E-03
   maximum displ.:     0.1723990 α      in ANC's #1, #10, #6, ...

........................................................................
.............................. CYCLE   61 ..............................
........................................................................
   1   -150.1027080 -0.150103E+03  0.434E-02    2.90       0.0  T
   2   -150.1027093 -0.130615E-05  0.255E-02    2.90       1.0  T
   3   -150.1027075  0.178927E-05  0.490E-03    2.90       2.1  T
   4   -150.1027097 -0.217377E-05  0.982E-04    2.90      10.6  T
   5   -150.1027098 -0.648518E-07  0.444E-04    2.90      23.5  T
   6   -150.1027098 -0.133292E-08  0.202E-04    2.90      51.7  T
     SCC iter.                  ...        0 min,  0.241 sec
     gradient                   ...        0 min,  0.070 sec
 * total energy  :  -147.5727578 Eh     change       -0.9149454E-04 Eh
   gradient norm :     0.0035482 Eh/α   predicted    -0.6335300E-04 ( -30.76%)
   displ. norm   :     0.4585423 α      lambda       -0.1378761E-03
   maximum displ.:     0.2658190 α      in ANC's #1, #10, #6, ...

........................................................................
.............................. CYCLE   62 ..............................
........................................................................
   1   -150.1064799 -0.150106E+03  0.658E-02    2.90       0.0  T
   2   -150.1064813 -0.144261E-05  0.387E-02    2.90       1.0  T
   3   -150.1064778  0.354119E-05  0.619E-03    2.90       1.7  T
   4   -150.1064821 -0.425793E-05  0.128E-03    2.90       8.2  T
   5   -150.1064821 -0.685234E-07  0.711E-04    2.90      14.7  T
   6   -150.1064821 -0.478545E-08  0.313E-04    2.90      33.3  T
     SCC iter.                  ...        0 min,  0.243 sec
     gradient                   ...        0 min,  0.138 sec
 * total energy  :  -147.5728584 Eh     change       -0.1006076E-03 Eh
   gradient norm :     0.0027955 Eh/α   predicted    -0.8343319E-04 ( -17.07%)
   displ. norm   :     0.6477062 α      lambda       -0.1337972E-03
   maximum displ.:     0.3966930 α      in ANC's #1, #10, #6, ...

........................................................................
.............................. CYCLE   63 ..............................
........................................................................
   1   -150.1045339 -0.150105E+03  0.995E-02    2.91       0.0  T
   2   -150.1045376 -0.376673E-05  0.584E-02    2.91       1.0  T
   3   -150.1045313  0.637350E-05  0.836E-03    2.91       1.2  T
   4   -150.1045388 -0.752292E-05  0.194E-03    2.91       5.4  T
   5   -150.1045390 -0.244481E-06  0.917E-04    2.91      11.4  T
   6   -150.1045390 -0.148878E-07  0.495E-04    2.91      21.1  T
     SCC iter.                  ...        0 min,  0.235 sec
     gradient                   ...        0 min,  0.136 sec
 * total energy  :  -147.5729619 Eh     change       -0.1035716E-03 Eh
   gradient norm :     0.0029764 Eh/α   predicted    -0.9496506E-04 (  -8.31%)
   displ. norm   :     0.5549301 α      lambda       -0.1156606E-03
   maximum displ.:     0.3356938 α      in ANC's #1, #10, #6, ...

........................................................................
.............................. CYCLE   64 ..............................
........................................................................
   1   -150.1037421 -0.150104E+03  0.822E-02    2.88       0.0  T
   2   -150.1037445 -0.236018E-05  0.483E-02    2.89       1.0  T
   3   -150.1037390  0.542271E-05  0.773E-03    2.89       1.3  T
   4   -150.1037455 -0.643836E-05  0.169E-03    2.89       6.2  T
   5   -150.1037456 -0.154835E-06  0.855E-04    2.89      12.2  T
   6   -150.1037456 -0.845040E-08  0.398E-04    2.89      26.2  T
     SCC iter.                  ...        0 min,  0.239 sec
     gradient                   ...        0 min,  0.150 sec
 * total energy  :  -147.5730488 Eh     change       -0.8689839E-04 Eh
   gradient norm :     0.0039192 Eh/α   predicted    -0.7564356E-04 ( -12.95%)
   displ. norm   :     0.4479382 α      lambda       -0.1326799E-03
   maximum displ.:     0.2599381 α      in ANC's #1, #10, #6, ...

........................................................................
.............................. CYCLE   65 ..............................
........................................................................
   1   -150.1054008 -0.150105E+03  0.660E-02    2.91       0.0  T
   2   -150.1054035 -0.264026E-05  0.388E-02    2.91       1.0  T
   3   -150.1053980  0.542579E-05  0.772E-03    2.91       1.4  T
   4   -150.1054042 -0.618997E-05  0.178E-03    2.91       5.8  T
   5   -150.1054045 -0.237404E-06  0.707E-04    2.91      14.7  T
   6   -150.1054045 -0.826887E-08  0.382E-04    2.91      27.3  T
     SCC iter.                  ...        0 min,  0.238 sec
     gradient                   ...        0 min,  0.126 sec
 * total energy  :  -147.5731331 Eh     change       -0.8430256E-04 Eh
   gradient norm :     0.0038804 Eh/α   predicted    -0.7965211E-04 (  -5.52%)
   displ. norm   :     0.4663886 α      lambda       -0.1056024E-03
[...]
    47   6 C        2.978     0.010    27.778     8.645
    48   6 C        2.925    -0.032    28.801     8.801
    49   6 C        2.919    -0.028    28.710     8.787
    50   6 C        2.920    -0.029    28.716     8.788
    51   6 C        2.919    -0.028    28.693     8.784
    52   6 C        2.926    -0.034    28.840     8.807
    53   6 C        2.925    -0.031    28.765     8.795
    54   6 C        2.917    -0.027    28.687     8.783
    55   6 C        2.924    -0.024    28.601     8.770
    56   8 O        0.859    -0.408    21.848     6.267
    57   1 H        0.926     0.036     2.497     2.471
    58   1 H        0.926     0.039     2.456     2.451
    59   1 H        0.926     0.035     2.519     2.482
    60   1 H        0.926     0.033     2.548     2.496
    61   1 H        0.926     0.032     2.564     2.504
    62   1 H        0.925     0.030     2.589     2.516
    63   1 H        0.926     0.035     2.518     2.482
    64   1 H        0.924     0.082     1.954     2.186
    65   1 H        0.924     0.064     2.155     2.296
    66   1 H        0.925     0.024     2.679     2.560
    67   1 H        0.926     0.030     2.580     2.512
    68   1 H        0.926     0.031     2.579     2.511
    69   1 H        0.926     0.031     2.578     2.511
    70   1 H        0.926     0.033     2.548     2.496
    71   1 H        0.926     0.038     2.477     2.461
    72   1 H        0.926     0.035     2.511     2.478
    73   1 H        0.926     0.048     2.343     2.394
    74   1 H        0.926     0.041     2.435     2.440
    75   1 H        0.926     0.040     2.446     2.446
    76   1 H        0.926     0.030     2.583     2.513
    77   1 H        0.926     0.030     2.579     2.511
    78   1 H        0.926     0.032     2.552     2.498
    79   1 H        0.926     0.033     2.541     2.493
    80   1 H        0.926     0.035     2.519     2.482
    81   1 H        0.926     0.029     2.605     2.524
    82   1 H        0.924     0.075     2.027     2.227
    83   1 H        0.804     0.343     0.604     1.221
    84   1 H        0.926     0.047     2.362     2.403
    85   1 H        0.926     0.034     2.526     2.485
    86   1 H        0.926     0.034     2.537     2.491
    87   1 H        0.926     0.033     2.544     2.494
    88   1 H        0.926     0.029     2.598     2.521
    89   1 H        0.926     0.031     2.578     2.511
    90   1 H        0.926     0.038     2.473     2.459
    91   1 H        0.926     0.041     2.433     2.439
    92   1 H        0.926     0.046     2.375     2.410

 Mol. C6AA /au·bohr⁶  :     119731.946556
 Mol. C8AA /au·bohr⁸  :    2999973.107472
 Mol. α(0) /au        :        553.999126


Wiberg/Mayer (AO) data.
largest (>0.10) Wiberg bond orders for each atom

 ---------------------------------------------------------------------------
     #   Z sym  total        # sym  WBO       # sym  WBO       # sym  WBO
 ---------------------------------------------------------------------------
     1   6 C    3.991 --     2 C    1.568    10 C    1.287    57 H    0.967
     2   6 C    3.991 --     1 C    1.568     3 C    1.273    58 H    0.968
                             9 C    0.113
     3   6 C    3.990 --     4 C    1.283     2 C    1.273     8 C    1.252
     4   6 C    3.992 --     5 C    1.555     3 C    1.283    59 H    0.968
                             7 C    0.118
     5   6 C    3.990 --     4 C    1.555     6 C    1.322    60 H    0.971
     6   6 C    3.992 --     7 C    1.556     5 C    1.322    61 H    0.971
     7   6 C    3.990 --     6 C    1.556     8 C    1.280    62 H    0.968
                             4 C    0.118
     8   6 C    3.990 --     7 C    1.280     9 C    1.278     3 C    1.252
     9   6 C    3.990 --    10 C    1.529     8 C    1.278    63 H    0.964
                             2 C    0.113
    10   6 C    3.985 --     9 C    1.529     1 C    1.287    11 C    0.993
    11   6 C    3.958 --    10 C    0.993    42 N    0.966    12 C    0.944
                            64 H    0.941
    12   6 C    3.958 --    13 C    0.995    65 H    0.954    23 N    0.952
                            11 C    0.944
    13   6 C    3.985 --    14 C    1.519    22 C    1.299    12 C    0.995
    14   6 C    3.991 --    13 C    1.519    15 C    1.287    66 H    0.966
                            21 C    0.116
    15   6 C    3.990 --    14 C    1.287    16 C    1.277    20 C    1.249
    16   6 C    3.991 --    17 C    1.559    15 C    1.277    67 H    0.968
                            19 C    0.118
    17   6 C    3.992 --    16 C    1.559    18 C    1.319    68 H    0.971
    18   6 C    3.990 --    19 C    1.557    17 C    1.319    69 H    0.971
    19   6 C    3.992 --    18 C    1.557    20 C    1.281    70 H    0.968
                            16 C    0.118
    20   6 C    3.990 --    19 C    1.281    21 C    1.279    15 C    1.249
    21   6 C    3.991 --    22 C    1.559    20 C    1.279    71 H    0.968
                            14 C    0.116
    22   6 C    3.990 --    21 C    1.559    13 C    1.299    72 H    0.967
    23   7 N    3.460 --    24 C    1.198    38 C    0.990    12 C    0.952
                            37 O    0.189
    24   6 C    3.946 --    37 O    1.700    23 N    1.198    25 C    0.964
    25   6 C    3.987 --    36 C    1.411    26 C    1.395    24 C    0.964
                            28 C    0.104
    26   6 C    3.983 --    27 C    1.436    25 C    1.395    73 H    0.969
                            29 C    0.103
    27   6 C    3.990 --    28 C    1.451    26 C    1.436    74 H    0.969
                            36 C    0.104
    28   6 C    3.990 --    27 C    1.451    29 C    1.383    75 H    0.967
                            25 C    0.104
    29   6 C    3.988 --    36 C    1.388    28 C    1.383    30 C    1.051
                            26 C    0.103
    30   6 C    3.988 --    35 C    1.388    31 C    1.385    29 C    1.051
                            33 C    0.105
    31   6 C    3.991 --    32 C    1.453    30 C    1.385    76 H    0.966
                            34 C    0.108
    32   6 C    3.992 --    31 C    1.453    33 C    1.433    77 H    0.971
                            35 C    0.108
    33   6 C    3.986 --    34 C    1.435    32 C    1.433    78 H    0.971
                            30 C    0.105
    34   6 C    3.992 --    35 C    1.451    33 C    1.435    79 H    0.971
                            31 C    0.108
    35   6 C    3.991 --    34 C    1.451    30 C    1.388    80 H    0.968
                            32 C    0.108
    36   6 C    3.991 --    25 C    1.411    29 C    1.388    81 H    0.965
                            27 C    0.104
    37   8 O    2.030 --    24 C    1.700    23 N    0.189
    38   6 C    3.972 --    23 N    0.990    42 N    0.980    82 H    0.923
                            39 C    0.915
    39   6 C    3.920 --    41 O    1.793    40 O    1.142    38 C    0.915
    40   8 O    2.211 --    39 C    1.142    83 H    0.855    41 O    0.180
    41   8 O    2.070 --    39 C    1.793    40 O    0.180
    42   7 N    3.432 --    43 C    1.168    38 C    0.980    11 C    0.966
                            56 O    0.179
    43   6 C    3.943 --    56 O    1.713    42 N    1.168    44 C    0.977
    44   6 C    3.987 --    45 C    1.401    55 C    1.396    43 C    0.977
                            53 C    0.103
    45   6 C    3.990 --    44 C    1.401    46 C    1.393    84 H    0.964
                            54 C    0.105
    46   6 C    3.988 --    45 C    1.393    53 C    1.383    47 C    1.047
                            55 C    0.102
    47   6 C    3.989 --    48 C    1.390    52 C    1.387    46 C    1.047
                            50 C    0.105
    48   6 C    3.991 --    49 C    1.451    47 C    1.390    85 H    0.969
                            51 C    0.108
    49   6 C    3.992 --    48 C    1.451    50 C    1.435    86 H    0.971
                            52 C    0.109
    50   6 C    3.987 --    49 C    1.435    51 C    1.434    87 H    0.971
                            47 C    0.105
    51   6 C    3.992 --    52 C    1.452    50 C    1.434    88 H    0.971
                            48 C    0.108
    52   6 C    3.991 --    51 C    1.452    47 C    1.387    89 H    0.966
                            49 C    0.109
    53   6 C    3.990 --    54 C    1.450    46 C    1.383    90 H    0.967
                            44 C    0.103
    54   6 C    3.990 --    53 C    1.450    55 C    1.436    91 H    0.969
                            45 C    0.105
    55   6 C    3.985 --    54 C    1.436    44 C    1.396    92 H    0.969
                            46 C    0.102
    56   8 O    2.035 --    43 C    1.713    42 N    0.179
    57   1 H    0.998 --     1 C    0.967
    58   1 H    0.997 --     2 C    0.968
    59   1 H    0.998 --     4 C    0.968
    60   1 H    0.998 --     5 C    0.971
    61   1 H    0.999 --     6 C    0.971
    62   1 H    0.999 --     7 C    0.968
    63   1 H    0.998 --     9 C    0.964
    64   1 H    0.991 --    11 C    0.941
    65   1 H    0.995 --    12 C    0.954
    66   1 H    0.999 --    14 C    0.966
    67   1 H    0.999 --    16 C    0.968
    68   1 H    0.999 --    17 C    0.971
    69   1 H    0.999 --    18 C    0.971
    70   1 H    0.998 --    19 C    0.968
    71   1 H    0.998 --    21 C    0.968
    72   1 H    0.998 --    22 C    0.967
    73   1 H    0.997 --    26 C    0.969
    74   1 H    0.997 --    27 C    0.969
    75   1 H    0.998 --    28 C    0.967
    76   1 H    0.999 --    31 C    0.966
    77   1 H    0.999 --    32 C    0.971
    78   1 H    0.998 --    33 C    0.971
    79   1 H    0.998 --    34 C    0.971
    80   1 H    0.999 --    35 C    0.968
    81   1 H    0.999 --    36 C    0.965
    82   1 H    0.994 --    38 C    0.923
    83   1 H    0.881 --    40 O    0.855
    84   1 H    0.998 --    45 C    0.964
    85   1 H    0.999 --    48 C    0.969
    86   1 H    0.998 --    49 C    0.971
    87   1 H    0.998 --    50 C    0.971
    88   1 H    0.999 --    51 C    0.971
    89   1 H    0.999 --    52 C    0.966
    90   1 H    0.998 --    53 C    0.967
    91   1 H    0.997 --    54 C    0.969
    92   1 H    0.997 --    55 C    0.969
 ---------------------------------------------------------------------------

Topologies differ in total number of bonds
Writing topology from bond orders to xtbtopo.mol

molecular dipole:
                 x           y           z       tot (Debye)
 q only:        1.028      -1.490       0.264
   full:        1.141      -1.868       0.225       5.594
molecular quadrupole (traceless):
                xx          xy          yy          xz          yz          zz
 q only:       10.737       4.046      19.373      -9.937      -3.087     -30.110
  q+dip:       18.070       0.771      23.791     -22.717     -11.815     -41.861
   full:       14.615       4.049      18.949     -14.546      -4.720     -33.565

           -------------------------------------------------
          |                Geometry Summary                 |
           -------------------------------------------------

      molecular mass/u    :      728.8336881
   center of mass at/Å    :       -0.0221821       0.1529909      -0.0200793
  moments of inertia/u·Å² :        0.8006760E+04   0.1150285E+05   0.1599701E+05
rotational constants/cm⁻¹ :        0.2105425E-02   0.1465517E-02   0.1053799E-02

 * 92 selected distances

     #   Z          #   Z                                           value/Å
     1   6 C        2   6 C                                       1.3646215
     2   6 C        3   6 C                                       1.4108959
     3   6 C        4   6 C                                       1.4096411
     4   6 C        5   6 C                                       1.3671122
     5   6 C        6   6 C                                       1.4035964
     6   6 C        7   6 C                                       1.3668454
     3   6 C        8   6 C                                       1.4183297
     7   6 C        8   6 C                                       1.4103744
     8   6 C        9   6 C                                       1.4097532
     1   6 C       10   6 C                                       1.4098018
     9   6 C       10   6 C                                       1.3691769
    13   6 C       14   6 C                                       1.3715142
    14   6 C       15   6 C                                       1.4073517
    15   6 C       16   6 C                                       1.4107277
    16   6 C       17   6 C                                       1.3662746
    17   6 C       18   6 C                                       1.4040816
    18   6 C       19   6 C                                       1.3666129
    15   6 C       20   6 C                                       1.4192520
    19   6 C       20   6 C                                       1.4101555
    20   6 C       21   6 C                                       1.4097209
    13   6 C       22   6 C                                       1.4060328
    21   6 C       22   6 C                                       1.3652235
    12   6 C       23   7 N                                       1.4634788 (max)
    23   7 N       24   6 C                                       1.3610232
    25   6 C       26   6 C                                       1.3907483
    26   6 C       27   6 C                                       1.3827994
    27   6 C       28   6 C                                       1.3819091
    28   6 C       29   6 C                                       1.3940781
    30   6 C       31   6 C                                       1.3938111
    31   6 C       32   6 C                                       1.3813797
    32   6 C       33   6 C                                       1.3843389
    33   6 C       34   6 C                                       1.3845131
    30   6 C       35   6 C                                       1.3932911
    34   6 C       35   6 C                                       1.3824687
    25   6 C       36   6 C                                       1.3881671
    29   6 C       36   6 C                                       1.3937348
    24   6 C       37   8 O                                       1.2111283
    23   7 N       38   6 C                                       1.4371695
    39   6 C       40   8 O                                       1.3332978
    39   6 C       41   8 O                                       1.1964084
    11   6 C       42   7 N                                       1.4576126
    38   6 C       42   7 N                                       1.4419611
    42   7 N       43   6 C                                       1.3745060
    44   6 C       45   6 C                                       1.3895181
    45   6 C       46   6 C                                       1.3914525
    47   6 C       48   6 C                                       1.3924046
    48   6 C       49   6 C                                       1.3824083
    49   6 C       50   6 C                                       1.3846174
    50   6 C       51   6 C                                       1.3845223
    47   6 C       52   6 C                                       1.3930958
    51   6 C       52   6 C                                       1.3816786
    46   6 C       53   6 C                                       1.3935794
    53   6 C       54   6 C                                       1.3824084
    44   6 C       55   6 C                                       1.3901881
    54   6 C       55   6 C                                       1.3834712
    43   6 C       56   8 O                                       1.2107853
     1   6 C       57   1 H                                       1.0800147
     2   6 C       58   1 H                                       1.0804371
     4   6 C       59   1 H                                       1.0806023
     5   6 C       60   1 H                                       1.0800883
     6   6 C       61   1 H                                       1.0802910
     7   6 C       62   1 H                                       1.0812812
     9   6 C       63   1 H                                       1.0805836
    11   6 C       64   1 H                                       1.0972079
    12   6 C       65   1 H                                       1.0958970
    14   6 C       66   1 H                                       1.0823609
    16   6 C       67   1 H                                       1.0809620
    17   6 C       68   1 H                                       1.0804057
    18   6 C       69   1 H                                       1.0803374
    19   6 C       70   1 H                                       1.0808348
    21   6 C       71   1 H                                       1.0806001
    22   6 C       72   1 H                                       1.0803441
    26   6 C       73   1 H                                       1.0794915
    27   6 C       74   1 H                                       1.0797597
    28   6 C       75   1 H                                       1.0794866
    31   6 C       76   1 H                                       1.0793157
    32   6 C       77   1 H                                       1.0798809
    33   6 C       78   1 H                                       1.0797761
    34   6 C       79   1 H                                       1.0804181
    35   6 C       80   1 H                                       1.0801778
    36   6 C       81   1 H                                       1.0811944
    38   6 C       82   1 H                                       1.0931665
    40   8 O       83   1 H                                       0.9720363 (min)
    45   6 C       84   1 H                                       1.0795683
    48   6 C       85   1 H                                       1.0803626
    49   6 C       86   1 H                                       1.0803572
    50   6 C       87   1 H                                       1.0798288
    51   6 C       88   1 H                                       1.0801244
    52   6 C       89   1 H                                       1.0794922
    53   6 C       90   1 H                                       1.0799449
    54   6 C       91   1 H                                       1.0796307
    55   6 C       92   1 H                                       1.0792967

 * 5 distinct bonds (by element types)

   Z      Z             #   av. dist./Å        max./Å        min./Å
   1 H    6 C          35     1.0815292     1.0972079     1.0792967
   6 C    6 C          46     1.3908191     1.4192520     1.3646215
   6 C    7 N           6     1.4226252     1.4634788     1.3610232
   1 H    8 O           1     0.9720363     0.9720363     0.9720363
   6 C    8 O           4     1.2379050     1.3332978     1.1964084


optimized geometry written to: xtbopt.xyz


           -------------------------------------------------
          | TOTAL ENERGY             -147.584978693935 Eh   |
          | GRADIENT NORM               0.000302876477 Eh/α |
          | HOMO-LUMO GAP               2.840918119234 eV   |
           -------------------------------------------------

------------------------------------------------------------------------
 * finished run on 2022/03/16 at 23:59:17.470     
------------------------------------------------------------------------
 total:
 * wall-time:     0 d,  0 h,  1 min, 38.698 sec
 *  cpu-time:     0 d,  0 h, 28 min, 38.451 sec
 * ratio c/w:    17.411 speedup
 SCF:
 * wall-time:     0 d,  0 h,  0 min,  0.837 sec
 *  cpu-time:     0 d,  0 h,  0 min, 10.610 sec
 * ratio c/w:    12.673 speedup
 ANC optimizer:
 * wall-time:     0 d,  0 h,  1 min, 37.705 sec
 *  cpu-time:     0 d,  0 h, 28 min, 23.541 sec
 * ratio c/w:    17.436 speedup

