      -----------------------------------------------------------      
     |                   =====================                   |     
     |                           x T B                           |     
     |                   =====================                   |     
     |                         S. Grimme                         |     
     |          Mulliken Center for Theoretical Chemistry        |     
     |                    University of Bonn                     |     
      -----------------------------------------------------------      

   * xtb version 6.3.3 (4ae9cef) compiled by 'conda@95abc7406d43' on 2020-10-14

   xtb is free software: you can redistribute it and/or modify it under
   the terms of the GNU Lesser General Public License as published by
   the Free Software Foundation, either version 3 of the License, or
   (at your option) any later version.
   
   xtb is distributed in the hope that it will be useful,
   but WITHOUT ANY WARRANTY; without even the implied warranty of
   MERCHANTABILITY or FITNESS FOR A PARTICULAR PURPOSE.  See the
   GNU Lesser General Public License for more details.
   
   Cite this work as:
   * C. Bannwarth, E. Caldeweyher, S. Ehlert, A. Hansen, P. Pracht,
     J. Seibert, S. Spicher, S. Grimme, WIREs Comput. Mol. Sci., 2020,
     e01493. DOI: 10.1002/wcms.1493
   
   for GFN2-xTB:
   * S. Grimme, C. Bannwarth, P. Shushkov, J. Chem. Theory Comput., 2017,
     13, 1989-2009. DOI: 10.1021/acs.jctc.7b00118
   for GFN1-xTB:
   * C. Bannwarth, S. Ehlert and S. Grimme., J. Chem. Theory Comput., 2019,
     15, 1652-1671. DOI: 10.1021/acs.jctc.8b01176
   for GFN0-xTB:
   * P. Pracht, E. Caldeweyher, S. Ehlert, S. Grimme, ChemRxiv, 2019, preprint.
     DOI: 10.26434/chemrxiv.8326202.v1
   for GFN-FF:
   * S. Spicher and S. Grimme, Angew. Chem. Int. Ed., 2020, 59, 15665-15673.
     DOI: 10.1002/anie.202004239
   
   for DFT-D4:
   * E. Caldeweyher, C. Bannwarth and S. Grimme, J. Chem. Phys., 2017,
     147, 034112. DOI: 10.1063/1.4993215
   * E. Caldeweyher, S. Ehlert, A. Hansen, H. Neugebauer, S. Spicher,
     C. Bannwarth and S. Grimme, J. Chem. Phys., 2019, 150, 154122.
     DOI: 10.1063/1.5090222
   * E. Caldeweyher, J.-M. Mewes, S. Ehlert and S. Grimme, Phys. Chem. Chem. Phys.
     2020, 22, 8499-8512. DOI: 10.1039/D0CP00502A
   
   for sTDA-xTB:
   * S. Grimme and C. Bannwarth, J. Chem. Phys., 2016, 145, 054103.
     DOI: 10.1063/1.4959605
   
   in the mass-spec context:
   * V. Asgeirsson, C. Bauer and S. Grimme, Chem. Sci., 2017, 8, 4879.
     DOI: 10.1039/c7sc00601b
   * J. Koopman and S. Grimme, ACS Omega 2019, 4, 12, 15120-15133.
     DOI: 10.1021/acsomega.9b02011
   
   for metadynamics refer to:
   * S. Grimme, J. Chem. Theory Comput., 2019, 155, 2847-2862
     DOI: 10.1021/acs.jctc.9b00143
   
   with help from (in alphabetical order)
   C. Bannwarth, F. Bohle, G. Brandenburg, E. Caldeweyher, M. Checinski,
   S. Dohm, S. Ehlert, S. Ehrlich, F. März, H. Neugebauer, J. Pisarek,
   P. Pracht, P. Shushkov, and S. Spicher.
   
 * started run on 2022/03/16 at 23:27:16.802     

           -------------------------------------------------
          |                Calculation Setup                |
           -------------------------------------------------

          program call               : xtb acid_293.xyz --opt --chrg 0 --uhf 0 --gfn 2
          coordinate file            : acid_293.xyz
          omp threads                :                    64
          number of atoms            :                    66
          number of electrons        :                   238
          charge                     :                     0
          spin                       :                   0.0
          first test random number   :      0.23632839759523

   ID    Z sym.   atoms
    1    6 C      1, 2, 6-15, 19-22, 24-29, 31, 33, 34, 38-41, 43-45
    2    9 F      3-5, 16-18
    3    7 N      23, 37
    4   17 Cl     30, 42
    5    8 O      32, 35, 36, 46
    6    1 H      47-66

           -------------------------------------------------
          |                 G F N 2 - x T B                 |
           -------------------------------------------------

        Reference                      10.1021/acs.jctc.8b01176
      * Hamiltonian:
        H0-scaling (s, p, d)           1.850000    2.230000    2.230000
        zeta-weighting                 0.500000
      * Dispersion:
        s8                             2.700000
        a1                             0.520000
        a2                             5.000000
        s9                             5.000000
      * Repulsion:
        kExp                           1.500000    1.000000
        rExp                           1.000000
      * Coulomb:
        alpha                          2.000000
        third order                    shell-resolved
        anisotropic                    true
        a3                             3.000000
        a5                             4.000000
        cn-shift                       1.200000
        cn-exp                         4.000000
        max-rad                        5.000000


          ...................................................
          :                      SETUP                      :
          :.................................................:
          :  # basis functions                 216          :
          :  # atomic orbitals                 214          :
          :  # shells                          114          :
          :  # electrons                       238          :
          :  max. iterations                   250          :
          :  Hamiltonian                  GFN2-xTB          :
          :  restarted?                      false          :
          :  GBSA solvation                  false          :
          :  PC potential                    false          :
          :  electronic temp.          300.0000000     K    :
          :  accuracy                    1.0000000          :
          :  -> integral cutoff          0.2500000E+02      :
          :  -> integral neglect         0.1000000E-07      :
          :  -> SCF convergence          0.1000000E-05 Eh   :
          :  -> wf. convergence          0.1000000E-03 e    :
          :  Broyden damping             0.4000000          :
          ...................................................

 iter      E             dE          RMSdq      gap      omega  full diag
   1   -139.5829245 -0.139583E+03  0.480E+00    3.09       0.0  T
   2   -139.8257375 -0.242813E+00  0.275E+00    2.96       1.0  T
   3   -139.8311647 -0.542716E-02  0.137E+00    2.97       1.0  T
   4   -139.8476193 -0.164547E-01  0.323E-01    2.79       1.0  T
   5   -139.8533149 -0.569558E-02  0.976E-02    2.81       1.0  T
   6   -139.8535646 -0.249663E-03  0.490E-02    2.82       1.0  T
   7   -139.8536206 -0.560145E-04  0.235E-02    2.83       1.0  T
   8   -139.8536266 -0.605667E-05  0.127E-02    2.82       1.0  T
   9   -139.8536304 -0.370974E-05  0.893E-03    2.83       1.4  T
  10   -139.8536320 -0.159219E-05  0.590E-03    2.83       2.1  T
  11   -139.8536326 -0.696523E-06  0.393E-03    2.83       3.1  T
  12   -139.8536330 -0.389036E-06  0.206E-03    2.83       6.0  T
  13   -139.8536332 -0.119783E-06  0.104E-03    2.83      11.8  T
  14   -139.8536332 -0.367652E-07  0.558E-04    2.83      22.1  T
  15   -139.8536332 -0.499890E-08  0.349E-04    2.83      35.2  T

   *** convergence criteria satisfied after 15 iterations ***

         #    Occupation            Energy/Eh            Energy/eV
      -------------------------------------------------------------
         1        2.0000           -1.0798908             -29.3853
       ...           ...                  ...                  ...
       113        2.0000           -0.4343812             -11.8201
       114        2.0000           -0.4268781             -11.6159
       115        2.0000           -0.4246306             -11.5548
       116        2.0000           -0.4181760             -11.3791
       117        2.0000           -0.4114255             -11.1955
       118        2.0000           -0.4027930             -10.9606
       119        2.0000           -0.3983070             -10.8385 (HOMO)
       120                         -0.2944411              -8.0122 (LUMO)
       121                         -0.2911196              -7.9218
       122                         -0.2839182              -7.7258
       123                         -0.2762064              -7.5160
       124                         -0.2729200              -7.4265
       ...                                ...                  ...
       214                          0.6129743              16.6799
      -------------------------------------------------------------
                  HL-Gap            0.1038659 Eh            2.8263 eV
             Fermi-level           -0.3463741 Eh           -9.4253 eV

 SCC (total)                   0 d,  0 h,  0 min,  0.633 sec
 SCC setup                      ...        0 min,  0.018 sec (  2.796%)
 Dispersion                     ...        0 min,  0.013 sec (  2.039%)
 classical contributions        ...        0 min,  0.012 sec (  1.888%)
 integral evaluation            ...        0 min,  0.105 sec ( 16.629%)
 iterations                     ...        0 min,  0.342 sec ( 54.112%)
 molecular gradient             ...        0 min,  0.139 sec ( 22.039%)
 printout                       ...        0 min,  0.003 sec (  0.482%)

         :::::::::::::::::::::::::::::::::::::::::::::::::::::
         ::                     SUMMARY                     ::
         :::::::::::::::::::::::::::::::::::::::::::::::::::::
         :: total energy            -138.388168833053 Eh    ::
         :: gradient norm              0.109466834170 Eh/a0 ::
         :: HOMO-LUMO gap              2.826334835709 eV    ::
         ::.................................................::
         :: SCC energy              -139.853633199032 Eh    ::
         :: -> isotropic ES            0.209908351776 Eh    ::
         :: -> anisotropic ES         -0.005638339788 Eh    ::
         :: -> anisotropic XC          0.006691107435 Eh    ::
         :: -> dispersion             -0.100099083268 Eh    ::
         :: repulsion energy           1.461402750353 Eh    ::
         :: add. restraining           0.000000000000 Eh    ::
         :: total charge              -0.000000000000 e     ::
         :::::::::::::::::::::::::::::::::::::::::::::::::::::

      ----------------------------------------------------------- 
     |                   =====================                   |
     |                        A N C O P T                        |
     |                   =====================                   |
     |               Approximate Normal Coordinate               |
     |                Rational Function Optimizer                |
      ----------------------------------------------------------- 

          ...................................................
          :                      SETUP                      :
          :.................................................:
          :   optimization level            normal          :
          :   max. optcycles                   200          :
          :   ANC micro-cycles                  20          :
          :   degrees of freedom               192          :
          :.................................................:
          :   RF solver                   davidson          :
          :   write xtbopt.log                true          :
          :   linear?                        false          :
          :   energy convergence         0.5000000E-05 Eh   :
          :   grad. convergence          0.1000000E-02 Eh/α :
          :   maximium RF displ.         1.0000000          :
          :   Hlow (freq-cutoff)         0.1000000E-01      :
          :   Hmax (freq-cutoff)         5.0000000          :
          :   S6 in model hess.         20.0000000          :
          ...................................................

generating ANC from model Hessian ...
Using Lindh-Hessian (1995)
 Shifting diagonal of input Hessian by    9.7964976048440025E-003
 Lowest  eigenvalues of input Hessian
    0.000000    0.000000    0.000000    0.000000    0.000000    0.000000
    0.010000    0.010066    0.010278    0.010344    0.010495    0.010539
    0.010587    0.010780    0.010997    0.011605    0.011909    0.012202
 Highest eigenvalues
    1.955839    1.996393    1.998879    2.174145    2.230805    2.245288


........................................................................
.............................. CYCLE    1 ..............................
........................................................................
   1   -139.8536332 -0.139854E+03  0.217E-04    2.83       0.0  T
   2   -139.8536332 -0.495163E-09  0.179E-04    2.83      68.9  T
   3   -139.8536332 -0.273673E-09  0.148E-04    2.83      83.2  T
     SCC iter.                  ...        0 min,  0.072 sec
     gradient                   ...        0 min,  0.147 sec
 * total energy  :  -138.3881688 Eh     change       -0.2964441E-08 Eh
   gradient norm :     0.1094663 Eh/α   predicted     0.0000000E+00 (-100.00%)
   displ. norm   :     0.3879014 α      lambda       -0.2292176E-01
   maximum displ.:     0.1531931 α      in ANC's #51, #61, #18, ...

........................................................................
.............................. CYCLE    2 ..............................
........................................................................
   1   -139.9460543 -0.139946E+03  0.187E-01    2.92       0.0  T
   2   -139.9462660 -0.211693E-03  0.115E-01    2.92       1.0  T
   3   -139.9462457  0.202911E-04  0.510E-02    2.93       1.0  T
   4   -139.9463155 -0.697671E-04  0.104E-02    2.93       1.2  T
   5   -139.9463208 -0.531268E-05  0.402E-03    2.93       3.1  T
   6   -139.9463211 -0.324775E-06  0.179E-03    2.92       6.9  T
   7   -139.9463212 -0.515903E-07  0.894E-04    2.92      13.8  T
   8   -139.9463212 -0.595600E-08  0.543E-04    2.92      22.7  T
     SCC iter.                  ...        0 min,  0.193 sec
     gradient                   ...        0 min,  0.143 sec
 * total energy  :  -138.4039804 Eh     change       -0.1581161E-01 Eh
   gradient norm :     0.0416491 Eh/α   predicted    -0.1318537E-01 ( -16.61%)
   displ. norm   :     0.3965363 α      lambda       -0.7183867E-02
   maximum displ.:     0.1558969 α      in ANC's #18, #19, #51, ...

........................................................................
.............................. CYCLE    3 ..............................
........................................................................
   1   -139.9910452 -0.139991E+03  0.132E-01    2.98       0.0  T
   2   -139.9911856 -0.140425E-03  0.801E-02    2.98       1.0  T
   3   -139.9911830  0.266732E-05  0.359E-02    2.99       1.0  T
   4   -139.9912066 -0.236458E-04  0.962E-03    2.99       1.3  T
   5   -139.9912121 -0.548904E-05  0.295E-03    2.99       4.2  T
   6   -139.9912124 -0.277605E-06  0.169E-03    2.99       7.3  T
   7   -139.9912124 -0.356148E-07  0.100E-03    2.99      12.3  T
   8   -139.9912124 -0.187793E-07  0.687E-04    2.99      17.9  T
   9   -139.9912124 -0.968359E-08  0.425E-04    2.99      28.9  T
     SCC iter.                  ...        0 min,  0.213 sec
     gradient                   ...        0 min,  0.155 sec
 * total energy  :  -138.4085296 Eh     change       -0.4549120E-02 Eh
   gradient norm :     0.0134175 Eh/α   predicted    -0.4156735E-02 (  -8.63%)
   displ. norm   :     0.3458650 α      lambda       -0.1936992E-02
   maximum displ.:     0.1508227 α      in ANC's #18, #19, #5, ...

........................................................................
.............................. CYCLE    4 ..............................
........................................................................
   1   -139.9978298 -0.139998E+03  0.836E-02    3.00       0.0  T
   2   -139.9978562 -0.263981E-04  0.498E-02    3.00       1.0  T
   3   -139.9978494  0.680031E-05  0.168E-02    3.00       1.0  T
   4   -139.9978591 -0.968477E-05  0.462E-03    3.00       2.7  T
   5   -139.9978605 -0.136419E-05  0.162E-03    3.00       7.6  T
   6   -139.9978605 -0.623490E-07  0.986E-04    3.00      12.5  T
   7   -139.9978605 -0.109701E-07  0.594E-04    3.00      20.7  T
     SCC iter.                  ...        0 min,  0.164 sec
     gradient                   ...        0 min,  0.148 sec
 * total energy  :  -138.4099282 Eh     change       -0.1398606E-02 Eh
   gradient norm :     0.0089031 Eh/α   predicted    -0.1084367E-02 ( -22.47%)
   displ. norm   :     0.4069352 α      lambda       -0.1321503E-02
   maximum displ.:     0.1743494 α      in ANC's #5, #18, #19, ...

........................................................................
.............................. CYCLE    5 ..............................
........................................................................
   1   -139.9973891 -0.139997E+03  0.902E-02    3.01       0.0  T
   2   -139.9974016 -0.124727E-04  0.531E-02    3.01       1.0  T
   3   -139.9973920  0.954960E-05  0.144E-02    3.02       1.0  T
   4   -139.9974038 -0.117482E-04  0.382E-03    3.02       3.2  T
   5   -139.9974046 -0.776696E-06  0.167E-03    3.02       7.4  T
   6   -139.9974046 -0.399070E-07  0.105E-03    3.02      11.7  T
   7   -139.9974046 -0.170178E-07  0.676E-04    3.02      18.2  T
   8   -139.9974046 -0.808632E-08  0.471E-04    3.02      26.1  T
     SCC iter.                  ...        0 min,  0.184 sec
     gradient                   ...        0 min,  0.160 sec
 * total energy  :  -138.4108250 Eh     change       -0.8968188E-03 Eh
   gradient norm :     0.0101008 Eh/α   predicted    -0.7701700E-03 ( -14.12%)
   displ. norm   :     0.3793916 α      lambda       -0.8341685E-03
   maximum displ.:     0.1946670 α      in ANC's #5, #3, #6, ...

........................................................................
.............................. CYCLE    6 ..............................
........................................................................
   1   -139.9961350 -0.139996E+03  0.749E-02    3.01       0.0  T
   2   -139.9961453 -0.103234E-04  0.445E-02    3.01       1.0  T
   3   -139.9961363  0.901497E-05  0.137E-02    3.01       1.0  T
   4   -139.9961477 -0.113922E-04  0.302E-03    3.01       4.1  T
   5   -139.9961482 -0.486230E-06  0.127E-03    3.01       9.7  T
   6   -139.9961482 -0.236986E-07  0.658E-04    3.01      18.7  T
   7   -139.9961482 -0.816382E-08  0.318E-04    3.01      38.8  T
     SCC iter.                  ...        0 min,  0.197 sec
     gradient                   ...        0 min,  0.140 sec
 * total energy  :  -138.4113794 Eh     change       -0.5544249E-03 Eh
   gradient norm :     0.0082728 Eh/α   predicted    -0.4771252E-03 ( -13.94%)
   displ. norm   :     0.3683137 α      lambda       -0.6543868E-03
   maximum displ.:     0.2025559 α      in ANC's #5, #6, #3, ...

........................................................................
.............................. CYCLE    7 ..............................
........................................................................
   1   -139.9958344 -0.139996E+03  0.739E-02    3.02       0.0  T
   2   -139.9958411 -0.669493E-05  0.439E-02    3.02       1.0  T
   3   -139.9958326  0.855574E-05  0.122E-02    3.01       1.0  T
   4   -139.9958433 -0.107173E-04  0.244E-03    3.01       5.0  T
   5   -139.9958435 -0.232370E-06  0.121E-03    3.01      10.2  T
   6   -139.9958436 -0.280270E-07  0.604E-04    3.01      20.4  T
   7   -139.9958436 -0.618806E-08  0.382E-04    3.01      32.2  T
     SCC iter.                  ...        0 min,  0.196 sec
     gradient                   ...        0 min,  0.131 sec
 * total energy  :  -138.4118925 Eh     change       -0.5130764E-03 Eh
   gradient norm :     0.0076925 Eh/α   predicted    -0.3715795E-03 ( -27.58%)
   displ. norm   :     0.4558365 α      lambda       -0.7355547E-03
   maximum displ.:     0.2498771 α      in ANC's #5, #6, #3, ...

........................................................................
.............................. CYCLE    8 ..............................
........................................................................
   1   -139.9965898 -0.139997E+03  0.995E-02    3.01       0.0  T
   2   -139.9965998 -0.100576E-04  0.587E-02    3.01       1.0  T
   3   -139.9965844  0.153636E-04  0.157E-02    3.01       1.0  T
   4   -139.9966031 -0.186582E-04  0.292E-03    3.01       4.2  T
   5   -139.9966035 -0.430082E-06  0.137E-03    3.01       9.0  T
   6   -139.9966036 -0.305714E-07  0.725E-04    3.01      17.0  T
   7   -139.9966036 -0.105308E-07  0.404E-04    3.01      30.5  T
     SCC iter.                  ...        0 min,  0.169 sec
     gradient                   ...        0 min,  0.129 sec
 * total energy  :  -138.4124860 Eh     change       -0.5935477E-03 Eh
   gradient norm :     0.0083791 Eh/α   predicted    -0.4442153E-03 ( -25.16%)
   displ. norm   :     0.5324586 α      lambda       -0.7207037E-03
   maximum displ.:     0.2891670 α      in ANC's #5, #6, #3, ...

........................................................................
.............................. CYCLE    9 ..............................
........................................................................
   1   -139.9967173 -0.139997E+03  0.120E-01    3.01       0.0  T
   2   -139.9967258 -0.853214E-05  0.708E-02    3.01       1.0  T
   3   -139.9966997  0.261220E-04  0.188E-02    3.01       1.0  T
   4   -139.9967306 -0.308887E-04  0.256E-03    3.01       4.8  T
   5   -139.9967308 -0.206277E-06  0.141E-03    3.01       8.8  T
   6   -139.9967308 -0.356509E-07  0.720E-04    3.01      17.1  T
   7   -139.9967308 -0.128281E-07  0.375E-04    3.01      32.8  T
     SCC iter.                  ...        0 min,  0.170 sec
     gradient                   ...        0 min,  0.144 sec
 * total energy  :  -138.4130616 Eh     change       -0.5755957E-03 Eh
   gradient norm :     0.0083176 Eh/α   predicted    -0.4625168E-03 ( -19.65%)
   displ. norm   :     0.5369082 α      lambda       -0.5934268E-03
   maximum displ.:     0.2953821 α      in ANC's #5, #6, #3, ...

........................................................................
.............................. CYCLE   10 ..............................
........................................................................
   1   -139.9971948 -0.139997E+03  0.119E-01    3.01       0.0  T
   2   -139.9972020 -0.716467E-05  0.699E-02    3.01       1.0  T
   3   -139.9971716  0.303974E-04  0.199E-02    3.01       1.0  T
   4   -139.9972072 -0.356297E-04  0.231E-03    3.01       5.3  T
   5   -139.9972073 -0.142796E-06  0.138E-03    3.01       8.9  T
   6   -139.9972074 -0.321859E-07  0.675E-04    3.01      18.2  T
   7   -139.9972074 -0.107264E-07  0.403E-04    3.01      30.5  T
     SCC iter.                  ...        0 min,  0.166 sec
     gradient                   ...        0 min,  0.144 sec
 * total energy  :  -138.4135222 Eh     change       -0.4605556E-03 Eh
   gradient norm :     0.0061224 Eh/α   predicted    -0.3822510E-03 ( -17.00%)
   displ. norm   :     0.4934014 α      lambda       -0.4138186E-03
   maximum displ.:     0.2739917 α      in ANC's #5, #6, #1, ...

........................................................................
.............................. CYCLE   11 ..............................
........................................................................
   1   -139.9973747 -0.139997E+03  0.104E-01    3.01       0.0  T
   2   -139.9973843 -0.958144E-05  0.615E-02    3.01       1.0  T
   3   -139.9973548  0.294399E-04  0.204E-02    3.01       1.0  T
   4   -139.9973897 -0.348979E-04  0.260E-03    3.01       4.7  T
   5   -139.9973901 -0.370253E-06  0.130E-03    3.01       9.4  T
   6   -139.9973901 -0.246067E-07  0.787E-04    3.01      15.6  T
   7   -139.9973901 -0.116291E-07  0.440E-04    3.01      28.0  T
     SCC iter.                  ...        0 min,  0.162 sec
     gradient                   ...        0 min,  0.122 sec
 * total energy  :  -138.4138294 Eh     change       -0.3072078E-03 Eh
   gradient norm :     0.0052914 Eh/α   predicted    -0.2572890E-03 ( -16.25%)
   displ. norm   :     0.3958151 α      lambda       -0.2840121E-03
   maximum displ.:     0.2226080 α      in ANC's #5, #1, #6, ...

........................................................................
.............................. CYCLE   12 ..............................
........................................................................
   1   -140.0003504 -0.140000E+03  0.810E-02    3.01       0.0  T
   2   -140.0003581 -0.768326E-05  0.478E-02    3.01       1.0  T
   3   -140.0003418  0.163223E-04  0.158E-02    3.01       1.0  T
   4   -140.0003613 -0.194759E-04  0.248E-03    3.01       5.0  T
   5   -140.0003616 -0.369736E-06  0.113E-03    3.01      10.8  T
   6   -140.0003617 -0.214862E-07  0.720E-04    3.01      17.1  T
   7   -140.0003617 -0.880442E-08  0.443E-04    3.01      27.8  T
     SCC iter.                  ...        0 min,  0.163 sec
     gradient                   ...        0 min,  0.135 sec
 * total energy  :  -138.4140049 Eh     change       -0.1755077E-03 Eh
   gradient norm :     0.0068144 Eh/α   predicted    -0.1642545E-03 (  -6.41%)
   displ. norm   :     0.3555260 α      lambda       -0.1985645E-03
   maximum displ.:     0.1943549 α      in ANC's #5, #1, #6, ...

........................................................................
.............................. CYCLE   13 ..............................
........................................................................
   1   -139.9989692 -0.139999E+03  0.718E-02    3.01       0.0  T
   2   -139.9989769 -0.775265E-05  0.427E-02    3.02       1.0  T
   3   -139.9989609  0.160723E-04  0.158E-02    3.02       1.0  T
   4   -139.9989804 -0.195193E-04  0.235E-03    3.02       5.2  T
   5   -139.9989807 -0.348243E-06  0.979E-04    3.02      12.6  T
   6   -139.9989808 -0.172645E-07  0.572E-04    3.02      21.5  T
     SCC iter.                  ...        0 min,  0.139 sec
     gradient                   ...        0 min,  0.132 sec
 * total energy  :  -138.4141216 Eh     change       -0.1166991E-03 Eh
   gradient norm :     0.0047949 Eh/α   predicted    -0.1118594E-03 (  -4.15%)
   displ. norm   :     0.1740321 α      lambda       -0.1090558E-03
   maximum displ.:     0.0985477 α      in ANC's #1, #5, #8, ...

........................................................................
.............................. CYCLE   14 ..............................
........................................................................
   1   -140.0007463 -0.140001E+03  0.384E-02    3.02       0.0  T
   2   -140.0007472 -0.873988E-06  0.227E-02    3.02       1.0  T
   3   -140.0007438  0.341940E-05  0.659E-03    3.02       1.9  T
   4   -140.0007478 -0.398923E-05  0.892E-04    3.02      13.8  T
   5   -140.0007478 -0.346223E-07  0.484E-04    3.02      25.4  T
   6   -140.0007478 -0.277217E-08  0.244E-04    3.02      50.6  T
     SCC iter.                  ...        0 min,  0.139 sec
     gradient                   ...        0 min,  0.122 sec
 * total energy  :  -138.4142127 Eh     change       -0.9113554E-04 Eh
   gradient norm :     0.0034862 Eh/α   predicted    -0.5618143E-04 ( -38.35%)
   displ. norm   :     0.2652315 α      lambda       -0.1715153E-03
   maximum displ.:     0.1536464 α      in ANC's #1, #8, #5, ...

........................................................................
.............................. CYCLE   15 ..............................
........................................................................
   1   -140.0012981 -0.140001E+03  0.608E-02    3.02       0.0  T
   2   -140.0013013 -0.319410E-05  0.359E-02    3.02       1.0  T
   3   -140.0012964  0.488984E-05  0.843E-03    3.02       1.5  T
   4   -140.0013021 -0.572661E-05  0.184E-03    3.02       6.7  T
   5   -140.0013024 -0.250036E-06  0.770E-04    3.02      16.0  T
   6   -140.0013024 -0.840623E-08  0.454E-04    3.02      27.1  T
     SCC iter.                  ...        0 min,  0.142 sec
     gradient                   ...        0 min,  0.138 sec
 * total energy  :  -138.4143442 Eh     change       -0.1314766E-03 Eh
   gradient norm :     0.0038565 Eh/α   predicted    -0.9179156E-04 ( -30.18%)
   displ. norm   :     0.2910379 α      lambda       -0.1434645E-03
   maximum displ.:     0.1696966 α      in ANC's #1, #8, #10, ...

........................................................................
.............................. CYCLE   16 ..............................
........................................................................
   1   -140.0018733 -0.140002E+03  0.669E-02    3.02       0.0  T
   2   -140.0018750 -0.166705E-05  0.393E-02    3.02       1.0  T
   3   -140.0018700  0.502038E-05  0.789E-03    3.02       1.6  T
   4   -140.0018759 -0.590293E-05  0.143E-03    3.02       8.6  T
   5   -140.0018760 -0.825314E-07  0.812E-04    3.02      15.2  T
   6   -140.0018760 -0.700396E-08  0.463E-04    3.02      26.6  T
     SCC iter.                  ...        0 min,  0.145 sec
     gradient                   ...        0 min,  0.142 sec
 * total energy  :  -138.4144572 Eh     change       -0.1129425E-03 Eh
   gradient norm :     0.0047737 Eh/α   predicted    -0.7780906E-04 ( -31.11%)
   displ. norm   :     0.3042466 α      lambda       -0.1343158E-03
   maximum displ.:     0.1842747 α      in ANC's #1, #8, #10, ...

........................................................................
.............................. CYCLE   17 ..............................
........................................................................
   1   -140.0005382 -0.140001E+03  0.681E-02    3.02       0.0  T
   2   -140.0005398 -0.154095E-05  0.401E-02    3.02       1.0  T
   3   -140.0005358  0.399544E-05  0.724E-03    3.02       1.7  T
   4   -140.0005406 -0.478495E-05  0.143E-03    3.02       8.6  T
   5   -140.0005407 -0.833764E-07  0.824E-04    3.02      14.9  T
   6   -140.0005407 -0.620560E-08  0.466E-04    3.02      26.4  T
     SCC iter.                  ...        0 min,  0.149 sec
     gradient                   ...        0 min,  0.136 sec
 * total energy  :  -138.4145678 Eh     change       -0.1106654E-03 Eh
   gradient norm :     0.0048927 Eh/α   predicted    -0.7337772E-04 ( -33.69%)
   displ. norm   :     0.3256116 α      lambda       -0.1508491E-03
   maximum displ.:     0.1958627 α      in ANC's #1, #8, #10, ...

........................................................................
.............................. CYCLE   18 ..............................
........................................................................
   1   -140.0002575 -0.140000E+03  0.736E-02    3.02       0.0  T
   2   -140.0002594 -0.190737E-05  0.434E-02    3.01       1.0  T
   3   -140.0002557  0.369034E-05  0.705E-03    3.02       1.7  T
   4   -140.0002601 -0.445636E-05  0.155E-03    3.01       7.9  T
   5   -140.0002603 -0.119528E-06  0.855E-04    3.01      14.4  T
   6   -140.0002603 -0.882596E-08  0.460E-04    3.01      26.7  T
     SCC iter.                  ...        0 min,  0.144 sec
     gradient                   ...        0 min,  0.138 sec
 * total energy  :  -138.4146883 Eh     change       -0.1204801E-03 Eh
   gradient norm :     0.0033119 Eh/α   predicted    -0.8342212E-04 ( -30.76%)
   displ. norm   :     0.3438606 α      lambda       -0.1459770E-03
   maximum displ.:     0.2204102 α      in ANC's #1, #8, #10, ...

........................................................................
.............................. CYCLE   19 ..............................
........................................................................
   1   -139.9985796 -0.139999E+03  0.768E-02    3.01       0.0  T
   2   -139.9985818 -0.213078E-05  0.453E-02    3.01       1.0  T
   3   -139.9985787  0.309329E-05  0.665E-03    3.01       1.8  T
   4   -139.9985826 -0.388898E-05  0.164E-03    3.01       7.5  T
   5   -139.9985827 -0.126473E-06  0.911E-04    3.01      13.5  T
   6   -139.9985827 -0.119015E-07  0.489E-04    3.01      25.2  T
     SCC iter.                  ...        0 min,  0.141 sec
     gradient                   ...        0 min,  0.118 sec
 * total energy  :  -138.4148022 Eh     change       -0.1138614E-03 Eh
   gradient norm :     0.0040573 Eh/α   predicted    -0.8162391E-04 ( -28.31%)
   displ. norm   :     0.3177299 α      lambda       -0.1385257E-03
   maximum displ.:     0.2102840 α      in ANC's #1, #8, #6, ...

........................................................................
.............................. CYCLE   20 ..............................
........................................................................
   1   -139.9986871 -0.139999E+03  0.729E-02    3.01       0.0  T
   2   -139.9986890 -0.194150E-05  0.429E-02    3.01       1.0  T
   3   -139.9986859  0.307368E-05  0.642E-03    3.01       1.9  T
   4   -139.9986897 -0.375390E-05  0.157E-03    3.01       7.8  T
   5   -139.9986898 -0.110227E-06  0.883E-04    3.01      13.9  T
   6   -139.9986898 -0.114795E-07  0.521E-04    3.01      23.6  T
     SCC iter.                  ...        0 min,  0.139 sec
     gradient                   ...        0 min,  0.143 sec
 * total energy  :  -138.4149079 Eh     change       -0.1057398E-03 Eh
   gradient norm :     0.0042656 Eh/α   predicted    -0.7625798E-04 ( -27.88%)
   displ. norm   :     0.3289355 α      lambda       -0.1323225E-03
   maximum displ.:     0.2282840 α      in ANC's #1, #8, #21, ...
 * RMSD in coord.:     0.6325112 α      energy gain  -0.2673907E-01 Eh

generating ANC from model Hessian ...
Using Lindh-Hessian (1995)
 Shifting diagonal of input Hessian by    9.8086978061404512E-003
 Lowest  eigenvalues of input Hessian
    0.000000    0.000000    0.000000    0.000000    0.000000    0.000000
    0.010000    0.010101    0.010303    0.010441    0.010583    0.010720
    0.010930    0.011126    0.011390    0.011774    0.012040    0.012349
 Highest eigenvalues
    2.022482    2.048236    2.056993    2.300751    2.341184    2.377359


........................................................................
.............................. CYCLE   21 ..............................
........................................................................
   1   -139.9984650 -0.139998E+03  0.742E-02    3.01       0.0  T
   2   -139.9984673 -0.231853E-05  0.437E-02    3.01       1.0  T
   3   -139.9984641  0.323223E-05  0.699E-03    3.01       1.8  T
   4   -139.9984682 -0.413153E-05  0.174E-03    3.01       7.1  T
   5   -139.9984683 -0.120776E-06  0.999E-04    3.01      12.3  T
   6   -139.9984683 -0.825193E-08  0.554E-04    3.01      22.2  T
     SCC iter.                  ...        0 min,  0.141 sec
     gradient                   ...        0 min,  0.119 sec
 * total energy  :  -138.4150100 Eh     change       -0.1020803E-03 Eh
   gradient norm :     0.0052666 Eh/α   predicted     0.0000000E+00 (-100.00%)
   displ. norm   :     0.0480565 α      lambda       -0.6494395E-04
   maximum displ.:     0.0238799 α      in ANC's #1, #21, #22, ...

........................................................................
.............................. CYCLE   22 ..............................
........................................................................
   1   -140.0004402 -0.140000E+03  0.114E-02    3.01       0.0  T
   2   -140.0004407 -0.553215E-06  0.696E-03    3.01       1.8  T
   3   -140.0004406  0.138849E-06  0.248E-03    3.01       5.0  T
   4   -140.0004408 -0.235710E-06  0.636E-04    3.01      19.3  T
   5   -140.0004408 -0.193076E-07  0.317E-04    3.01      38.8  T
     SCC iter.                  ...        0 min,  0.122 sec
     gradient                   ...        0 min,  0.133 sec
 * total energy  :  -138.4150623 Eh     change       -0.5226741E-04 Eh
   gradient norm :     0.0025526 Eh/α   predicted    -0.3256625E-04 ( -37.69%)
   displ. norm   :     0.1346828 α      lambda       -0.1051638E-03
   maximum displ.:     0.0695214 α      in ANC's #1, #22, #21, ...

........................................................................
.............................. CYCLE   23 ..............................
........................................................................
   1   -140.0028877 -0.140003E+03  0.270E-02    3.01       0.0  T
   2   -140.0028897 -0.197516E-05  0.162E-02    3.02       1.0  T
   3   -140.0028885  0.117792E-05  0.550E-03    3.02       2.2  T
   4   -140.0028901 -0.163684E-05  0.143E-03    3.02       8.6  T
   5   -140.0028903 -0.118126E-06  0.677E-04    3.02      18.2  T
   6   -140.0028903 -0.956643E-08  0.420E-04    3.02      29.3  T
     SCC iter.                  ...        0 min,  0.142 sec
     gradient                   ...        0 min,  0.164 sec
 * total energy  :  -138.4151327 Eh     change       -0.7043507E-04 Eh
   gradient norm :     0.0028796 Eh/α   predicted    -0.5356031E-04 ( -23.96%)
   displ. norm   :     0.1446351 α      lambda       -0.6643453E-04
   maximum displ.:     0.0780874 α      in ANC's #1, #22, #21, ...

........................................................................
.............................. CYCLE   24 ..............................
........................................................................
   1   -140.0033349 -0.140003E+03  0.268E-02    3.02       0.0  T
   2   -140.0033357 -0.859602E-06  0.160E-02    3.02       1.0  T
   3   -140.0033348  0.966035E-06  0.415E-03    3.02       3.0  T
   4   -140.0033361 -0.133276E-05  0.105E-03    3.02      11.7  T
   5   -140.0033362 -0.484400E-07  0.568E-04    3.02      21.7  T
   6   -140.0033362 -0.449137E-08  0.308E-04    3.02      39.9  T
     SCC iter.                  ...        0 min,  0.145 sec
     gradient                   ...        0 min,  0.154 sec
 * total energy  :  -138.4151862 Eh     change       -0.5350460E-04 Eh
   gradient norm :     0.0044426 Eh/α   predicted    -0.3392312E-04 ( -36.60%)
   displ. norm   :     0.2811229 α      lambda       -0.1183661E-03
   maximum displ.:     0.1517118 α      in ANC's #1, #22, #21, ...

........................................................................
.............................. CYCLE   25 ..............................
........................................................................
   1   -140.0026732 -0.140003E+03  0.510E-02    3.02       0.0  T
   2   -140.0026761 -0.287326E-05  0.305E-02    3.02       1.0  T
   3   -140.0026721  0.396261E-05  0.807E-03    3.02       1.5  T
   4   -140.0026776 -0.545756E-05  0.184E-03    3.02       6.7  T
   5   -140.0026777 -0.123352E-06  0.104E-03    3.02      11.8  T
   6   -140.0026777 -0.950112E-08  0.504E-04    3.02      24.4  T
   7   -140.0026777 -0.864748E-08  0.274E-04    3.02      45.0  T
     SCC iter.                  ...        0 min,  0.166 sec
     gradient                   ...        0 min,  0.140 sec
 * total energy  :  -138.4152799 Eh     change       -0.9372921E-04 Eh
   gradient norm :     0.0054055 Eh/α   predicted    -0.6386067E-04 ( -31.87%)
   displ. norm   :     0.3227509 α      lambda       -0.1227866E-03
   maximum displ.:     0.1816607 α      in ANC's #1, #22, #8, ...

........................................................................
.............................. CYCLE   26 ..............................
........................................................................
   1   -140.0008088 -0.140001E+03  0.579E-02    3.01       0.0  T
   2   -140.0008131 -0.433603E-05  0.347E-02    3.02       1.0  T
   3   -140.0008091  0.403552E-05  0.858E-03    3.02       1.4  T
   4   -140.0008149 -0.583667E-05  0.222E-03    3.02       5.5  T
   5   -140.0008152 -0.229906E-06  0.116E-03    3.02      10.6  T
   6   -140.0008152 -0.987905E-08  0.511E-04    3.02      24.1  T
   7   -140.0008152 -0.994484E-08  0.254E-04    3.02      48.5  T
     SCC iter.                  ...        0 min,  0.163 sec
     gradient                   ...        0 min,  0.132 sec
 * total energy  :  -138.4153606 Eh     change       -0.8071044E-04 Eh
   gradient norm :     0.0063527 Eh/α   predicted    -0.6781384E-04 ( -15.98%)
   displ. norm   :     0.1400776 α      lambda       -0.7906338E-04
   maximum displ.:     0.0902777 α      in ANC's #1, #22, #8, ...

........................................................................
.............................. CYCLE   27 ..............................
........................................................................
   1   -140.0004233 -0.140000E+03  0.258E-02    3.02       0.0  T
   2   -140.0004241 -0.829299E-06  0.153E-02    3.02       1.0  T
   3   -140.0004234  0.756216E-06  0.372E-03    3.02       3.3  T
   4   -140.0004244 -0.102175E-05  0.103E-03    3.02      11.9  T
   5   -140.0004245 -0.513844E-07  0.487E-04    3.02      25.3  T
   6   -140.0004245 -0.612025E-08  0.228E-04    3.02      54.0  T
     SCC iter.                  ...        0 min,  0.145 sec
     gradient                   ...        0 min,  0.047 sec
 * total energy  :  -138.4154254 Eh     change       -0.6471762E-04 Eh
   gradient norm :     0.0049224 Eh/α   predicted    -0.4030847E-04 ( -37.72%)
   displ. norm   :     0.1882682 α      lambda       -0.1180223E-03
   maximum displ.:     0.1294980 α      in ANC's #1, #22, #8, ...

........................................................................
.............................. CYCLE   28 ..............................
........................................................................
   1   -140.0010951 -0.140001E+03  0.331E-02    3.02       0.0  T
   2   -140.0010969 -0.175667E-05  0.196E-02    3.02       1.0  T
   3   -140.0010961  0.838987E-06  0.451E-03    3.02       2.7  T
   4   -140.0010972 -0.117190E-05  0.151E-03    3.02       8.2  T
   5   -140.0010973 -0.122288E-06  0.655E-04    3.02      18.8  T
   6   -140.0010974 -0.136909E-07  0.288E-04    3.02      42.8  T
     SCC iter.                  ...        0 min,  0.144 sec
     gradient                   ...        0 min,  0.136 sec
 * total energy  :  -138.4155047 Eh     change       -0.7932470E-04 Eh
   gradient norm :     0.0034456 Eh/α   predicted    -0.6110392E-04 ( -22.97%)
   displ. norm   :     0.2344142 α      lambda       -0.6499251E-04
   maximum displ.:     0.1572563 α      in ANC's #1, #22, #8, ...

........................................................................
.............................. CYCLE   29 ..............................
........................................................................
   1   -140.0010403 -0.140001E+03  0.366E-02    3.03       0.0  T
   2   -140.0010417 -0.137118E-05  0.219E-02    3.03       1.0  T
   3   -140.0010405  0.116808E-05  0.474E-03    3.03       2.6  T
   4   -140.0010423 -0.183661E-05  0.133E-03    3.03       9.3  T
   5   -140.0010424 -0.397532E-07  0.671E-04    3.03      18.3  T
   6   -140.0010424 -0.131071E-07  0.301E-04    3.03      40.9  T
     SCC iter.                  ...        0 min,  0.142 sec
     gradient                   ...        0 min,  0.127 sec
 * total energy  :  -138.4155568 Eh     change       -0.5208521E-04 Eh
   gradient norm :     0.0048277 Eh/α   predicted    -0.3428901E-04 ( -34.17%)
   displ. norm   :     0.2177166 α      lambda       -0.7530333E-04
   maximum displ.:     0.1562015 α      in ANC's #1, #22, #4, ...

........................................................................
.............................. CYCLE   30 ..............................
........................................................................
   1   -140.0018163 -0.140002E+03  0.307E-02    3.03       0.0  T
   2   -140.0018172 -0.859940E-06  0.183E-02    3.03       1.0  T
   3   -140.0018165  0.700355E-06  0.380E-03    3.03       3.2  T
   4   -140.0018176 -0.111780E-05  0.107E-03    3.03      11.5  T
   5   -140.0018177 -0.332535E-07  0.594E-04    3.03      20.7  T
   6   -140.0018177 -0.664977E-08  0.261E-04    3.03      47.2  T
     SCC iter.                  ...        0 min,  0.141 sec
     gradient                   ...        0 min,  0.128 sec
 * total energy  :  -138.4156212 Eh     change       -0.6446070E-04 Eh
   gradient norm :     0.0044578 Eh/α   predicted    -0.3943691E-04 ( -38.82%)
   displ. norm   :     0.3195491 α      lambda       -0.1117894E-03
   maximum displ.:     0.2306614 α      in ANC's #1, #22, #4, ...

........................................................................
.............................. CYCLE   31 ..............................
........................................................................
   1   -140.0023350 -0.140002E+03  0.439E-02    3.04       0.0  T
   2   -140.0023369 -0.188545E-05  0.263E-02    3.04       1.0  T
   3   -140.0023359  0.970296E-06  0.509E-03    3.04       2.4  T
   4   -140.0023377 -0.180873E-05  0.152E-03    3.04       8.1  T
   5   -140.0023378 -0.800005E-07  0.842E-04    3.04      14.6  T
   6   -140.0023378 -0.726587E-08  0.376E-04    3.04      32.7  T
     SCC iter.                  ...        0 min,  0.140 sec
     gradient                   ...        0 min,  0.150 sec
 * total energy  :  -138.4157156 Eh     change       -0.9435000E-04 Eh
   gradient norm :     0.0040159 Eh/α   predicted    -0.6160247E-04 ( -34.71%)
   displ. norm   :     0.3900771 α      lambda       -0.1387266E-03
   maximum displ.:     0.2885443 α      in ANC's #1, #4, #11, ...

........................................................................
.............................. CYCLE   32 ..............................
........................................................................
   1   -140.0028950 -0.140003E+03  0.532E-02    3.05       0.0  T
   2   -140.0028976 -0.254029E-05  0.317E-02    3.05       1.0  T
   3   -140.0028961  0.145033E-05  0.605E-03    3.05       2.0  T
   4   -140.0028986 -0.249980E-05  0.176E-03    3.05       7.0  T
   5   -140.0028987 -0.978498E-07  0.974E-04    3.05      12.6  T
   6   -140.0028987 -0.904697E-08  0.455E-04    3.05      27.1  T
     SCC iter.                  ...        0 min,  0.144 sec
     gradient                   ...        0 min,  0.128 sec
 * total energy  :  -138.4158251 Eh     change       -0.1095775E-03 Eh
   gradient norm :     0.0033549 Eh/α   predicted    -0.7991807E-04 ( -27.07%)
   displ. norm   :     0.4296621 α      lambda       -0.1145364E-03
   maximum displ.:     0.3170110 α      in ANC's #1, #4, #11, ...

........................................................................
.............................. CYCLE   33 ..............................
........................................................................
   1   -140.0018425 -0.140002E+03  0.566E-02    3.05       0.0  T
   2   -140.0018461 -0.353753E-05  0.338E-02    3.05       1.0  T
   3   -140.0018443  0.181110E-05  0.707E-03    3.05       1.7  T
   4   -140.0018475 -0.327089E-05  0.195E-03    3.05       6.3  T
   5   -140.0018476 -0.107583E-06  0.110E-03    3.05      11.2  T
   6   -140.0018477 -0.922157E-08  0.481E-04    3.05      25.6  T
   7   -140.0018477 -0.728375E-08  0.287E-04    3.05      42.9  T
     SCC iter.                  ...        0 min,  0.166 sec
     gradient                   ...        0 min,  0.128 sec
 * total energy  :  -138.4159030 Eh     change       -0.7782433E-04 Eh
   gradient norm :     0.0051054 Eh/α   predicted    -0.6784062E-04 ( -12.83%)
   displ. norm   :     0.3470732 α      lambda       -0.1424300E-03
   maximum displ.:     0.2538200 α      in ANC's #1, #11, #4, ...

........................................................................
.............................. CYCLE   34 ..............................
........................................................................
   1   -140.0029280 -0.140003E+03  0.528E-02    3.06       0.0  T
   2   -140.0029328 -0.479387E-05  0.314E-02    3.06       1.0  T
   3   -140.0029302  0.252977E-05  0.757E-03    3.06       1.6  T
   4   -140.0029337 -0.350927E-05  0.212E-03    3.06       5.8  T
   5   -140.0029340 -0.207196E-06  0.103E-03    3.06      11.9  T
   6   -140.0029340 -0.186335E-07  0.525E-04    3.06      23.5  T
   7   -140.0029340 -0.379839E-08  0.381E-04    3.06      32.3  T
     SCC iter.                  ...        0 min,  0.164 sec
     gradient                   ...        0 min,  0.156 sec
 * total energy  :  -138.4159656 Eh     change       -0.6266964E-04 Eh
   gradient norm :     0.0046817 Eh/α   predicted    -0.7979407E-04 (  27.32%)
   displ. norm   :     0.2583751 α      lambda       -0.6938658E-04
   maximum displ.:     0.1903907 α      in ANC's #1, #4, #11, ...

........................................................................
.............................. CYCLE   35 ..............................
........................................................................
   1   -140.0019205 -0.140002E+03  0.332E-02    3.06       0.0  T
   2   -140.0019226 -0.213237E-05  0.199E-02    3.06       1.0  T
   3   -140.0019217  0.908870E-06  0.531E-03    3.06       2.3  T
   4   -140.0019233 -0.153312E-05  0.136E-03    3.06       9.1  T
   5   -140.0019233 -0.712578E-07  0.716E-04    3.06      17.2  T
   6   -140.0019233 -0.343201E-08  0.332E-04    3.06      37.1  T
     SCC iter.                  ...        0 min,  0.139 sec
     gradient                   ...        0 min,  0.136 sec
 * total energy  :  -138.4160108 Eh     change       -0.4519486E-04 Eh
   gradient norm :     0.0033633 Eh/α   predicted    -0.3701181E-04 ( -18.11%)
   displ. norm   :     0.1350540 α      lambda       -0.5695246E-04
   maximum displ.:     0.0831658 α      in ANC's #1, #7, #10, ...

........................................................................
.............................. CYCLE   36 ..............................
........................................................................
   1   -140.0025151 -0.140003E+03  0.274E-02    3.06       0.0  T
   2   -140.0025158 -0.712291E-06  0.161E-02    3.06       1.0  T
   3   -140.0025147  0.106988E-05  0.437E-03    3.06       2.8  T
   4   -140.0025161 -0.132335E-05  0.909E-04    3.06      13.5  T
   5   -140.0025161 -0.349206E-07  0.514E-04    3.06      23.9  T
   6   -140.0025161 -0.344158E-08  0.340E-04    3.06      36.2  T
     SCC iter.                  ...        0 min,  0.141 sec
     gradient                   ...        0 min,  0.136 sec
 * total energy  :  -138.4160562 Eh     change       -0.4536210E-04 Eh
   gradient norm :     0.0029113 Eh/α   predicted    -0.2899619E-04 ( -36.08%)
   displ. norm   :     0.2475166 α      lambda       -0.8728315E-04
   maximum displ.:     0.1391637 α      in ANC's #1, #7, #10, ...

........................................................................
.............................. CYCLE   37 ..............................
........................................................................
   1   -140.0026437 -0.140003E+03  0.532E-02    3.05       0.0  T
   2   -140.0026455 -0.179585E-05  0.313E-02    3.05       1.0  T
   3   -140.0026411  0.432086E-05  0.805E-03    3.06       1.5  T
   4   -140.0026463 -0.513721E-05  0.135E-03    3.06       9.1  T
   5   -140.0026464 -0.693951E-07  0.761E-04    3.06      16.2  T
   6   -140.0026464 -0.722338E-08  0.486E-04    3.06      25.3  T
     SCC iter.                  ...        0 min,  0.142 sec
     gradient                   ...        0 min,  0.141 sec
 * total energy  :  -138.4161164 Eh     change       -0.6024836E-04 Eh
   gradient norm :     0.0032189 Eh/α   predicted    -0.4631909E-04 ( -23.12%)
   displ. norm   :     0.2735076 α      lambda       -0.4857854E-04
   maximum displ.:     0.1798688 α      in ANC's #1, #7, #5, ...

........................................................................
.............................. CYCLE   38 ..............................
........................................................................
   1   -140.0017926 -0.140002E+03  0.459E-02    3.05       0.0  T
   2   -140.0017935 -0.996955E-06  0.271E-02    3.05       1.0  T
   3   -140.0017903  0.325661E-05  0.699E-03    3.05       1.8  T
   4   -140.0017942 -0.394026E-05  0.976E-04    3.05      12.6  T
   5   -140.0017942 -0.147020E-07  0.627E-04    3.05      19.6  T
   6   -140.0017943 -0.601361E-08  0.327E-04    3.05      37.7  T
     SCC iter.                  ...        0 min,  0.147 sec
     gradient                   ...        0 min,  0.043 sec
 * total energy  :  -138.4161556 Eh     change       -0.3915338E-04 Eh
   gradient norm :     0.0033831 Eh/α   predicted    -0.2610684E-04 ( -33.32%)
   displ. norm   :     0.2833746 α      lambda       -0.5913749E-04
   maximum displ.:     0.1719945 α      in ANC's #1, #7, #10, ...

........................................................................
.............................. CYCLE   39 ..............................
........................................................................
   1   -140.0018754 -0.140002E+03  0.524E-02    3.05       0.0  T
   2   -140.0018766 -0.117054E-05  0.309E-02    3.05       1.0  T
   3   -140.0018729  0.368801E-05  0.729E-03    3.05       1.7  T
   4   -140.0018773 -0.437151E-05  0.962E-04    3.05      12.8  T
   5   -140.0018773 -0.252438E-07  0.576E-04    3.05      21.4  T
   6   -140.0018773 -0.359591E-08  0.301E-04    3.05      40.9  T
     SCC iter.                  ...        0 min,  0.150 sec
     gradient                   ...        0 min,  0.137 sec
 * total energy  :  -138.4162006 Eh     change       -0.4501532E-04 Eh
   gradient norm :     0.0023155 Eh/α   predicted    -0.3194756E-04 ( -29.03%)
   displ. norm   :     0.3563435 α      lambda       -0.4778162E-04
   maximum displ.:     0.2384771 α      in ANC's #1, #7, #5, ...

........................................................................
.............................. CYCLE   40 ..............................
........................................................................
   1   -140.0007973 -0.140001E+03  0.572E-02    3.05       0.0  T
   2   -140.0007990 -0.172432E-05  0.338E-02    3.04       1.0  T
   3   -140.0007954  0.358820E-05  0.783E-03    3.04       1.6  T
   4   -140.0007999 -0.447902E-05  0.124E-03    3.04       9.9  T
   5   -140.0007999 -0.361660E-07  0.747E-04    3.04      16.5  T
   6   -140.0007999 -0.461728E-08  0.379E-04    3.04      32.5  T
     SCC iter.                  ...        0 min,  0.139 sec
     gradient                   ...        0 min,  0.140 sec
 * total energy  :  -138.4162320 Eh     change       -0.3136673E-04 Eh
   gradient norm :     0.0020556 Eh/α   predicted    -0.2692655E-04 ( -14.16%)
   displ. norm   :     0.1739860 α      lambda       -0.3555058E-04
   maximum displ.:     0.0903929 α      in ANC's #7, #1, #10, ...

........................................................................
.............................. CYCLE   41 ..............................
........................................................................
   1   -140.0023634 -0.140002E+03  0.388E-02    3.04       0.0  T
   2   -140.0023640 -0.603511E-06  0.228E-02    3.04       1.0  T
   3   -140.0023631  0.852753E-06  0.370E-03    3.04       3.3  T
   4   -140.0023641 -0.103565E-05  0.784E-04    3.04      15.7  T
   5   -140.0023642 -0.239676E-07  0.467E-04    3.04      26.4  T
   6   -140.0023642 -0.217310E-08  0.292E-04    3.04      42.1  T
     SCC iter.                  ...        0 min,  0.140 sec
     gradient                   ...        0 min,  0.157 sec
 * total energy  :  -138.4162531 Eh     change       -0.2108544E-04 Eh
   gradient norm :     0.0024561 Eh/α   predicted    -0.1831700E-04 ( -13.13%)
   displ. norm   :     0.1939757 α      lambda       -0.2133508E-04
   maximum displ.:     0.1236302 α      in ANC's #1, #7, #10, ...

........................................................................
.............................. CYCLE   42 ..............................
........................................................................
   1   -140.0022725 -0.140002E+03  0.351E-02    3.04       0.0  T
   2   -140.0022730 -0.471734E-06  0.207E-02    3.04       1.0  T
   3   -140.0022721  0.841254E-06  0.385E-03    3.04       3.2  T
   4   -140.0022732 -0.108106E-05  0.806E-04    3.04      15.3  T
   5   -140.0022732 -0.112858E-07  0.560E-04    3.04      22.0  T
   6   -140.0022732 -0.389943E-08  0.337E-04    3.04      36.6  T
     SCC iter.                  ...        0 min,  0.141 sec
     gradient                   ...        0 min,  0.132 sec
 * total energy  :  -138.4162702 Eh     change       -0.1716382E-04 Eh
   gradient norm :     0.0021198 Eh/α   predicted    -0.1107261E-04 ( -35.49%)
   displ. norm   :     0.2556670 α      lambda       -0.3641624E-04
   maximum displ.:     0.1476596 α      in ANC's #1, #7, #10, ...
 * RMSD in coord.:     0.5814675 α      energy gain  -0.1362327E-02 Eh

generating ANC from model Hessian ...
Using Lindh-Hessian (1995)
 Shifting diagonal of input Hessian by    9.8153550521177559E-003
 Lowest  eigenvalues of input Hessian
    0.000000    0.000000    0.000000    0.000000    0.000000    0.000000
    0.010000    0.010112    0.010295    0.010451    0.010605    0.010707
    0.010934    0.011087    0.011586    0.011919    0.012130    0.012441
 Highest eigenvalues
    2.024547    2.053227    2.061739    2.296732    2.345242    2.377211


........................................................................
.............................. CYCLE   43 ..............................
........................................................................
   1   -140.0026191 -0.140003E+03  0.528E-02    3.04       0.0  T
   2   -140.0026201 -0.105159E-05  0.310E-02    3.04       1.0  T
   3   -140.0026181  0.206434E-05  0.575E-03    3.04       2.1  T
   4   -140.0026207 -0.257118E-05  0.130E-03    3.04       9.5  T
   5   -140.0026207 -0.385937E-07  0.920E-04    3.04      13.4  T
   6   -140.0026207 -0.121818E-07  0.603E-04    3.04      20.4  T
     SCC iter.                  ...        0 min,  0.146 sec
     gradient                   ...        0 min,  0.145 sec
 * total energy  :  -138.4162955 Eh     change       -0.2523817E-04 Eh
   gradient norm :     0.0015874 Eh/α   predicted     0.0000000E+00 (-100.00%)
   displ. norm   :     0.0293933 α      lambda       -0.8518757E-05
   maximum displ.:     0.0128215 α      in ANC's #8, #9, #19, ...

........................................................................
.............................. CYCLE   44 ..............................
........................................................................
   1   -140.0027517 -0.140003E+03  0.788E-03    3.04       0.0  T
   2   -140.0027518 -0.850212E-07  0.472E-03    3.04       2.6  T
   3   -140.0027516  0.169826E-06  0.162E-03    3.04       7.6  T
   4   -140.0027518 -0.207608E-06  0.345E-04    3.04      35.7  T
   5   -140.0027518 -0.527515E-08  0.192E-04    3.04      64.0  T
     SCC iter.                  ...        0 min,  0.116 sec
     gradient                   ...        0 min,  0.144 sec
 * total energy  :  -138.4163056 Eh     change       -0.1014204E-04 Eh
   gradient norm :     0.0007117 Eh/α   predicted    -0.4264423E-05 ( -57.95%)
   displ. norm   :     0.0759522 α      lambda       -0.1316999E-04
   maximum displ.:     0.0339186 α      in ANC's #8, #9, #7, ...

........................................................................
.............................. CYCLE   45 ..............................
........................................................................
   1   -140.0027186 -0.140003E+03  0.187E-02    3.04       0.0  T
   2   -140.0027188 -0.234364E-06  0.110E-02    3.04       1.1  T
   3   -140.0027183  0.502303E-06  0.277E-03    3.04       4.4  T
   4   -140.0027189 -0.623945E-06  0.538E-04    3.04      22.9  T
   5   -140.0027189 -0.639099E-08  0.293E-04    3.04      42.0  T
     SCC iter.                  ...        0 min,  0.118 sec
     gradient                   ...        0 min,  0.131 sec
 * total energy  :  -138.4163181 Eh     change       -0.1251031E-04 Eh
   gradient norm :     0.0008825 Eh/α   predicted    -0.6610626E-05 ( -47.16%)
   displ. norm   :     0.0546334 α      lambda       -0.4890750E-05
   maximum displ.:     0.0226806 α      in ANC's #8, #7, #9, ...

........................................................................
.............................. CYCLE   46 ..............................
........................................................................
   1   -140.0028035 -0.140003E+03  0.125E-02    3.04       0.0  T
   2   -140.0028036 -0.700951E-07  0.737E-03    3.04       1.7  T
   3   -140.0028034  0.180510E-06  0.161E-03    3.04       7.7  T
   4   -140.0028036 -0.227011E-06  0.316E-04    3.04      39.0  T
   5   -140.0028036 -0.116182E-08  0.196E-04    3.04      62.8  T
     SCC iter.                  ...        0 min,  0.122 sec
     gradient                   ...        0 min,  0.124 sec
 * total energy  :  -138.4163236 Eh     change       -0.5488209E-05 Eh
   gradient norm :     0.0010119 Eh/α   predicted    -0.2452386E-05 ( -55.32%)
   displ. norm   :     0.0984281 α      lambda       -0.7511277E-05
   maximum displ.:     0.0395647 α      in ANC's #7, #8, #9, ...

........................................................................
.............................. CYCLE   47 ..............................
........................................................................
   1   -140.0028673 -0.140003E+03  0.227E-02    3.04       0.0  T
   2   -140.0028675 -0.177378E-06  0.134E-02    3.04       1.0  T
   3   -140.0028669  0.534395E-06  0.267E-03    3.04       4.6  T
   4   -140.0028676 -0.659735E-06  0.487E-04    3.04      25.3  T
   5   -140.0028676 -0.258828E-08  0.298E-04    3.04      41.4  T
     SCC iter.                  ...        0 min,  0.116 sec
     gradient                   ...        0 min,  0.152 sec
 * total energy  :  -138.4163295 Eh     change       -0.5909357E-05 Eh
   gradient norm :     0.0008773 Eh/α   predicted    -0.3785079E-05 ( -35.95%)
   displ. norm   :     0.0467032 α      lambda       -0.4197220E-05
   maximum displ.:     0.0200093 α      in ANC's #2, #7, #10, ...

........................................................................
.............................. CYCLE   48 ..............................
........................................................................
   1   -140.0028914 -0.140003E+03  0.107E-02    3.04       0.0  T
   2   -140.0028914 -0.510455E-07  0.632E-03    3.04       1.9  T
   3   -140.0028913  0.147932E-06  0.138E-03    3.04       8.9  T
   4   -140.0028914 -0.174421E-06  0.283E-04    3.04      43.6  T
   5   -140.0028914 -0.253110E-08  0.163E-04    3.04      75.4  T
     SCC iter.                  ...        0 min,  0.116 sec
     gradient                   ...        0 min,  0.119 sec
 * total energy  :  -138.4163331 Eh     change       -0.3548670E-05 Eh
   gradient norm :     0.0004673 Eh/α   predicted    -0.2104501E-05 ( -40.70%)
   displ. norm   :     0.0242712 α      lambda       -0.1877661E-05
   maximum displ.:     0.0125305 α      in ANC's #2, #7, #1, ...

   *** GEOMETRY OPTIMIZATION CONVERGED AFTER 48 ITERATIONS ***

------------------------------------------------------------------------
 total energy gain   :        -0.0281642 Eh      -17.6733 kcal/mol
 total RMSD          :         1.0004524 a0        0.5294 Å
 total power (kW/mol):        -1.5405249 (step)   -3.3672 (real)
------------------------------------------------------------------------

 ANCopt (total)                0 d,  0 h,  0 min, 21.960 sec
 optimizer setup                ...        0 min,  0.004 sec (  0.016%)
 model hessian                  ...        0 min,  0.130 sec (  0.593%)
 ANC generation                 ...        0 min,  0.034 sec (  0.153%)
 coordinate transformation      ...        0 min,  0.004 sec (  0.018%)
 single point calculation       ...        0 min, 21.130 sec ( 96.219%)
 optimization log               ...        0 min,  0.036 sec (  0.163%)
 hessian update                 ...        0 min,  0.544 sec (  2.479%)
 rational function              ...        0 min,  0.017 sec (  0.076%)

================
 final structure:
================
66
 xtb: 6.3.3 (4ae9cef)
C        -1.69503325995655   -3.11711963581322    0.19435611455178
C        -1.01172708682328   -3.49298024940754    1.48041703079139
F        -1.41501181539521   -2.78392025116391    2.54278178551572
F        -1.17886101204376   -4.78055292645330    1.80482144723788
F         0.33390551796059   -3.31499524076585    1.41244341337810
C        -2.43732161924874   -4.09026713262986   -0.46524957991216
C        -3.08262197192225   -3.79214194887790   -1.65033926896403
C        -2.98719024298181   -2.51772006096916   -2.18150714422995
C        -2.24717748307188   -1.54896481805730   -1.53031059960089
C        -1.59611601816151   -1.82826429876445   -0.33306191121988
C        -0.80876015621040   -0.72500470671568    0.33501591543259
C         0.48184508251755   -0.37755955868499   -0.44912739111524
C         1.69063886673762   -1.09999292338187    0.09192484504574
C         2.28368177007094   -0.89264331986754    1.33821776203123
C         1.85271910558282    0.07566846262893    2.41006653004459
F         0.82959362866469    0.89166657973139    2.12877575838051
F         2.86984713963252    0.88901253525718    2.76254190409429
F         1.49908760264710   -0.57642534005829    3.52946355095703
C         3.38649970831669   -1.65287391716345    1.72477512945925
C         3.90157519443177   -2.63210742708172    0.90194351474818
C         3.30006296624160   -2.87110256732071   -0.32060188447059
C         2.21533725542511   -2.11251577929061   -0.70975976197177
N         0.52790747261976    1.07719685128885   -0.44063986526171
C         1.57314680089736    1.91813278219477   -0.58730795510833
C         2.91573095853219    1.33420114753762   -0.84285564311073
C         3.97655889981996    1.69817836808750   -0.02139259974836
C         5.23630319433166    1.17602089304060   -0.25314923137599
C         5.45396542316976    0.31151217731355   -1.31167992150806
C         4.39902659815593   -0.00930399294929   -2.15176239314430
Cl        4.65712403093072   -1.07675194656607   -3.48186815689041
C         3.13029700674865    0.49878335504282   -1.93176854288352
O         1.40305384481419    3.13223127385047   -0.52241272449158
C        -0.78316737418620    1.63648622842351   -0.14107943054652
C        -1.40170232476006    2.25795955187517   -1.43238645655514
O        -0.89175796748341    3.42091024465110   -1.76942315071521
O        -2.25955716118267    1.69734222556067   -2.05261690237161
N        -1.54795920085053    0.52794962150564    0.34980007791521
C        -2.83659391088060    0.56936165763796    0.79065915266029
C        -3.44348874811378    1.93592635416776    0.82315717192665
C        -4.50088979638845    2.22085916811959   -0.02903062614440
C        -5.08419978257074    3.47639555986950    0.01534958676591
Cl       -6.38483324399528    3.84329275069260   -1.05403593972782
C        -4.64030899451948    4.43968140579422    0.90836451785371
C        -3.60330503841118    4.13449059651182    1.77251266178911
C        -3.00128465871536    2.88877321747919    1.73376440035947
O        -3.42524981215691   -0.43193273757392    1.12916464544556
H        -2.51394833519471   -5.07954078612927   -0.04193950810105
H        -3.66367093517782   -4.55173051568752   -2.14936159621126
H        -3.49489043885933   -2.27126543530799   -3.10123672005972
H        -2.20474788098043   -0.54944428842584   -1.93693896222662
H        -0.57335467423526   -0.99848696076562    1.36847141649358
H         0.33566404282235   -0.70300849454950   -1.48962768216249
H         3.82903702598236   -1.47060956341817    2.69238879743724
H         4.75312425174072   -3.21131463268061    1.22069749610692
H         3.67319623679516   -3.64534709057362   -0.97213808765958
H         1.75262181008740   -2.31141870036738   -1.66465947601724
H         3.80525641181589    2.37862158630251    0.79741878304020
H         6.05580609507558    1.44623248690660    0.39397134294734
H         6.43307985595511   -0.10141167862921   -1.49525006026967
H         2.32869633093597    0.26000215757143   -2.61264385070639
H        -0.66852095034220    2.43511238567556    0.60991322418055
H        -0.07368905032955    3.63909740799757   -1.24670404033486
H        -4.84989453312349    1.47414967717869   -0.72392480659798
H        -5.10773574993921    5.41132198544881    0.92973625923760
H        -3.26372671126899    4.87459514804144    2.48091978348337
H        -2.20609018998397    2.64755508272389    2.42395685208745

 Bond Distances (Angstroems)
 ---------------------------
C1-C2=1.5040         C1-C6=1.3904         C1-C10=1.3961        C2-C1=1.5040         C2-F3=1.3394         C2-F4=1.3383         
C2-F5=1.3591         F3-C2=1.3394         F4-C2=1.3383         F5-C2=1.3591         C6-C1=1.3904         C6-C7=1.3819         
C6-H47=1.0788        C7-C6=1.3819         C7-C8=1.3840         C7-H48=1.0787        C8-C7=1.3840         C8-C9=1.3821         
C8-H49=1.0791        C9-C8=1.3821         C9-C10=1.3911        C9-H50=1.0799        C10-C1=1.3961        C10-C9=1.3911        
C10-C11=1.5111       C11-C10=1.5111       C11-C12=1.5496       C11-N37=1.4548       C11-H51=1.0946       C12-C11=1.5496       
C12-C13=1.5086       C12-N23=1.4555       C12-H52=1.1000       C13-C12=1.5086       C13-C14=1.3957       C13-C22=1.3940       
C14-C13=1.3957       C14-C15=1.5074       C14-C19=1.3941       C15-C14=1.5074       C15-F16=1.3386       C15-F17=1.3492       
C15-F18=1.3429       F16-C15=1.3386       F17-C15=1.3492       F18-C15=1.3429       C19-C14=1.3941       C19-C20=1.3789       
C19-H53=1.0795       C20-C19=1.3789       C20-C21=1.3833       C20-H54=1.0781       C21-C20=1.3833       C21-C22=1.3797       
C21-H55=1.0785       C22-C13=1.3940       C22-C21=1.3797       C22-H56=1.0796       N23-C12=1.4555       N23-C24=1.3495       
N23-C33=1.4565       C24-N23=1.3495       C24-C25=1.4862       C24-O32=1.2277       C25-C24=1.4862       C25-C26=1.3902       
C25-C31=1.3891       C26-C25=1.3902       C26-C27=1.3832       C26-H57=1.0783       C27-C26=1.3832       C27-C28=1.3839       
C27-H58=1.0786       C28-C27=1.3839       C28-C29=1.3862       C28-H59=1.0784       C29-C28=1.3862       C29-Cl30=1.7249      
C29-C31=1.3843       Cl30-C29=1.7249      C31-C25=1.3891       C31-C29=1.3843       C31-H60=1.0785       O32-C24=1.2277       
C33-N23=1.4565       C33-C34=1.5609       C33-N37=1.4334       C33-H61=1.1022       C34-C33=1.5609       C34-O35=1.3138       
C34-O36=1.1979       O35-C34=1.3138       O35-H62=0.9950       O36-C34=1.1979       N37-C11=1.4548       N37-C33=1.4334       
N37-C38=1.3626       C38-N37=1.3626       C38-C39=1.4956       C38-O46=1.2098       C39-C38=1.4956       C39-C40=1.3876       
C39-C45=1.3902       C40-C39=1.3876       C40-C41=1.3851       C40-H63=1.0781       C41-C40=1.3851       C41-Cl42=1.7233      
C41-C43=1.3865       Cl42-C41=1.7233      C43-C41=1.3865       C43-C44=1.3839       C43-H64=1.0784       C44-C43=1.3839       
C44-C45=1.3841       C44-H65=1.0793       C45-C39=1.3902       C45-C44=1.3841       C45-H66=1.0802       O46-C38=1.2098       
H47-C6=1.0788        H48-C7=1.0787        H49-C8=1.0791        H50-C9=1.0799        H51-C11=1.0946       H52-C12=1.1000       
H53-C19=1.0795       H54-C20=1.0781       H55-C21=1.0785       H56-C22=1.0796       H57-C26=1.0783       H58-C27=1.0786       
H59-C28=1.0784       H60-C31=1.0785       H61-C33=1.1022       H62-O35=0.9950       H63-C40=1.0781       H64-C43=1.0784       
H65-C44=1.0793       H66-C45=1.0802       
 C  H  Rav=1.0820 sigma=0.0075  Rmin=1.0781  Rmax=1.1022    19
 C  C  Rav=1.4190 sigma=0.0571  Rmin=1.3789  Rmax=1.5609    32
 N  C  Rav=1.4187 sigma=0.0452  Rmin=1.3495  Rmax=1.4565     6
 O  H  Rav=0.9950 sigma=0.0000  Rmin=0.9950  Rmax=0.9950     1
 O  C  Rav=1.2373 sigma=0.0454  Rmin=1.1979  Rmax=1.3138     4
 F  C  Rav=1.3446 sigma=0.0075  Rmin=1.3383  Rmax=1.3591     6
 Cl C  Rav=1.7241 sigma=0.0008  Rmin=1.7233  Rmax=1.7249     2

 selected bond angles (degree)
 --------------------
C6-C1-C2=118.25                C10-C1-C2=121.44               C10-C1-C6=120.32               F3-C2-C1=114.15                
F4-C2-C1=113.01                F4-C2-F3=106.23                F5-C2-C1=111.98                F5-C2-F3=105.57                
F5-C2-F4=105.18                C7-C6-C1=120.34                H47-C6-C1=119.58               H47-C6-C7=120.08               
C8-C7-C6=119.71                H48-C7-C6=119.76               H48-C7-C8=120.53               C9-C8-C7=120.10                
H49-C8-C7=120.33               H49-C8-C9=119.57               C10-C9-C8=121.02               H50-C9-C8=119.50               
H50-C9-C10=119.44              C9-C10-C1=118.51               C11-C10-C1=122.95              C11-C10-C9=118.54              

 selected dihedral angles (degree)
 ---------------------------------
F3-C2-C1-C6=240.78            F3-C2-C1-C10= 60.69           F4-C2-C1-C6=  2.32            F4-C2-C1-C10=182.24           
F5-C2-C1-C6=120.89            F5-C2-C1-C10=300.80           C7-C6-C1-C2=180.02            C7-C6-C1-C10=  0.11           
H47-C6-C1-C2=  0.53           H47-C6-C1-C10=180.61          C8-C7-C6-C1=  0.04            C8-C7-C6-H47=179.53           
H48-C7-C6-C1=180.58           H48-C7-C6-H47=  0.07          C9-C8-C7-C6=  0.14            C9-C8-C7-H48=179.59           
H49-C8-C7-C6=180.60           H49-C8-C7-H48=  0.05          C10-C9-C8-C7=359.54           C10-C9-C8-H49=179.08          
H50-C9-C8-C7=181.92           H50-C9-C8-H49=  1.46          C9-C10-C1-C2=179.67           C9-C10-C1-C6=359.58           
C11-C10-C1-C2=359.95          C11-C10-C1-C6=179.86          C1-C10-C9-C8=  0.60           C1-C10-C9-H50=178.22          
C11-C10-C9-C8=180.33          C11-C10-C9-H50=357.95         
           -------------------------------------------------
          |                Final Singlepoint                |
           -------------------------------------------------

          ...................................................
          :                      SETUP                      :
          :.................................................:
          :  # basis functions                 216          :
          :  # atomic orbitals                 214          :
          :  # shells                          114          :
          :  # electrons                       238          :
          :  max. iterations                   250          :
          :  Hamiltonian                  GFN2-xTB          :
          :  restarted?                      false          :
          :  GBSA solvation                  false          :
          :  PC potential                    false          :
          :  electronic temp.          300.0000000     K    :
          :  accuracy                    1.0000000          :
          :  -> integral cutoff          0.2500000E+02      :
          :  -> integral neglect         0.1000000E-07      :
          :  -> SCF convergence          0.1000000E-05 Eh   :
          :  -> wf. convergence          0.1000000E-03 e    :
          :  Broyden damping             0.4000000          :
          ...................................................

 iter      E             dE          RMSdq      gap      omega  full diag
   1   -140.0028914 -0.140003E+03  0.896E-05    3.04       0.0  T
   2   -140.0028914 -0.754028E-10  0.694E-05    3.04     177.4  T
   3   -140.0028914 -0.424620E-10  0.555E-05    3.04     221.6  T

   *** convergence criteria satisfied after 3 iterations ***

         #    Occupation            Energy/Eh            Energy/eV
      -------------------------------------------------------------
         1        2.0000           -1.0791295             -29.3646
       ...           ...                  ...                  ...
       113        2.0000           -0.4351954             -11.8423
       114        2.0000           -0.4277568             -11.6399
       115        2.0000           -0.4267833             -11.6134
       116        2.0000           -0.4207415             -11.4490
       117        2.0000           -0.4106883             -11.1754
       118        2.0000           -0.4049600             -11.0195
       119        2.0000           -0.4030166             -10.9666 (HOMO)
       120                         -0.2913797              -7.9288 (LUMO)
       121                         -0.2887659              -7.8577
       122                         -0.2763300              -7.5193
       123                         -0.2681253              -7.2961
       124                         -0.2669719              -7.2647
       ...                                ...                  ...
       214                          0.6482124              17.6388
      -------------------------------------------------------------
                  HL-Gap            0.1116369 Eh            3.0378 eV
             Fermi-level           -0.3471982 Eh           -9.4477 eV

 SCC (total)                   0 d,  0 h,  0 min,  0.356 sec
 SCC setup                      ...        0 min,  0.012 sec (  3.422%)
 Dispersion                     ...        0 min,  0.021 sec (  5.940%)
 classical contributions        ...        0 min,  0.019 sec (  5.239%)
 integral evaluation            ...        0 min,  0.097 sec ( 27.246%)
 iterations                     ...        0 min,  0.075 sec ( 21.176%)
 molecular gradient             ...        0 min,  0.128 sec ( 36.066%)
 printout                       ...        0 min,  0.003 sec (  0.885%)

         :::::::::::::::::::::::::::::::::::::::::::::::::::::
         ::                     SUMMARY                     ::
         :::::::::::::::::::::::::::::::::::::::::::::::::::::
         :: total energy            -138.416333071137 Eh    ::
         :: gradient norm              0.000467154547 Eh/a0 ::
         :: HOMO-LUMO gap              3.037794618965 eV    ::
         ::.................................................::
         :: SCC energy              -140.002891442013 Eh    ::
         :: -> isotropic ES            0.208635000759 Eh    ::
         :: -> anisotropic ES         -0.006932133640 Eh    ::
         :: -> anisotropic XC         -0.000198238133 Eh    ::
         :: -> dispersion             -0.106503820253 Eh    ::
         :: repulsion energy           1.582542679168 Eh    ::
         :: add. restraining           0.000000000000 Eh    ::
         :: total charge              -0.000000000000 e     ::
         :::::::::::::::::::::::::::::::::::::::::::::::::::::

           -------------------------------------------------
          |                Property Printout                |
           -------------------------------------------------

    * Orbital Energies and Occupations

         #    Occupation            Energy/Eh            Energy/eV
      -------------------------------------------------------------
         1        2.0000           -1.0791295             -29.3646
       ...           ...                  ...                  ...
       107        2.0000           -0.4508173             -12.2674
       108        2.0000           -0.4482797             -12.1983
       109        2.0000           -0.4450667             -12.1109
       110        2.0000           -0.4427778             -12.0486
       111        2.0000           -0.4392695             -11.9531
       112        2.0000           -0.4360119             -11.8645
       113        2.0000           -0.4351954             -11.8423
       114        2.0000           -0.4277568             -11.6399
       115        2.0000           -0.4267833             -11.6134
       116        2.0000           -0.4207415             -11.4490
       117        2.0000           -0.4106883             -11.1754
       118        2.0000           -0.4049600             -11.0195
       119        2.0000           -0.4030166             -10.9666 (HOMO)
       120                         -0.2913797              -7.9288 (LUMO)
       121                         -0.2887659              -7.8577
       122                         -0.2763300              -7.5193
       123                         -0.2681253              -7.2961
       124                         -0.2669719              -7.2647
       125                         -0.2651914              -7.2162
       126                         -0.2588123              -7.0426
       127                         -0.2558493              -6.9620
       128                         -0.2461906              -6.6992
       129                         -0.2425650              -6.6005
       130                         -0.2200722              -5.9885
       ...                                ...                  ...
       214                          0.6482124              17.6388
      -------------------------------------------------------------
                  HL-Gap            0.1116369 Eh            3.0378 eV
             Fermi-level           -0.3471982 Eh           -9.4477 eV

     #   Z          covCN         q      C6AA      α(0)
     1   6 C        2.975    -0.028    28.686     8.785
     2   6 C        3.335     0.485    17.306     6.590
     3   9 F        0.791    -0.198    11.211     3.955
     4   9 F        0.792    -0.200    11.231     3.959
     5   9 F        0.791    -0.232    11.569     4.018
     6   6 C        2.923    -0.021    28.542     8.761
     7   6 C        2.919    -0.022    28.553     8.763
     8   6 C        2.919    -0.016    28.418     8.742
     9   6 C        2.925    -0.030    28.751     8.793
    10   6 C        2.971     0.019    27.571     8.613
    11   6 C        3.820     0.051    19.708     6.318
    12   6 C        3.819     0.039    19.910     6.350
    13   6 C        2.965     0.009    27.822     8.652
    14   6 C        2.975    -0.029    28.726     8.792
    15   6 C        3.343     0.487    17.168     6.546
    16   9 F        0.792    -0.210    11.339     3.978
    17   9 F        0.792    -0.211    11.354     3.980
    18   9 F        0.792    -0.199    11.226     3.958
    19   6 C        2.935    -0.019    28.482     8.753
    20   6 C        2.919    -0.019    28.485     8.752
    21   6 C        2.919    -0.015    28.379     8.736
    22   6 C        2.932    -0.028    28.698     8.785
    23   7 N        2.756    -0.103    23.253     7.162
    24   6 C        2.768     0.270    22.446     7.759
    25   6 C        2.978    -0.010    28.268     8.721
    26   6 C        2.923    -0.025    28.627     8.774
    27   6 C        2.922    -0.023    28.579     8.767
    28   6 C        2.955    -0.037    28.907     8.819
    29   6 C        2.889     0.100    25.787     8.326
    30  17 Cl       0.971    -0.160   104.166    15.614
    31   6 C        2.961    -0.042    29.045     8.840
    32   8 O        0.860    -0.449    22.678     6.385
    33   6 C        3.760     0.072    19.425     6.283
    34   6 C        2.685     0.349    21.070     7.512
    35   8 O        1.656    -0.359    20.069     6.047
    36   8 O        0.856    -0.366    21.010     6.145
    37   7 N        2.761    -0.108    23.352     7.177
    38   6 C        2.764     0.278    22.297     7.733
    39   6 C        2.979    -0.014    28.364     8.736
    40   6 C        2.961    -0.028    28.704     8.788
    41   6 C        2.889     0.104    25.691     8.310
    42  17 Cl       0.971    -0.159   104.128    15.611
    43   6 C        2.956    -0.037    28.924     8.821
    44   6 C        2.922    -0.025    28.635     8.775
    45   6 C        2.920    -0.038    28.949     8.823
    46   8 O        0.859    -0.404    21.764     6.255
    47   1 H        0.926     0.067     2.114     2.274
    48   1 H        0.926     0.058     2.218     2.329
    49   1 H        0.926     0.061     2.187     2.313
    50   1 H        0.926     0.077     2.013     2.219
    51   1 H        0.924     0.065     2.138     2.286
    52   1 H        0.923     0.062     2.179     2.308
    53   1 H        0.926     0.069     2.093     2.262
    54   1 H        0.926     0.066     2.131     2.283
    55   1 H        0.926     0.067     2.124     2.279
    56   1 H        0.926     0.055     2.257     2.349
    57   1 H        0.926     0.072     2.068     2.249
    58   1 H        0.926     0.065     2.144     2.290
    59   1 H        0.926     0.068     2.102     2.267
    60   1 H        0.926     0.057     2.229     2.335
    61   1 H        0.923     0.080     1.975     2.198
    62   1 H        0.800     0.368     0.548     1.163
    63   1 H        0.926     0.075     2.032     2.229
    64   1 H        0.926     0.065     2.141     2.288
    65   1 H        0.926     0.056     2.252     2.347
    66   1 H        0.926     0.047     2.358     2.401

 Mol. C6AA /au·bohr⁶  :      67443.908412
 Mol. C8AA /au·bohr⁸  :    1735444.518700
 Mol. α(0) /au        :        403.430780


Wiberg/Mayer (AO) data.
largest (>0.10) Wiberg bond orders for each atom

 ---------------------------------------------------------------------------
     #   Z sym  total        # sym  WBO       # sym  WBO       # sym  WBO
 ---------------------------------------------------------------------------
     1   6 C    3.969 --     6 C    1.412    10 C    1.386     2 C    0.951
                             8 C    0.105
     2   6 C    3.820 --     4 F    0.957     3 F    0.953     1 C    0.951
                             5 F    0.920
     3   9 F    1.085 --     2 C    0.953
     4   9 F    1.080 --     2 C    0.957
     5   9 F    1.046 --     2 C    0.920
     6   6 C    3.987 --     7 C    1.443     1 C    1.412    47 H    0.966
                             9 C    0.109
     7   6 C    3.988 --     6 C    1.443     8 C    1.433    48 H    0.969
                            10 C    0.108
     8   6 C    3.989 --     9 C    1.447     7 C    1.433    49 H    0.968
                             1 C    0.105
     9   6 C    3.985 --     8 C    1.447    10 C    1.409    50 H    0.957
                             6 C    0.109
    10   6 C    3.985 --     9 C    1.409     1 C    1.386    11 C    0.990
                             7 C    0.108
    11   6 C    3.969 --    10 C    0.990    37 N    0.962    51 H    0.953
                            12 C    0.948
    12   6 C    3.967 --    13 C    0.996    23 N    0.962    11 C    0.948
                            52 H    0.948
    13   6 C    3.985 --    22 C    1.399    14 C    1.395    12 C    0.996
                            20 C    0.107
    14   6 C    3.971 --    19 C    1.402    13 C    1.395    15 C    0.950
                            21 C    0.105
    15   6 C    3.825 --    18 F    0.950    14 C    0.950    16 F    0.948
                            17 F    0.938
    16   9 F    1.072 --    15 C    0.948
    17   9 F    1.065 --    15 C    0.938
    18   9 F    1.079 --    15 C    0.950
    19   6 C    3.987 --    20 C    1.451    14 C    1.402    53 H    0.966
                            22 C    0.109
    20   6 C    3.987 --    19 C    1.451    21 C    1.426    54 H    0.968
                            13 C    0.107
    21   6 C    3.988 --    22 C    1.453    20 C    1.426    55 H    0.967
                            14 C    0.105
    22   6 C    3.987 --    21 C    1.453    13 C    1.399    56 H    0.965
                            19 C    0.109
    23   7 N    3.499 --    24 C    1.256    33 C    0.965    12 C    0.962
                            32 O    0.187
    24   6 C    3.945 --    32 O    1.604    23 N    1.256    25 C    0.983
    25   6 C    3.987 --    26 C    1.399    31 C    1.396    24 C    0.983
                            28 C    0.105
    26   6 C    3.987 --    27 C    1.438    25 C    1.399    57 H    0.966
    27   6 C    3.989 --    28 C    1.440    26 C    1.438    58 H    0.967
                            31 C    0.108
    28   6 C    3.987 --    27 C    1.440    29 C    1.398    59 H    0.966
                            25 C    0.105
    29   6 C    3.923 --    31 C    1.408    28 C    1.398    30 Cl   0.984
    30  17 Cl   1.123 --    29 C    0.984
    31   6 C    3.988 --    29 C    1.408    25 C    1.396    60 H    0.965
                            27 C    0.108
    32   8 O    2.012 --    24 C    1.604    23 N    0.187
    33   6 C    3.955 --    37 N    1.000    23 N    0.965    61 H    0.934
                            34 C    0.888
    34   6 C    3.931 --    36 O    1.772    35 O    1.210    33 C    0.888
    35   8 O    2.246 --    34 C    1.210    62 H    0.776    36 O    0.183
    36   8 O    2.080 --    34 C    1.772    35 O    0.183
    37   7 N    3.456 --    38 C    1.190    33 C    1.000    11 C    0.962
                            46 O    0.189
    38   6 C    3.945 --    46 O    1.709    37 N    1.190    39 C    0.960
    39   6 C    3.986 --    40 C    1.409    45 C    1.400    38 C    0.960
                            43 C    0.107
    40   6 C    3.987 --    39 C    1.409    41 C    1.405    63 H    0.964
                            44 C    0.108
    41   6 C    3.924 --    40 C    1.405    43 C    1.401    42 Cl   0.985
    42  17 Cl   1.126 --    41 C    0.985
    43   6 C    3.988 --    44 C    1.440    41 C    1.401    64 H    0.967
                            39 C    0.107
    44   6 C    3.990 --    43 C    1.440    45 C    1.439    65 H    0.968
                            40 C    0.108
    45   6 C    3.990 --    44 C    1.439    39 C    1.400    66 H    0.967
    46   8 O    2.040 --    38 C    1.709    37 N    0.189
    47   1 H    0.995 --     6 C    0.966
    48   1 H    0.996 --     7 C    0.969
    49   1 H    0.996 --     8 C    0.968
    50   1 H    0.994 --     9 C    0.957
    51   1 H    0.995 --    11 C    0.953
    52   1 H    0.996 --    12 C    0.948
    53   1 H    0.995 --    19 C    0.966
    54   1 H    0.995 --    20 C    0.968
    55   1 H    0.995 --    21 C    0.967
    56   1 H    0.997 --    22 C    0.965
    57   1 H    0.994 --    26 C    0.966
    58   1 H    0.995 --    27 C    0.967
    59   1 H    0.995 --    28 C    0.966
    60   1 H    0.997 --    31 C    0.965
    61   1 H    0.993 --    33 C    0.934
    62   1 H    0.864 --    35 O    0.776
    63   1 H    0.994 --    40 C    0.964
    64   1 H    0.995 --    43 C    0.967
    65   1 H    0.996 --    44 C    0.968
    66   1 H    0.997 --    45 C    0.967
 ---------------------------------------------------------------------------

Topologies differ in total number of bonds
Writing topology from bond orders to xtbtopo.mol

molecular dipole:
                 x           y           z       tot (Debye)
 q only:        2.397      -0.815      -0.828
   full:        2.648      -0.796      -0.829       7.336
molecular quadrupole (traceless):
                xx          xy          yy          xz          yz          zz
 q only:        5.934       1.183       9.689       4.061      24.086     -15.623
  q+dip:        4.764      -3.407       6.274       8.302      29.925     -11.039
   full:        5.741      -1.760       5.656       3.271      27.024     -11.397

           -------------------------------------------------
          |                Geometry Summary                 |
           -------------------------------------------------

      molecular mass/u    :      681.4096840
   center of mass at/Å    :       -0.1327535       0.0517057       0.0432227
  moments of inertia/u·Å² :        0.5333292E+04   0.9355804E+04   0.1106153E+05
rotational constants/cm⁻¹ :        0.3160830E-02   0.1801837E-02   0.1523988E-02

 * 62 selected distances

     #   Z          #   Z                                           value/Å
     2   6 C        3   9 F                                       1.3394116
     2   6 C        4   9 F                                       1.3382882
     2   6 C        5   9 F                                       1.3590534
     1   6 C        6   6 C                                       1.3903553
     6   6 C        7   6 C                                       1.3819294
     7   6 C        8   6 C                                       1.3839789
     8   6 C        9   6 C                                       1.3820863
     1   6 C       10   6 C                                       1.3961026
     9   6 C       10   6 C                                       1.3911483
    13   6 C       14   6 C                                       1.3956861
    15   6 C       16   9 F                                       1.3385676
    15   6 C       17   9 F                                       1.3491912
    15   6 C       18   9 F                                       1.3428817
    14   6 C       19   6 C                                       1.3941250
    19   6 C       20   6 C                                       1.3788593
    20   6 C       21   6 C                                       1.3833123
    13   6 C       22   6 C                                       1.3939904
    21   6 C       22   6 C                                       1.3796839
    12   6 C       23   7 N                                       1.4555102
    23   7 N       24   6 C                                       1.3495221
    25   6 C       26   6 C                                       1.3901931
    26   6 C       27   6 C                                       1.3832264
    27   6 C       28   6 C                                       1.3839217
    28   6 C       29   6 C                                       1.3862025
    29   6 C       30  17 Cl                                      1.7248886 (max)
    25   6 C       31   6 C                                       1.3891338
    29   6 C       31   6 C                                       1.3842777
    24   6 C       32   8 O                                       1.2276718
    23   7 N       33   6 C                                       1.4565227
    34   6 C       35   8 O                                       1.3138079
    34   6 C       36   8 O                                       1.1978700
    11   6 C       37   7 N                                       1.4548293
    33   6 C       37   7 N                                       1.4334304
    37   7 N       38   6 C                                       1.3625898
    39   6 C       40   6 C                                       1.3876267
    40   6 C       41   6 C                                       1.3851324
    41   6 C       42  17 Cl                                      1.7233242
    41   6 C       43   6 C                                       1.3865188
    43   6 C       44   6 C                                       1.3839330
    39   6 C       45   6 C                                       1.3902040
    44   6 C       45   6 C                                       1.3841032
    38   6 C       46   8 O                                       1.2098315
     6   6 C       47   1 H                                       1.0787611
     7   6 C       48   1 H                                       1.0787103
     8   6 C       49   1 H                                       1.0790745
     9   6 C       50   1 H                                       1.0799019
    11   6 C       51   1 H                                       1.0946408
    12   6 C       52   1 H                                       1.0999667
    19   6 C       53   1 H                                       1.0795072
    20   6 C       54   1 H                                       1.0780635
    21   6 C       55   1 H                                       1.0785094
    22   6 C       56   1 H                                       1.0795839
    26   6 C       57   1 H                                       1.0783319
    27   6 C       58   1 H                                       1.0785937
    28   6 C       59   1 H                                       1.0783641
    31   6 C       60   1 H                                       1.0785042
    33   6 C       61   1 H                                       1.1022420
    35   8 O       62   1 H                                       0.9950265 (min)
    40   6 C       63   1 H                                       1.0780804
    43   6 C       64   1 H                                       1.0784387
    44   6 C       65   1 H                                       1.0793094
    45   6 C       66   1 H                                       1.0802250

 * 7 distinct bonds (by element types)

   Z      Z             #   av. dist./Å        max./Å        min./Å
   1 H    6 C          19     1.0820426     1.1022420     1.0780635
   6 C    6 C          24     1.3869055     1.3961026     1.3788593
   6 C    7 N           6     1.4187341     1.4565227     1.3495221
   1 H    8 O           1     0.9950265     0.9950265     0.9950265
   6 C    8 O           4     1.2372953     1.3138079     1.1978700
   6 C    9 F           6     1.3445656     1.3590534     1.3382882
   6 C   17 Cl          2     1.7241064     1.7248886     1.7233242


optimized geometry written to: xtbopt.xyz


           -------------------------------------------------
          | TOTAL ENERGY             -138.416333071137 Eh   |
          | GRADIENT NORM               0.000467154547 Eh/α |
          | HOMO-LUMO GAP               3.037794618965 eV   |
           -------------------------------------------------

------------------------------------------------------------------------
 * finished run on 2022/03/16 at 23:27:39.895     
------------------------------------------------------------------------
 total:
 * wall-time:     0 d,  0 h,  0 min, 23.093 sec
 *  cpu-time:     0 d,  0 h,  8 min,  0.017 sec
 * ratio c/w:    20.786 speedup
 SCF:
 * wall-time:     0 d,  0 h,  0 min,  0.633 sec
 *  cpu-time:     0 d,  0 h,  0 min,  9.628 sec
 * ratio c/w:    15.199 speedup
 ANC optimizer:
 * wall-time:     0 d,  0 h,  0 min, 22.318 sec
 *  cpu-time:     0 d,  0 h,  7 min, 46.286 sec
 * ratio c/w:    20.893 speedup

