66
 energy: -108.813873468761 gnorm: 0.098115221617 xtb: 6.3.3 (4ae9cef)
C         2.80023300000000   -3.61841100000000    0.69492600000000
C         3.50834800000000   -4.04538500000000    1.81951600000000
C         3.30223000000000   -3.42786700000000    3.05043100000000
C         2.39091000000000   -2.38038800000000    3.15790100000000
C         1.68214600000000   -1.95052700000000    2.03432000000000
C         1.87535400000000   -2.56565000000000    0.78549500000000
C         1.10706400000000   -2.13473100000000   -0.46390400000000
C        -0.40905700000000   -2.42126100000000   -0.31367900000000
C        -1.09132100000000   -3.04089600000000   -1.52813600000000
C        -0.68966500000000   -2.78703600000000   -2.84957200000000
C        -1.37301400000000   -3.35776200000000   -3.92659300000000
C        -2.46963300000000   -4.18513700000000   -3.70241800000000
C        -2.88871700000000   -4.44088400000000   -2.40043400000000
C        -2.20845400000000   -3.87022600000000   -1.32322500000000
N        -0.99969300000000   -1.10405400000000   -0.02901000000000
C        -2.02224400000000   -0.97824100000000    0.91080900000000
C        -2.53481400000000    0.34122900000000    1.23940900000000
C        -3.39821900000000    0.73838000000000    2.24391300000000
C        -3.60103800000000    2.13997300000000    2.10178600000000
C        -4.44398700000000    3.01591800000000    2.95098800000000
C        -2.84882100000000    2.50941000000000    1.00271100000000
C        -2.62025200000000    3.79635100000000    0.31107800000000
O        -2.21629800000000    1.42766300000000    0.47780600000000
O        -2.49562300000000   -1.98555800000000    1.43818800000000
C        -0.08916900000000   -0.03393600000000   -0.45963700000000
C        -0.60088000000000    0.63099900000000   -1.78718400000000
O        -1.80056600000000    0.16974800000000   -2.22806600000000
O         0.01321300000000    1.47246200000000   -2.42980200000000
N         1.19252600000000   -0.69185100000000   -0.67614000000000
C         2.40738700000000   -0.09947400000000   -0.99505100000000
C         2.58891500000000    1.32803200000000   -0.80276700000000
C         3.55900900000000    2.17568300000000   -1.30540100000000
C         3.30627700000000    3.47222500000000   -0.77945500000000
C         4.07059300000000    4.71315100000000   -1.04792800000000
C         2.20180600000000    3.32692100000000    0.03780100000000
C         1.43386100000000    4.26798500000000    0.87819200000000
O         1.77525800000000    2.03538900000000    0.03802100000000
O         3.32358600000000   -0.80271900000000   -1.42899800000000
H         2.98883500000000   -4.10801400000000   -0.25886900000000
H         4.22716500000000   -4.85627800000000    1.73234400000000
H         3.85719100000000   -3.75880100000000    3.92400600000000
H         2.23552500000000   -1.89380600000000    4.11798400000000
H         0.98382100000000   -1.12579000000000    2.14872900000000
H         1.54771400000000   -2.64374700000000   -1.32822400000000
H        -0.57571900000000   -3.10147300000000    0.53175300000000
H         0.15028500000000   -2.13311600000000   -3.07558000000000
H        -1.05084000000000   -3.14969200000000   -4.94463200000000
H        -2.99873300000000   -4.62743800000000   -4.54282200000000
H        -3.74805900000000   -5.08212500000000   -2.22085100000000
H        -2.56225200000000   -4.07755500000000   -0.31311300000000
H        -3.82987000000000    0.08274300000000    2.98929400000000
H        -3.81536800000000    3.67445000000000    3.55847000000000
H        -5.10143000000000    3.63786000000000    2.33445900000000
H        -5.07316200000000    2.42607300000000    3.62524800000000
H        -3.53380900000000    4.12356800000000   -0.19443200000000
H        -2.32534100000000    4.56959400000000    1.02738500000000
H        -1.82686000000000    3.70919400000000   -0.43804300000000
H        -0.00846400000000    0.70625100000000    0.33417000000000
H        -2.14285900000000   -0.55476100000000   -1.66577900000000
H         4.35274200000000    1.87933600000000   -1.97970300000000
H         3.41362800000000    5.48703200000000   -1.45819400000000
H         4.87473800000000    4.53581500000000   -1.76912200000000
H         4.52030500000000    5.09260900000000   -0.12491700000000
H         1.09053000000000    5.11984800000000    0.28337400000000
H         2.05824500000000    4.64355900000000    1.69454200000000
H         0.55479100000000    3.78513600000000    1.31663000000000
66
 energy: -108.823521494779 gnorm: 0.034639747450 xtb: 6.3.3 (4ae9cef)
C         2.79465347665270   -3.60955017320176    0.69423062035280
C         3.49791575347231   -4.03399956691852    1.81152389861881
C         3.29403812359999   -3.42042870552303    3.03633125487478
C         2.38698223183663   -2.37821705455866    3.13688368843890
C         1.68387399145700   -1.95328144403020    2.01895148842930
C         1.87632166579481   -2.56669185556025    0.78277121215452
C         1.10326841764162   -2.13547878953838   -0.45596493358834
C        -0.40967253892506   -2.41743441085452   -0.32057253680744
C        -1.09253245717180   -3.03491903380389   -1.53243776313726
C        -0.69415237122369   -2.77812066615390   -2.84259567514289
C        -1.37088938215066   -3.34895088024328   -3.91193838045369
C        -2.46056243341499   -4.17522329742564   -3.69126356175967
C        -2.87579019429385   -4.42722003398527   -2.39387960178414
C        -2.19713735038013   -3.86209847520360   -1.32473784014135
N        -0.98869865764465   -1.10174145685150   -0.01969693150249
C        -1.99927392311221   -0.98501240562558    0.92009588632138
C        -2.51885252367842    0.34141916216640    1.23126085975463
C        -3.38716423511746    0.73181213180720    2.22736957601939
C        -3.58991848751815    2.12611426234629    2.08558379644049
C        -4.43410987722876    3.00585179811620    2.93981736062398
C        -2.83855967514388    2.50014556763356    0.99395622017285
C        -2.62373524741321    3.80060581221595    0.31538575084670
O        -2.19106082607743    1.42981404840909    0.47980517586962
O        -2.48384667515298   -1.98644240990471    1.42532401975085
C        -0.09258532160366   -0.03869862545085   -0.45129559073472
C        -0.59106007351045    0.61165434296668   -1.77763740128866
O        -1.78113504142184    0.17525866840135   -2.21583478896563
O         0.01650596449425    1.45464031034493   -2.37417447077631
N         1.18590171097378   -0.69189264395195   -0.66009974623866
C         2.39122946825086   -0.10964928451803   -0.99369319835853
C         2.56704305426678    1.32429584167445   -0.80445246558967
C         3.53824442774772    2.16218887175795   -1.30387193406991
C         3.29235510806001    3.45335545414477   -0.77747021078611
C         4.06198367372411    4.69948391608737   -1.04345399658399
C         2.18977585229124    3.31591399004733    0.03248951337811
C         1.43797930989549    4.27642410130732    0.87621342793631
O         1.74948195762703    2.03607484000224    0.01988764138944
O         3.30406394255428   -0.81130355000935   -1.40571562509448
H         2.97407614897212   -4.09449691217848   -0.25605585855765
H         4.21082815705010   -4.84326946219899    1.72492077667464
H         3.84382071332831   -3.75044708027260    3.90841915255097
H         2.22705452537919   -1.89413874252949    4.09168934623480
H         0.98222646480457   -1.13595309820753    2.12603328740918
H         1.53615972232894   -2.64771872551839   -1.32121206361764
H        -0.59006974571705   -3.07764903006570    0.53615981692718
H         0.14837181917180   -2.13288902512098   -3.05608157531802
H        -1.04541388231468   -3.14514080802442   -4.92320593529378
H        -2.98564886186117   -4.61879004668986   -4.52749838048466
H        -3.72897523614045   -5.06755233573766   -2.21280917680792
H        -2.54071125547431   -4.06136515715081   -0.31742630816839
H        -3.81425378897576    0.08512210662419    2.97099603093596
H        -3.81375122683628    3.66681939703383    3.54753048966482
H        -5.08670379014457    3.63045792532501    2.32876940253067
H        -5.05550854429600    2.41370147953303    3.61005722348889
H        -3.53423299802995    4.12682565639894   -0.18930616453927
H        -2.33848425590905    4.57146088301950    1.03267432019437
H        -1.83522492779392    3.69947819232277   -0.42966994593269
H        -0.01769067096577    0.73507031997384    0.31913950198052
H        -2.12453680191568   -0.55115600818799   -1.66241183608822
H         4.32695891801648    1.87149480198527   -1.97232947119641
H         3.41194317262183    5.47626776041119   -1.44910639139652
H         4.86021111298850    4.51515464970285   -1.76084788018790
H         4.50971374373452    5.08455245478019   -0.12581135128302
H         1.10230983280815    5.12849165943496    0.28400816330433
H         2.06070297589958    4.65187383051342    1.69019920739044
H         0.56594784111321    3.78509395870774    1.30607888101643
66
 energy: -108.825889829269 gnorm: 0.013973900033 xtb: 6.3.3 (4ae9cef)
C         2.78672270801672   -3.60788580269847    0.68462188752721
C         3.48893434916591   -4.02678027775416    1.79979071986235
C         3.28460329502328   -3.41168235207399    3.02155606166297
C         2.37725619243821   -2.37198285245822    3.11742885943144
C         1.67520363463315   -1.95367369783732    2.00133829047163
C         1.86993897591505   -2.57119228889693    0.77332539642373
C         1.09752921721038   -2.13860670147939   -0.45682364398905
C        -0.40984433930511   -2.41508847155882   -0.31521759526920
C        -1.08977932930404   -3.02449397896550   -1.52697348254458
C        -0.68872960531086   -2.76302196107200   -2.83080420260292
C        -1.36175420856631   -3.33365147094785   -3.89782719497826
C        -2.44848282644706   -4.16119030941844   -3.67951030037413
C        -2.86321049073818   -4.41416760853698   -2.38375102117773
C        -2.18801411748642   -3.85098909853582   -1.31680754589989
N        -0.98234148224753   -1.10019724095935   -0.00807762388380
C        -1.99066071897707   -0.99377895276069    0.92284063505427
C        -2.50030458621730    0.34257378272138    1.22571165092893
C        -3.36838120128778    0.72643946494173    2.21982774052497
C        -3.57602375204162    2.11530894226726    2.07372168101033
C        -4.42484753800719    2.99491396415781    2.92679947086325
C        -2.82363892144978    2.49327341793344    0.98764366035338
C        -2.62408615348458    3.80383577178310    0.31786413619985
O        -2.17206079360347    1.43058756731893    0.47632273139569
O        -2.47533265972148   -1.98914296543424    1.42879254305949
C        -0.09727140397534   -0.04488563834730   -0.44085035170689
C        -0.58874341780891    0.61630302771925   -1.76021536725723
O        -1.75307180486274    0.16370697320611   -2.21744574948979
O         0.03900974008782    1.44671728155058   -2.33908635597910
N         1.18057218373551   -0.69339860902207   -0.63993638938788
C         2.37929482140987   -0.12171505667698   -0.98133486775577
C         2.53964897156749    1.32106650599579   -0.80463282422960
C         3.51384296266837    2.14807541067944   -1.30597419419333
C         3.27511127487466    3.43671199176779   -0.77828074440127
C         4.05236030800349    4.68227742831688   -1.03955078922556
C         2.17121953135911    3.30773762000602    0.02546201219361
C         1.43673113803435    4.28540932149745    0.87199498129134
O         1.72444298727648    2.03587524661054    0.01275583434993
O         3.29245038766864   -0.82003519510628   -1.38382783123026
H         2.96054832281379   -4.08810347219163   -0.26572852161256
H         4.19987055392051   -4.83454659116712    1.71432428474986
H         3.83133816631558   -3.73879175491440    3.89367563782979
H         2.21501217648195   -1.88547668540064    4.06780631328302
H         0.97226133673149   -1.13855450109821    2.09826706333536
H         1.52459056658858   -2.64701338058806   -1.32710227203924
H        -0.60363273838169   -3.06423417869346    0.54699457531887
H         0.15287994500117   -2.11695921394425   -3.03234571094977
H        -1.03436188100963   -3.12958085574072   -4.90542939509999
H        -2.96991745799713   -4.60581787708474   -4.51403686309120
H        -3.71248243912792   -5.05543928811048   -2.20267787843660
H        -2.52072006864802   -4.04730154517886   -0.30915979271459
H        -3.79817818508356    0.08220808849331    2.95800701877001
H        -3.80567049482131    3.65614691719852    3.53288549220972
H        -5.07349218478656    3.61767585323532    2.31370774891423
H        -5.03938685582368    2.39618001364868    3.59275725763734
H        -3.53825589581254    4.12570145727608   -0.17965427043090
H        -2.34642756770100    4.56968643710631    1.03984489421579
H        -1.84011457062077    3.70162887582437   -0.42797002168402
H        -0.02475764362369    0.75198678418054    0.31153497342559
H        -2.10421892811295   -0.55334590404694   -1.65962106819010
H         4.30123171000614    1.85751909836184   -1.96932132060455
H         3.40474945107945    5.45982673090730   -1.44266143366777
H         4.84709626039494    4.48801898480549   -1.75371980626209
H         4.49647151476515    5.06426723592168   -0.12078459852029
H         1.11047627192147    5.13737660682094    0.27820588355517
H         2.06885879215114    4.65772647479294    1.67790655199740
H         0.56793851513332    3.79595950165358    1.30342304103338
66
 energy: -108.826397279446 gnorm: 0.008379873585 xtb: 6.3.3 (4ae9cef)
C         2.78431799613060   -3.61219865840893    0.67621766226648
C         3.48575699188926   -4.02625890672575    1.79335374031758
C         3.27912729001471   -3.40643566936469    3.01311817549623
C         2.37026702098501   -2.36703330592464    3.10663424293734
C         1.66875929064103   -1.95332129360400    1.98939221628386
C         1.86774836473488   -2.57632361280535    0.76506741458578
C         1.09422384369153   -2.14226912815605   -0.45848161852510
C        -0.40899473768160   -2.41631611559073   -0.30793634325966
C        -1.08826071801662   -3.01830608051820   -1.51916697811085
C        -0.68472079404717   -2.74827047457470   -2.82053863080208
C        -1.35518026883123   -3.31792638006535   -3.88915767544534
C        -2.44006697656310   -4.14922187841798   -3.67287012684147
C        -2.85723466405610   -4.40713130747171   -2.37822120953404
C        -2.18454324200345   -3.84648762732485   -1.30899753613723
N        -0.97770453666322   -1.10118543775226    0.00179715368617
C        -1.98546095008075   -0.99918968802776    0.92830767983668
C        -2.48856398804640    0.34241381896293    1.22378000338126
C        -3.35923327907508    0.72277180667127    2.21548152346329
C        -3.56768642791145    2.11047171353182    2.06759028767083
C        -4.41888212256745    2.98910100777969    2.91831253196659
C        -2.81450109424312    2.48926751275259    0.98293854062834
C        -2.62331830440653    3.80458860821291    0.31810785442474
O        -2.16162530091903    1.42904369092929    0.47265912147894
O        -2.47570572239620   -1.99132762469103    1.43462773598403
C        -0.09752555767172   -0.05004204895314   -0.43246755101364
C        -0.57472766328615    0.60242630110735   -1.76423729954035
O        -1.74595392210347    0.16970679668151   -2.21379957186889
O         0.04929738337053    1.46148516079629   -2.31254729327625
N         1.17947108008917   -0.69608448283099   -0.62535174747117
C         2.37375211334925   -0.12906713692998   -0.97291460806352
C         2.52205676293921    1.31779250967604   -0.80312479211516
C         3.49979497868283    2.13798959484888   -1.30551026094675
C         3.26264611413664    3.42753124060373   -0.78060356757910
C         4.04487576897351    4.67015077005401   -1.03906546350181
C         2.15697466687631    3.30366855290479    0.02064538007283
C         1.43312058589425    4.29195270747678    0.86630252555457
O         1.70760002488697    2.03453119977312    0.01097548691927
O         3.29257352626755   -0.82582963719782   -1.36463087996169
H         2.95499852798595   -4.09141104575041   -0.27518680092620
H         4.19804653881453   -4.83270446151734    1.71002954223881
H         3.82579544192009   -3.72911137864322    3.88617022282514
H         2.20654852801400   -1.87658975081224    4.05448127882106
H         0.96309398581151   -1.13960830254633    2.07816143915992
H         1.51619940916663   -2.64420743095422   -1.33483717141810
H        -0.60615641188722   -3.06296993059027    0.55511414426686
H         0.15551915038113   -2.09808032122906   -3.01420941807229
H        -1.02592120250838   -3.11103880434422   -4.89546117939303
H        -2.95831290147280   -4.59395833810066   -4.50852541403343
H        -3.70496341960112   -5.05057100544820   -2.19931022192303
H        -2.51223249095525   -4.04246153048275   -0.29992677871192
H        -3.78868040563003    0.07776139224976    2.95267272776843
H        -3.79935196658842    3.65017916360153    3.52374621289390
H        -5.06597420018959    3.60905784679975    2.30159514274147
H        -5.03126288386700    2.38624224970403    3.58162397982618
H        -3.54238404276080    4.12306663525736   -0.17236084960423
H        -2.34891465809773    4.56633391156022    1.04496007409766
H        -1.84173355322210    3.71044292387726   -0.43074423121042
H        -0.02560366153287    0.75451442871676    0.31321324308016
H        -2.09427723621093   -0.55682354467955   -1.66639671124719
H         4.28573801826928    1.84466377799916   -1.96878813827786
H         3.39932681495853    5.44865464436446   -1.44265862737732
H         4.83971054309169    4.46945690608379   -1.75048398652611
H         4.48622823530444    5.04698353513153   -0.11717991659603
H         1.11337277399697    5.14349836655000    0.26891958178821
H         2.07546036531463    4.66218672197691    1.66477249455722
H         0.56325716851129    3.81182384379906    1.30492123829143
66
 energy: -108.826597083224 gnorm: 0.004062369697 xtb: 6.3.3 (4ae9cef)
C         2.78523778620083   -3.61820839500901    0.67261384749735
C         3.48664444654726   -4.02847160683242    1.79203749276786
C         3.27824680125482   -3.40447263965139    3.01008533745094
C         2.36797902616516   -2.36533691738493    3.10256255851917
C         1.66648494316506   -1.95494629654095    1.98385367886532
C         1.86841271470515   -2.58173242568075    0.76085633066274
C         1.09339392429750   -2.14524421217243   -0.45927721778496
C        -0.40853782838958   -2.41759935885466   -0.30405156762216
C        -1.08907481915075   -3.01566065000709   -1.51439706818423
C        -0.68485398923745   -2.73764424577409   -2.81485794538144
C        -1.35336302315540   -3.30551998915863   -3.88606625055811
C        -2.43631715703509   -4.14080208525556   -3.67183487700834
C        -2.85570190319424   -4.40440137133815   -2.37843863077368
C        -2.18473799337163   -3.84632205963142   -1.30608692361879
N        -0.97569488171278   -1.10180151743966    0.00714025396247
C        -1.98386156123959   -1.00054608989994    0.93240450876229
C        -2.48433766706405    0.34215377489907    1.22445281676897
C        -3.35640806030586    0.72194271835127    2.21527447910087
C        -3.56498355816819    2.10993575730421    2.06619482864404
C        -4.41728658543088    2.98814513690448    2.91463911523296
C        -2.81137484777520    2.48789110619537    0.98106724591812
C        -2.62313851227007    3.80435332147574    0.31827151139683
O        -2.15807899851207    1.42753045669618    0.47160647687411
O        -2.47742840122767   -1.99146339412007    1.43945158717508
C        -0.09618508554451   -0.05148163839605   -0.42730781215092
C        -0.57836106273776    0.61005560460977   -1.75561162831092
O        -1.73647368544645    0.15852755075324   -2.22155502998316
O         0.05413120487082    1.46188429926391   -2.30617787620964
N         1.18032911070027   -0.69856755612776   -0.61829871837260
C         2.37333432260496   -0.13238689886097   -0.96621667683083
C         2.51544747191071    1.31513127061294   -0.79946040719612
C         3.49411710061757    2.13291949621503   -1.30392148325516
C         3.25619196068854    3.42428244159558   -0.78288081427110
C         4.04077475219337    4.66439410955426   -1.04054116851651
C         2.14974783096523    3.30268456118659    0.01835598419696
C         1.43034404060538    4.29652311931904    0.86071781956056
O         1.70099330935155    2.03310376804640    0.01332580130532
O         3.29590418979865   -0.82763271230718   -1.35402041368215
H         2.95483572313741   -4.09821650495220   -0.27926362884316
H         4.20041579504428   -4.83439540531492    1.71116046654901
H         3.82560965347215   -3.72373293281876    3.88416178502010
H         2.20334643892950   -1.87206519093278    4.04922984400741
H         0.95898340073376   -1.14193147631244    2.06766707375092
H         1.51237111681289   -2.64235004492687   -1.33968182581889
H        -0.60374163764378   -3.06535168178344    0.55834253447351
H         0.15389468458218   -2.08340055901559   -3.00432484908921
H        -1.02350828620645   -3.09436878170245   -4.89186888552288
H        -2.95231102053088   -4.58470455359403   -4.50957199073455
H        -3.70281574761691   -5.05007036021785   -2.20247883772372
H        -2.51089391546901   -4.04422995592741   -0.29624028040444
H        -3.78407470353096    0.07552412361152    2.95325268952592
H        -3.79814555420700    3.64980302868688    3.51996805674188
H        -5.06432262226208    3.60606235785129    2.29552310938623
H        -5.02997505475529    2.38451577623337    3.57734926498987
H        -3.54526535739572    4.12142255908746   -0.16793001747960
H        -2.34873916194034    4.56402514742605    1.04774274709582
H        -1.84285811765113    3.71745369618482   -0.43341478108516
H        -0.02162316703008    0.75068609832287    0.31858368049151
H        -2.08687662894182   -0.56510935100098   -1.67118619493671
H         4.27866379211321    1.83641907132731   -1.96850108846429
H         3.39743743991426    5.44408829492047   -1.44560953275693
H         4.83690936532151    4.46119599837820   -1.75015771203744
H         4.48087388370395    5.03825626495794   -0.11666698796723
H         1.11298032180499    5.14653705392433    0.25938128778059
H         2.07867210646983    4.66750779779735    1.65431341590208
H         0.55864193746765    3.82521009725018    1.30630949219815
66
 energy: -108.826672901124 gnorm: 0.002324384447 xtb: 6.3.3 (4ae9cef)
C         2.78725460975712   -3.62400084721671    0.67267170878965
C         3.48921413334699   -4.03125479659659    1.79344977594133
C         3.28028579680447   -3.40447724405390    3.00997644541458
C         2.36895172145999   -2.36607308787831    3.10196589688858
C         1.66700724824888   -1.95854860565506    1.98241939110065
C         1.87012519279098   -2.58738130611910    0.76002471736214
C         1.09389407526491   -2.14854041336001   -0.45866824390950
C        -0.40833573279242   -2.42031562902900   -0.30158264111790
C        -1.09033275577545   -3.01580685763661   -1.51201369805746
C        -0.68698301654396   -2.73041559780904   -2.81171324696901
C        -1.35442738921543   -3.29464336433711   -3.88566401353661
C        -2.43528773211188   -4.13343462559179   -3.67412597846359
C        -2.85530530454196   -4.40336491550684   -2.38216710446188
C        -2.18550956998595   -3.84853180646509   -1.30688497423590
N        -0.97533278130762   -1.10409135425503    0.00983126032172
C        -1.98558181611387   -1.00117005736264    0.93318676711949
C        -2.48399453833413    0.34158214743130    1.22518333280056
C        -3.35497108772660    0.72261550062765    2.21694375597535
C        -3.56435515557553    2.11077304242914    2.06636553709523
C        -4.41780063419929    2.98927636305357    2.91254993604855
C        -2.81067465155411    2.48745688747975    0.98044080186770
C        -2.62365338116230    3.80401851266900    0.31864775155278
O        -2.15787328959109    1.42611137558577    0.47117446895831
O        -2.47894239469572   -1.99102125418160    1.44296998334619
C        -0.09454827353096   -0.05346009410795   -0.42367619620381
C        -0.57808040013869    0.60858887704418   -1.75297542919006
O        -1.73326096292502    0.15141852737126   -2.22223360455988
O         0.05061201604014    1.46381749574426   -2.30218643834641
N         1.18189702503837   -0.70142674321127   -0.61378330641884
C         2.37493876123588   -0.13393704273372   -0.95937341042530
C         2.51427897152488    1.31327443038435   -0.79456379569393
C         3.49199043725419    2.13064832510983   -1.30215221519596
C         3.25298412809873    3.42374500199099   -0.78516246176294
C         4.03868839305631    4.66221913355747   -1.04324791900837
C         2.14663473604110    3.30351783563871    0.01691873946097
C         1.42878975058833    4.30129937864930    0.85461880772007
O         1.69963546987355    2.03267933207493    0.01705885759348
O         3.29917816044763   -0.82737285347310   -1.34706656306721
H         2.95656536577971   -4.10530608318369   -0.27893536293360
H         4.20373149031038   -4.83710161492826    1.71476050976055
H         3.82850833429992   -3.72139082274464    3.88469616870638
H         2.20391036702492   -1.87117061457382    4.04795180611900
H         0.95875190557801   -1.14590662801064    2.06325624582330
H         1.51140527831713   -2.64257160579442   -1.34144520339129
H        -0.60135783185653   -3.06925574996798    0.56044729421218
H         0.14924747560276   -2.07181568538268   -2.99838313277937
H        -1.02568036404620   -3.07738656530734   -4.89083684743375
H        -2.94997473084957   -4.57526755040284   -4.51411914640927
H        -3.70189780966985   -5.05100330864554   -2.20950916036700
H        -2.51120102496389   -4.05023782523301   -0.29723755236747
H        -3.78113687266865    0.07523879117993    2.95552356878996
H        -3.79995784493546    3.65235951476766    3.51776822815586
H        -5.06522802558972    3.60582466767614    2.29207223678929
H        -5.03135263940039    2.38668140506390    3.57583657474564
H        -3.54735423326921    4.12134547093294   -0.16470595502641
H        -2.34761391132101    4.56264466771706    1.04904088188477
H        -1.84471106060853    3.72140659699784   -0.43533665115111
H        -0.01917409733582    0.74632856723719    0.32351574336584
H        -2.08101099640236   -0.57508223074269   -1.67367408433059
H         4.27554208945206    1.83103777442840   -1.96708866459411
H         3.39746017193986    5.44296768952154   -1.44984556697018
H         4.83599019080463    4.45811550945177   -1.75167552397943
H         4.47830308852194    5.03547723044630   -0.11871840395036
H         1.11145736095006    5.14857448816974    0.24895722709067
H         2.07954150756869    4.67552152527844    1.64488289179841
H         0.55612705771628    3.83619571578818    1.30564318370917
66
 energy: -108.826753617354 gnorm: 0.002825887064 xtb: 6.3.3 (4ae9cef)
C         2.79025931781090   -3.63334279471793    0.67430750875935
C         3.49356469882990   -4.03627926485801    1.79632787932641
C         3.28517117983101   -3.40584265004615    3.01069462992324
C         2.37241688547058   -2.36868445432106    3.10202746566503
C         1.66939866119952   -1.96555235475771    1.98183364751904
C         1.87286178358346   -2.59696167832637    0.76039437521621
C         1.09450042953904   -2.15476100223804   -0.45630545319447
C        -0.40860344182799   -2.42552545727869   -0.29734026707448
C        -1.09219161111030   -3.01648035300271   -1.50910543070320
C        -0.69176706065747   -2.71716725479698   -2.80705852831138
C        -1.35807192744557   -3.27328057668626   -3.88585096493106
C        -2.43484914938333   -4.11857326345761   -3.67997391600827
C        -2.85361894613774   -4.40140674889306   -2.39046144459238
C        -2.18510014464783   -3.85382741309558   -1.31025272250312
N        -0.97441855624896   -1.10873234658195    0.01577950249654
C        -1.98653464400899   -1.00266174467775    0.93735926309060
C        -2.48402398675577    0.34034594726010    1.22712734835350
C        -3.35466213359129    0.72357421613174    2.21885100060753
C        -3.56368061150260    2.11176640669326    2.06641974085550
C        -4.41855078246349    2.99180899015671    2.90895023706437
C        -2.81025985851214    2.48619520996180    0.97921098830341
C        -2.62498072273283    3.80323396182551    0.31918214990240
O        -2.15796020464945    1.42344200501571    0.47100544966134
O        -2.48191606947208   -1.99131075260046    1.44785910394936
C        -0.09235068910919   -0.05766285306697   -0.41683452867759
C        -0.57702325898651    0.60494808759491   -1.74689271589289
O        -1.72741868082012    0.13907779811767   -2.22053357016325
O         0.04319307883462    1.46876047012228   -2.29183281046204
N         1.18370057794763   -0.70694617557894   -0.60650058738541
C         2.37695511749759   -0.13674157287407   -0.94770464622420
C         2.51300525546047    1.31025923779439   -0.78532688266655
C         3.48940932190760    2.12655471999823   -1.29787982056201
C         3.24835087634208    3.42253980088189   -0.78902512410548
C         4.03520893951618    4.65904908018018   -1.04943953911469
C         2.14233111037112    3.30528349800568    0.01430335681367
C         1.42629488346864    4.31102539453316    0.84250840215248
O         1.69720947300001    2.03307526211378    0.02260622808914
O         3.30413857221294   -0.82779293770847   -1.33310040167904
H         2.95886307550110   -4.11710520875589   -0.27631098457587
H         4.20925498410770   -4.84156429097747    1.72044617064501
H         3.83564142860462   -3.71889847684274    3.88572649289855
H         2.20741355469480   -1.87154983099927    4.04687511356759
H         0.95966379302002   -1.15414061350558    2.05903263589437
H         1.50962082431494   -2.64528287934483   -1.34216108180907