      -----------------------------------------------------------      
     |                   =====================                   |     
     |                           x T B                           |     
     |                   =====================                   |     
     |                         S. Grimme                         |     
     |          Mulliken Center for Theoretical Chemistry        |     
     |                    University of Bonn                     |     
      -----------------------------------------------------------      

   * xtb version 6.3.3 (4ae9cef) compiled by 'conda@95abc7406d43' on 2020-10-14

   xtb is free software: you can redistribute it and/or modify it under
   the terms of the GNU Lesser General Public License as published by
   the Free Software Foundation, either version 3 of the License, or
   (at your option) any later version.
   
   xtb is distributed in the hope that it will be useful,
   but WITHOUT ANY WARRANTY; without even the implied warranty of
   MERCHANTABILITY or FITNESS FOR A PARTICULAR PURPOSE.  See the
   GNU Lesser General Public License for more details.
   
   Cite this work as:
   * C. Bannwarth, E. Caldeweyher, S. Ehlert, A. Hansen, P. Pracht,
     J. Seibert, S. Spicher, S. Grimme, WIREs Comput. Mol. Sci., 2020,
     e01493. DOI: 10.1002/wcms.1493
   
   for GFN2-xTB:
   * S. Grimme, C. Bannwarth, P. Shushkov, J. Chem. Theory Comput., 2017,
     13, 1989-2009. DOI: 10.1021/acs.jctc.7b00118
   for GFN1-xTB:
   * C. Bannwarth, S. Ehlert and S. Grimme., J. Chem. Theory Comput., 2019,
     15, 1652-1671. DOI: 10.1021/acs.jctc.8b01176
   for GFN0-xTB:
   * P. Pracht, E. Caldeweyher, S. Ehlert, S. Grimme, ChemRxiv, 2019, preprint.
     DOI: 10.26434/chemrxiv.8326202.v1
   for GFN-FF:
   * S. Spicher and S. Grimme, Angew. Chem. Int. Ed., 2020, 59, 15665-15673.
     DOI: 10.1002/anie.202004239
   
   for DFT-D4:
   * E. Caldeweyher, C. Bannwarth and S. Grimme, J. Chem. Phys., 2017,
     147, 034112. DOI: 10.1063/1.4993215
   * E. Caldeweyher, S. Ehlert, A. Hansen, H. Neugebauer, S. Spicher,
     C. Bannwarth and S. Grimme, J. Chem. Phys., 2019, 150, 154122.
     DOI: 10.1063/1.5090222
   * E. Caldeweyher, J.-M. Mewes, S. Ehlert and S. Grimme, Phys. Chem. Chem. Phys.
     2020, 22, 8499-8512. DOI: 10.1039/D0CP00502A
   
   for sTDA-xTB:
   * S. Grimme and C. Bannwarth, J. Chem. Phys., 2016, 145, 054103.
     DOI: 10.1063/1.4959605
   
   in the mass-spec context:
   * V. Asgeirsson, C. Bauer and S. Grimme, Chem. Sci., 2017, 8, 4879.
     DOI: 10.1039/c7sc00601b
   * J. Koopman and S. Grimme, ACS Omega 2019, 4, 12, 15120-15133.
     DOI: 10.1021/acsomega.9b02011
   
   for metadynamics refer to:
   * S. Grimme, J. Chem. Theory Comput., 2019, 155, 2847-2862
     DOI: 10.1021/acs.jctc.9b00143
   
   with help from (in alphabetical order)
   C. Bannwarth, F. Bohle, G. Brandenburg, E. Caldeweyher, M. Checinski,
   S. Dohm, S. Ehlert, S. Ehrlich, F. März, H. Neugebauer, J. Pisarek,
   P. Pracht, P. Shushkov, and S. Spicher.
   
 * started run on 2022/03/16 at 23:51:06.966     

           -------------------------------------------------
          |                Calculation Setup                |
           -------------------------------------------------

          program call               : xtb acid_326.xyz --opt --chrg 0 --uhf 0 --gfn 2
          coordinate file            : acid_326.xyz
          omp threads                :                    64
          number of atoms            :                    70
          number of electrons        :                   238
          charge                     :                     0
          spin                       :                   0.0
          first test random number   :      0.68111893143335

   ID    Z sym.   atoms
    1    6 C      1-22, 24-28, 34, 35, 39-43
    2    7 N      23, 29, 38, 44
    3    8 O      30-33, 36, 37, 45-48
    4    1 H      49-70

           -------------------------------------------------
          |                 G F N 2 - x T B                 |
           -------------------------------------------------

        Reference                      10.1021/acs.jctc.8b01176
      * Hamiltonian:
        H0-scaling (s, p, d)           1.850000    2.230000    2.230000
        zeta-weighting                 0.500000
      * Dispersion:
        s8                             2.700000
        a1                             0.520000
        a2                             5.000000
        s9                             5.000000
      * Repulsion:
        kExp                           1.500000    1.000000
        rExp                           1.000000
      * Coulomb:
        alpha                          2.000000
        third order                    shell-resolved
        anisotropic                    true
        a3                             3.000000
        a5                             4.000000
        cn-shift                       1.200000
        cn-exp                         4.000000
        max-rad                        5.000000


          ...................................................
          :                      SETUP                      :
          :.................................................:
          :  # basis functions                 214          :
          :  # atomic orbitals                 214          :
          :  # shells                          118          :
          :  # electrons                       238          :
          :  max. iterations                   250          :
          :  Hamiltonian                  GFN2-xTB          :
          :  restarted?                      false          :
          :  GBSA solvation                  false          :
          :  PC potential                    false          :
          :  electronic temp.          300.0000000     K    :
          :  accuracy                    1.0000000          :
          :  -> integral cutoff          0.2500000E+02      :
          :  -> integral neglect         0.1000000E-07      :
          :  -> SCF convergence          0.1000000E-05 Eh   :
          :  -> wf. convergence          0.1000000E-03 e    :
          :  Broyden damping             0.4000000          :
          ...................................................

 iter      E             dE          RMSdq      gap      omega  full diag
   1   -137.4295388 -0.137430E+03  0.500E+00    2.33       0.0  T
   2   -137.7897312 -0.360192E+00  0.265E+00    1.23       1.0  T
   3   -137.7951763 -0.544509E-02  0.144E+00    0.90       1.0  T
   4   -137.8057068 -0.105306E-01  0.623E-01    0.33       1.0  T
   5   -137.8214961 -0.157893E-01  0.169E-01    0.30       1.0  T
   6   -137.8231185 -0.162237E-02  0.697E-02    0.34       1.0  T
   7   -137.8231989 -0.804112E-04  0.391E-02    0.37       1.0  T
   8   -137.8232646 -0.656766E-04  0.126E-02    0.37       1.0  T
   9   -137.8232665 -0.193544E-05  0.622E-03    0.37       1.9  T
  10   -137.8232674 -0.827271E-06  0.302E-03    0.37       4.0  T
  11   -137.8232679 -0.491236E-06  0.107E-03    0.37      11.2  T
  12   -137.8232679 -0.315256E-07  0.558E-04    0.37      21.4  T
  13   -137.8232679 -0.765570E-08  0.234E-04    0.37      51.0  T

   *** convergence criteria satisfied after 13 iterations ***

         #    Occupation            Energy/Eh            Energy/eV
      -------------------------------------------------------------
         1        2.0000           -0.8079228             -21.9847
       ...           ...                  ...                  ...
       113        2.0000           -0.4219795             -11.4826
       114        2.0000           -0.4165730             -11.3355
       115        2.0000           -0.4155207             -11.3069
       116        2.0000           -0.4128753             -11.2349
       117        2.0000           -0.4066130             -11.0645
       118        2.0000           -0.3887274             -10.5778
       119        1.9983           -0.3775173             -10.2728 (HOMO)
       120        0.0017           -0.3640587              -9.9065 (LUMO)
       121        0.0000           -0.3586347              -9.7589
       122                         -0.3227256              -8.7818
       123                         -0.3020634              -8.2196
       124                         -0.2897922              -7.8856
       ...                                ...                  ...
       214                          0.6756524              18.3854
      -------------------------------------------------------------
                  HL-Gap            0.0134586 Eh            0.3662 eV
             Fermi-level           -0.3707896 Eh          -10.0897 eV

 SCC (total)                   0 d,  0 h,  0 min,  0.628 sec
 SCC setup                      ...        0 min,  0.023 sec (  3.700%)
 Dispersion                     ...        0 min,  0.011 sec (  1.788%)
 classical contributions        ...        0 min,  0.012 sec (  1.901%)
 integral evaluation            ...        0 min,  0.117 sec ( 18.571%)
 iterations                     ...        0 min,  0.308 sec ( 48.971%)
 molecular gradient             ...        0 min,  0.154 sec ( 24.590%)
 printout                       ...        0 min,  0.003 sec (  0.463%)

         :::::::::::::::::::::::::::::::::::::::::::::::::::::
         ::                     SUMMARY                     ::
         :::::::::::::::::::::::::::::::::::::::::::::::::::::
         :: total energy            -136.171845043164 Eh    ::
         :: gradient norm              0.172284861722 Eh/a0 ::
         :: HOMO-LUMO gap              0.366228311486 eV    ::
         ::.................................................::
         :: SCC energy              -137.823267897814 Eh    ::
         :: -> isotropic ES            0.218496524951 Eh    ::
         :: -> anisotropic ES          0.024335936219 Eh    ::
         :: -> anisotropic XC          0.031808096674 Eh    ::
         :: -> dispersion             -0.098586492738 Eh    ::
         :: repulsion energy           1.648522829947 Eh    ::
         :: add. restraining           0.000000000000 Eh    ::
         :: total charge              -0.000000000005 e     ::
         :::::::::::::::::::::::::::::::::::::::::::::::::::::

      ----------------------------------------------------------- 
     |                   =====================                   |
     |                        A N C O P T                        |
     |                   =====================                   |
     |               Approximate Normal Coordinate               |
     |                Rational Function Optimizer                |
      ----------------------------------------------------------- 

          ...................................................
          :                      SETUP                      :
          :.................................................:
          :   optimization level            normal          :
          :   max. optcycles                   210          :
          :   ANC micro-cycles                  20          :
          :   degrees of freedom               204          :
          :.................................................:
          :   RF solver                   davidson          :
          :   write xtbopt.log                true          :
          :   linear?                        false          :
          :   energy convergence         0.5000000E-05 Eh   :
          :   grad. convergence          0.1000000E-02 Eh/α :
          :   maximium RF displ.         1.0000000          :
          :   Hlow (freq-cutoff)         0.1000000E-01      :
          :   Hmax (freq-cutoff)         5.0000000          :
          :   S6 in model hess.         20.0000000          :
          ...................................................

generating ANC from model Hessian ...
Using Lindh-Hessian (1995)
 Shifting diagonal of input Hessian by    9.8788291476544238E-003
 Lowest  eigenvalues of input Hessian
    0.000000    0.000000    0.000000    0.000000    0.000000    0.000000
    0.010000    0.010057    0.010116    0.010171    0.010300    0.010371
    0.010491    0.010652    0.010903    0.011192    0.011834    0.012633
 Highest eigenvalues
    2.158146    2.212644    2.256900    2.259107    2.518783    2.524187


........................................................................
.............................. CYCLE    1 ..............................
........................................................................
   1   -137.8232679 -0.137823E+03  0.916E-05    0.37       0.0  T
   2   -137.8232679 -0.124686E-09  0.629E-05    0.37     190.0  T
   3   -137.8232679 -0.175817E-09  0.340E-05    0.37     352.0  T
     SCC iter.                  ...        0 min,  0.075 sec
     gradient                   ...        0 min,  0.127 sec
 * total energy  :  -136.1718450 Eh     change       -0.1634163E-08 Eh
   gradient norm :     0.1722881 Eh/α   predicted     0.0000000E+00 (-100.00%)
   displ. norm   :     0.3444890 α      lambda       -0.2894587E-01
   maximum displ.:     0.0939085 α      in ANC's #22, #25, #27, ...

........................................................................
.............................. CYCLE    2 ..............................
........................................................................
   1   -137.9147251 -0.137915E+03  0.195E-01    0.64       0.0  T
   2   -137.9154424 -0.717274E-03  0.116E-01    0.62       1.0  T
   3   -137.9155144 -0.720520E-04  0.671E-02    0.61       1.0  T
   4   -137.9155588 -0.443418E-04  0.322E-02    0.60       1.0  T
   5   -137.9156043 -0.455871E-04  0.115E-02    0.60       1.0  T
   6   -137.9156123 -0.793580E-05  0.425E-03    0.60       2.8  T
   7   -137.9156127 -0.377776E-06  0.220E-03    0.60       5.4  T
   8   -137.9156127 -0.602620E-07  0.668E-04    0.60      17.9  T
   9   -137.9156127 -0.142907E-07  0.326E-04    0.60      36.7  T
     SCC iter.                  ...        0 min,  0.210 sec
     gradient                   ...        0 min,  0.126 sec
 * total energy  :  -136.1924130 Eh     change       -0.2056798E-01 Eh
   gradient norm :     0.0717862 Eh/α   predicted    -0.1619048E-01 ( -21.28%)
   displ. norm   :     0.4160536 α      lambda       -0.1137250E-01
   maximum displ.:     0.1526659 α      in ANC's #25, #28, #22, ...

........................................................................
.............................. CYCLE    3 ..............................
........................................................................
   1   -137.9691212 -0.137969E+03  0.159E-01    0.78       0.0  T
   2   -137.9694661 -0.344861E-03  0.951E-02    0.78       1.0  T
   3   -137.9694948 -0.287199E-04  0.545E-02    0.77       1.0  T
   4   -137.9695519 -0.570847E-04  0.216E-02    0.77       1.0  T
   5   -137.9695762 -0.243306E-04  0.725E-03    0.77       1.6  T
   6   -137.9695789 -0.269609E-05  0.312E-03    0.77       3.8  T
   7   -137.9695791 -0.184676E-06  0.157E-03    0.77       7.6  T
   8   -137.9695791 -0.301066E-07  0.526E-04    0.77      22.7  T
   9   -137.9695791 -0.103826E-07  0.224E-04    0.77      53.3  T
     SCC iter.                  ...        0 min,  0.218 sec
     gradient                   ...        0 min,  0.168 sec
 * total energy  :  -136.1995998 Eh     change       -0.7186729E-02 Eh
   gradient norm :     0.0214978 Eh/α   predicted    -0.6670545E-02 (  -7.18%)
   displ. norm   :     0.4391080 α      lambda       -0.4327081E-02
   maximum displ.:     0.1595165 α      in ANC's #28, #25, #27, ...

........................................................................
.............................. CYCLE    4 ..............................
........................................................................
   1   -137.9791927 -0.137979E+03  0.134E-01    0.78       0.0  T
   2   -137.9793162 -0.123470E-03  0.793E-02    0.79       1.0  T
   3   -137.9793011  0.151137E-04  0.428E-02    0.79       1.0  T
   4   -137.9793449 -0.438469E-04  0.150E-02    0.80       1.0  T
   5   -137.9793604 -0.155067E-04  0.440E-03    0.80       2.7  T
   6   -137.9793608 -0.373201E-06  0.230E-03    0.80       5.2  T
   7   -137.9793609 -0.629616E-07  0.108E-03    0.80      11.0  T
   8   -137.9793609 -0.350382E-07  0.345E-04    0.80      34.7  T
   9   -137.9793609 -0.302083E-08  0.141E-04    0.80      85.0  T
     SCC iter.                  ...        0 min,  0.210 sec
     gradient                   ...        0 min,  0.138 sec
 * total energy  :  -136.2024422 Eh     change       -0.2842427E-02 Eh
   gradient norm :     0.0250976 Eh/α   predicted    -0.2580754E-02 (  -9.21%)
   displ. norm   :     0.5270606 α      lambda       -0.3911541E-02
   maximum displ.:     0.2172840 α      in ANC's #25, #28, #27, ...

........................................................................
.............................. CYCLE    5 ..............................
........................................................................
   1   -137.9774980 -0.137977E+03  0.159E-01    0.74       0.0  T
   2   -137.9776705 -0.172436E-03  0.972E-02    0.76       1.0  T
   3   -137.9776339  0.365997E-04  0.518E-02    0.77       1.0  T
   4   -137.9777185 -0.846680E-04  0.167E-02    0.78       1.0  T
   5   -137.9777363 -0.177915E-04  0.588E-03    0.77       2.0  T
   6   -137.9777372 -0.891395E-06  0.304E-03    0.77       3.9  T
   7   -137.9777373 -0.103839E-06  0.148E-03    0.77       8.1  T
   8   -137.9777374 -0.765576E-07  0.447E-04    0.77      26.7  T
   9   -137.9777374 -0.430828E-08  0.195E-04    0.77      61.3  T
     SCC iter.                  ...        0 min,  0.214 sec
     gradient                   ...        0 min,  0.136 sec
 * total energy  :  -136.2043624 Eh     change       -0.1920241E-02 Eh
   gradient norm :     0.0322043 Eh/α   predicted    -0.2499072E-02 (  30.14%)
   displ. norm   :     0.2715814 α      lambda       -0.1880032E-02
   maximum displ.:     0.0813119 α      in ANC's #16, #11, #10, ...

........................................................................
.............................. CYCLE    6 ..............................
........................................................................
   1   -137.9811044 -0.137981E+03  0.805E-02    0.76       0.0  T
   2   -137.9811722 -0.678822E-04  0.491E-02    0.76       1.0  T
   3   -137.9811859 -0.136515E-04  0.270E-02    0.76       1.0  T
   4   -137.9811925 -0.664865E-05  0.623E-03    0.77       1.9  T
   5   -137.9811946 -0.200560E-05  0.267E-03    0.77       4.5  T
   6   -137.9811947 -0.172513E-06  0.138E-03    0.77       8.7  T
   7   -137.9811947 -0.236899E-07  0.760E-04    0.77      15.7  T
   8   -137.9811948 -0.245557E-07  0.181E-04    0.77      65.9  T
     SCC iter.                  ...        0 min,  0.187 sec
     gradient                   ...        0 min,  0.162 sec
 * total energy  :  -136.2056665 Eh     change       -0.1304035E-02 Eh
   gradient norm :     0.0178835 Eh/α   predicted    -0.1009370E-02 ( -22.60%)
   displ. norm   :     0.3890566 α      lambda       -0.1582068E-02
   maximum displ.:     0.1298445 α      in ANC's #9, #16, #11, ...

........................................................................
.............................. CYCLE    7 ..............................
........................................................................
   1   -137.9820090 -0.137982E+03  0.120E-01    0.75       0.0  T
   2   -137.9821213 -0.112337E-03  0.709E-02    0.76       1.0  T
   3   -137.9821061  0.151835E-04  0.339E-02    0.77       1.0  T
   4   -137.9821317 -0.255517E-04  0.119E-02    0.77       1.0  T
   5   -137.9821420 -0.103159E-04  0.343E-03    0.77       3.5  T
   6   -137.9821425 -0.457626E-06  0.171E-03    0.77       7.0  T
   7   -137.9821425 -0.445537E-07  0.794E-04    0.77      15.1  T
   8   -137.9821425 -0.135620E-07  0.303E-04    0.77      39.5  T
     SCC iter.                  ...        0 min,  0.187 sec
     gradient                   ...        0 min,  0.135 sec
 * total energy  :  -136.2068016 Eh     change       -0.1135168E-02 Eh
   gradient norm :     0.0177999 Eh/α   predicted    -0.9107699E-03 ( -19.77%)
   displ. norm   :     0.4786750 α      lambda       -0.1484100E-02
   maximum displ.:     0.1615671 α      in ANC's #11, #5, #9, ...

........................................................................
.............................. CYCLE    8 ..............................
........................................................................
   1   -137.9850772 -0.137985E+03  0.128E-01    0.75       0.0  T
   2   -137.9851268 -0.496726E-04  0.759E-02    0.75       1.0  T
   3   -137.9850746  0.522057E-04  0.341E-02    0.75       1.0  T
   4   -137.9851400 -0.654015E-04  0.925E-03    0.75       1.3  T
   5   -137.9851455 -0.548019E-05  0.356E-03    0.75       3.4  T
   6   -137.9851458 -0.296400E-06  0.195E-03    0.75       6.1  T
   7   -137.9851459 -0.536835E-07  0.737E-04    0.75      16.2  T
   8   -137.9851459 -0.193482E-07  0.258E-04    0.75      46.3  T
     SCC iter.                  ...        0 min,  0.188 sec
     gradient                   ...        0 min,  0.152 sec
 * total energy  :  -136.2078255 Eh     change       -0.1023834E-02 Eh
   gradient norm :     0.0148802 Eh/α   predicted    -0.9120782E-03 ( -10.92%)
   displ. norm   :     0.5394792 α      lambda       -0.1318188E-02
   maximum displ.:     0.1945530 α      in ANC's #5, #9, #11, ...

........................................................................
.............................. CYCLE    9 ..............................
........................................................................
   1   -137.9849633 -0.137985E+03  0.151E-01    0.75       0.0  T
   2   -137.9851111 -0.147843E-03  0.899E-02    0.75       1.0  T
   3   -137.9850746  0.364978E-04  0.408E-02    0.74       1.0  T
   4   -137.9851186 -0.439976E-04  0.163E-02    0.74       1.0  T
   5   -137.9851404 -0.217614E-04  0.402E-03    0.74       3.0  T
   6   -137.9851407 -0.373675E-06  0.221E-03    0.74       5.4  T
   7   -137.9851408 -0.555934E-07  0.862E-04    0.74      13.9  T
   8   -137.9851408 -0.215498E-07  0.373E-04    0.74      32.0  T
     SCC iter.                  ...        0 min,  0.180 sec
     gradient                   ...        0 min,  0.133 sec
 * total energy  :  -136.2087022 Eh     change       -0.8766927E-03 Eh
   gradient norm :     0.0229615 Eh/α   predicted    -0.8509189E-03 (  -2.94%)
   displ. norm   :     0.4807781 α      lambda       -0.1224629E-02
   maximum displ.:     0.2047586 α      in ANC's #5, #6, #9, ...

........................................................................
.............................. CYCLE   10 ..............................
........................................................................
   1   -137.9894702 -0.137989E+03  0.113E-01    0.79       0.0  T
   2   -137.9895080 -0.378020E-04  0.671E-02    0.78       1.0  T
   3   -137.9894661  0.419003E-04  0.315E-02    0.78       1.0  T
   4   -137.9895190 -0.529336E-04  0.778E-03    0.78       1.5  T
   5   -137.9895233 -0.426606E-05  0.263E-03    0.78       4.6  T
   6   -137.9895235 -0.207984E-06  0.138E-03    0.78       8.6  T
   7   -137.9895235 -0.182969E-07  0.676E-04    0.78      17.7  T
   8   -137.9895235 -0.139975E-07  0.202E-04    0.78      59.1  T
     SCC iter.                  ...        0 min,  0.186 sec
     gradient                   ...        0 min,  0.135 sec
 * total energy  :  -136.2096392 Eh     change       -0.9370279E-03 Eh
   gradient norm :     0.0187782 Eh/α   predicted    -0.7538539E-03 ( -19.55%)
   displ. norm   :     0.6203060 α      lambda       -0.1526378E-02
   maximum displ.:     0.2589886 α      in ANC's #5, #6, #8, ...

........................................................................
.............................. CYCLE   11 ..............................
........................................................................
   1   -137.9880098 -0.137988E+03  0.141E-01    0.70       0.0  T
   2   -137.9880930 -0.832170E-04  0.830E-02    0.73       1.0  T
   3   -137.9880451  0.479542E-04  0.389E-02    0.74       1.0  T
   4   -137.9881112 -0.661510E-04  0.112E-02    0.74       1.1  T
   5   -137.9881179 -0.669319E-05  0.495E-03    0.74       2.4  T
   6   -137.9881189 -0.922942E-06  0.239E-03    0.74       5.0  T
   7   -137.9881189 -0.325584E-07  0.117E-03    0.74      10.2  T
   8   -137.9881189 -0.552669E-07  0.295E-04    0.74      40.4  T
   9   -137.9881189 -0.184903E-08  0.158E-04    0.74      75.9  T
     SCC iter.                  ...        0 min,  0.207 sec
     gradient                   ...        0 min,  0.139 sec
 * total energy  :  -136.2105477 Eh     change       -0.9084680E-03 Eh
   gradient norm :     0.0196563 Eh/α   predicted    -0.1056856E-02 (  16.33%)
   displ. norm   :     0.5557429 α      lambda       -0.1448217E-02
   maximum displ.:     0.2585333 α      in ANC's #5, #6, #9, ...

........................................................................
.............................. CYCLE   12 ..............................
........................................................................
   1   -137.9878517 -0.137988E+03  0.127E-01    0.83       0.0  T
   2   -137.9879208 -0.690724E-04  0.752E-02    0.81       1.0  T
   3   -137.9878837  0.371084E-04  0.328E-02    0.81       1.0  T
   4   -137.9879288 -0.451510E-04  0.103E-02    0.81       1.2  T
   5   -137.9879361 -0.727545E-05  0.294E-03    0.81       4.1  T
   6   -137.9879364 -0.291619E-06  0.155E-03    0.81       7.7  T
   7   -137.9879364 -0.319704E-07  0.800E-04    0.81      14.9  T
   8   -137.9879364 -0.129515E-07  0.262E-04    0.81      45.6  T
     SCC iter.                  ...        0 min,  0.200 sec
     gradient                   ...        0 min,  0.139 sec
 * total energy  :  -136.2116120 Eh     change       -0.1064338E-02 Eh
   gradient norm :     0.0132455 Eh/α   predicted    -0.9477536E-03 ( -10.95%)
   displ. norm   :     0.6442829 α      lambda       -0.1165913E-02
   maximum displ.:     0.2952849 α      in ANC's #5, #6, #9, ...

........................................................................
.............................. CYCLE   13 ..............................
........................................................................
   1   -137.9825988 -0.137983E+03  0.149E-01    0.82       0.0  T
   2   -137.9826963 -0.975071E-04  0.889E-02    0.82       1.0  T
   3   -137.9826355  0.608127E-04  0.402E-02    0.82       1.0  T
   4   -137.9827125 -0.769533E-04  0.123E-02    0.82       1.0  T
   5   -137.9827239 -0.114488E-04  0.301E-03    0.82       4.0  T
   6   -137.9827242 -0.287921E-06  0.166E-03    0.82       7.2  T
   7   -137.9827242 -0.442801E-07  0.781E-04    0.82      15.3  T
   8   -137.9827242 -0.120675E-07  0.283E-04    0.82      42.2  T
     SCC iter.                  ...        0 min,  0.192 sec
     gradient                   ...        0 min,  0.119 sec
 * total energy  :  -136.2124391 Eh     change       -0.8271006E-03 Eh
   gradient norm :     0.0221230 Eh/α   predicted    -0.8249423E-03 (  -0.26%)
   displ. norm   :     0.5838922 α      lambda       -0.1579995E-02
   maximum displ.:     0.2825011 α      in ANC's #5, #6, #10, ...

........................................................................
.............................. CYCLE   14 ..............................
........................................................................
   1   -137.9960541 -0.137996E+03  0.127E-01    0.89       0.0  T
   2   -137.9961657 -0.111649E-03  0.767E-02    0.89       1.0  T
   3   -137.9961507  0.150462E-04  0.363E-02    0.88       1.0  T
   4   -137.9961848 -0.341129E-04  0.912E-03    0.88       1.3  T
   5   -137.9961895 -0.474315E-05  0.375E-03    0.88       3.2  T
   6   -137.9961903 -0.726971E-06  0.156E-03    0.88       7.6  T
   7   -137.9961903 -0.346702E-07  0.907E-04    0.88      13.2  T
   8   -137.9961903 -0.186029E-07  0.268E-04    0.88      44.6  T
     SCC iter.                  ...        0 min,  0.190 sec
     gradient                   ...        0 min,  0.147 sec
 * total energy  :  -136.2127910 Eh     change       -0.3518615E-03 Eh
   gradient norm :     0.0336178 Eh/α   predicted    -0.1059331E-02 ( 201.06%)
   displ. norm   :     0.4226138 α      lambda       -0.1913206E-02
   maximum displ.:     0.1892552 α      in ANC's #5, #6, #8, ...

........................................................................
.............................. CYCLE   15 ..............................
........................................................................
   1   -137.9905255 -0.137991E+03  0.122E-01    0.79       0.0  T
   2   -137.9907729 -0.247402E-03  0.753E-02    0.80       1.0  T
   3   -137.9908091 -0.361900E-04  0.408E-02    0.81       1.0  T
   4   -137.9908194 -0.102417E-04  0.136E-02    0.81       1.0  T
   5   -137.9908275 -0.808026E-05  0.479E-03    0.81       2.5  T
   6   -137.9908283 -0.841380E-06  0.239E-03    0.81       5.0  T
   7   -137.9908284 -0.816464E-07  0.134E-03    0.81       8.9  T
   8   -137.9908284 -0.482588E-07  0.462E-04    0.81      25.9  T
   9   -137.9908284 -0.780753E-08  0.164E-04    0.81      73.0  T
     SCC iter.                  ...        0 min,  0.211 sec
     gradient                   ...        0 min,  0.141 sec
 * total energy  :  -136.2137235 Eh     change       -0.9325990E-03 Eh
   gradient norm :     0.0251315 Eh/α   predicted    -0.1127456E-02 (  20.89%)
   displ. norm   :     0.4435249 α      lambda       -0.1150877E-02
   maximum displ.:     0.2015775 α      in ANC's #5, #6, #8, ...

........................................................................
.............................. CYCLE   16 ..............................
........................................................................
   1   -137.9807272 -0.137981E+03  0.117E-01    0.79       0.0  T
   2   -137.9808081 -0.808819E-04  0.711E-02    0.79       1.0  T
   3   -137.9807931  0.149074E-04  0.333E-02    0.79       1.0  T
   4   -137.9808246 -0.314111E-04  0.903E-03    0.79       1.3  T
   5   -137.9808311 -0.650960E-05  0.294E-03    0.79       4.1  T
   6   -137.9808313 -0.273868E-06  0.147E-03    0.79       8.1  T
   7   -137.9808314 -0.242304E-07  0.721E-04    0.79      16.6  T
   8   -137.9808314 -0.128396E-07  0.274E-04    0.79      43.6  T
     SCC iter.                  ...        0 min,  0.189 sec
     gradient                   ...        0 min,  0.119 sec
 * total energy  :  -136.2142594 Eh     change       -0.5358775E-03 Eh
   gradient norm :     0.0219613 Eh/α   predicted    -0.6886363E-03 (  28.51%)
   displ. norm   :     0.3548024 α      lambda       -0.9862728E-03
   maximum displ.:     0.1778468 α      in ANC's #5, #6, #8, ...

........................................................................
.............................. CYCLE   17 ..............................
........................................................................
   1   -137.9893505 -0.137989E+03  0.881E-02    0.78       0.0  T
   2   -137.9893897 -0.392418E-04  0.508E-02    0.78       1.0  T
   3   -137.9893839  0.585233E-05  0.188E-02    0.78       1.0  T
   4   -137.9893916 -0.772341E-05  0.715E-03    0.78       1.7  T
   5   -137.9893946 -0.301276E-05  0.260E-03    0.78       4.6  T
   6   -137.9893949 -0.244924E-06  0.140E-03    0.78       8.5  T
   7   -137.9893949 -0.921463E-08  0.668E-04    0.78      17.9  T
   8   -137.9893949 -0.228616E-07  0.161E-04    0.78      74.2  T
     SCC iter.                  ...        0 min,  0.188 sec
     gradient                   ...        0 min,  0.147 sec
 * total energy  :  -136.2148788 Eh     change       -0.6193803E-03 Eh
   gradient norm :     0.0193765 Eh/α   predicted    -0.5552141E-03 ( -10.36%)
   displ. norm   :     0.4758611 α      lambda       -0.1186791E-02
   maximum displ.:     0.2536838 α      in ANC's #5, #6, #8, ...

........................................................................
.............................. CYCLE   18 ..............................
........................................................................
   1   -138.0026121 -0.138003E+03  0.113E-01    0.81       0.0  T
   2   -138.0026456 -0.335179E-04  0.667E-02    0.80       1.0  T
   3   -138.0026085  0.371508E-04  0.299E-02    0.79       1.0  T
   4   -138.0026558 -0.473086E-04  0.678E-03    0.79       1.8  T
   5   -138.0026588 -0.303378E-05  0.270E-03    0.79       4.4  T
   6   -138.0026591 -0.324310E-06  0.133E-03    0.79       9.0  T
   7   -138.0026592 -0.197768E-07  0.714E-04    0.79      16.7  T
   8   -138.0026592 -0.129697E-07  0.177E-04    0.79      67.7  T
     SCC iter.                  ...        0 min,  0.186 sec
     gradient                   ...        0 min,  0.125 sec
 * total energy  :  -136.2155567 Eh     change       -0.6778731E-03 Eh
   gradient norm :     0.0122127 Eh/α   predicted    -0.7277677E-03 (   7.36%)
   displ. norm   :     0.7175344 α      lambda       -0.9636596E-03
   maximum displ.:     0.3717273 α      in ANC's #5, #6, #8, ...

........................................................................
.............................. CYCLE   19 ..............................
........................................................................
   1   -137.9923070 -0.137992E+03  0.170E-01    0.78       0.0  T
   2   -137.9923722 -0.651799E-04  0.998E-02    0.78       1.0  T
   3   -137.9923168  0.553595E-04  0.352E-02    0.78       1.0  T
   4   -137.9923827 -0.658527E-04  0.947E-03    0.78       1.3  T
   5   -137.9923895 -0.680043E-05  0.290E-03    0.78       4.1  T
   6   -137.9923896 -0.130601E-06  0.177E-03    0.78       6.8  T
   7   -137.9923897 -0.827145E-07  0.659E-04    0.78      18.1  T
   8   -137.9923897 -0.896964E-08  0.257E-04    0.78      46.4  T
     SCC iter.                  ...        0 min,  0.181 sec
     gradient                   ...        0 min,  0.078 sec
 * total energy  :  -136.2161524 Eh     change       -0.5956766E-03 Eh
   gradient norm :     0.0191015 Eh/α   predicted    -0.7299096E-03 (  22.53%)
   displ. norm   :     0.4268290 α      lambda       -0.7438583E-03
   maximum displ.:     0.2113927 α      in ANC's #5, #6, #8, ...

........................................................................
.............................. CYCLE   20 ..............................
........................................................................
   1   -137.9928964 -0.137993E+03  0.108E-01    0.75       0.0  T
   2   -137.9929395 -0.431126E-04  0.640E-02    0.74       1.0  T
   3   -137.9929217  0.177532E-04  0.286E-02    0.75       1.0  T
   4   -137.9929495 -0.277329E-04  0.654E-03    0.74       1.8  T
   5   -137.9929524 -0.293108E-05  0.245E-03    0.74       4.9  T
   6   -137.9929526 -0.181637E-06  0.125E-03    0.74       9.6  T
   7   -137.9929526 -0.127468E-07  0.646E-04    0.74      18.5  T
   8   -137.9929526 -0.158353E-07  0.173E-04    0.74      69.2  T
     SCC iter.                  ...        0 min,  0.186 sec
     gradient                   ...        0 min,  0.124 sec
 * total energy  :  -136.2165839 Eh     change       -0.4315427E-03 Eh
   gradient norm :     0.0171271 Eh/α   predicted    -0.4396925E-03 (   1.89%)
   displ. norm   :     0.4436579 α      lambda       -0.6986703E-03
   maximum displ.:     0.2332066 α      in ANC's #5, #6, #8, ...
 * RMSD in coord.:     0.9127554 α      energy gain  -0.4473886E-01 Eh

generating ANC from model Hessian ...
Using Lindh-Hessian (1995)
 Shifting diagonal of input Hessian by    9.8595946895089215E-003
 Lowest  eigenvalues of input Hessian
    0.000000    0.000000    0.000000    0.000000    0.000000    0.000000
    0.010000    0.010070    0.010171    0.010244    0.010324    0.010433
    0.010568    0.010749    0.011061    0.011620    0.012100    0.013342
 Highest eigenvalues
    2.299735    2.354381    2.369204    2.435925    2.694864    2.712487


........................................................................
.............................. CYCLE   21 ..............................
........................................................................
   1   -137.9952728 -0.137995E+03  0.108E-01    0.75       0.0  T
   2   -137.9953089 -0.360976E-04  0.641E-02    0.74       1.0  T
   3   -137.9952781  0.307802E-04  0.282E-02    0.75       1.0  T
   4   -137.9953174 -0.392782E-04  0.669E-03    0.74       1.8  T
   5   -137.9953207 -0.328625E-05  0.220E-03    0.74       5.4  T
   6   -137.9953208 -0.159267E-06  0.117E-03    0.74      10.2  T
   7   -137.9953208 -0.189933E-07  0.577E-04    0.74      20.7  T
   8   -137.9953209 -0.952684E-08  0.176E-04    0.74      68.0  T
     SCC iter.                  ...        0 min,  0.185 sec
     gradient                   ...        0 min,  0.137 sec
 * total energy  :  -136.2169839 Eh     change       -0.4000402E-03 Eh
   gradient norm :     0.0138303 Eh/α   predicted     0.0000000E+00 (-100.00%)
   displ. norm   :     0.1052434 α      lambda       -0.4222012E-03
   maximum displ.:     0.0345824 α      in ANC's #11, #38, #6, ...

........................................................................
.............................. CYCLE   22 ..............................
........................................................................
   1   -137.9981614 -0.137998E+03  0.332E-02    0.75       0.0  T
   2   -137.9981661 -0.464793E-05  0.201E-02    0.75       1.0  T
   3   -137.9981632  0.284329E-05  0.913E-03    0.75       1.3  T
   4   -137.9981674 -0.416463E-05  0.255E-03    0.75       4.7  T
   5   -137.9981677 -0.304829E-06  0.125E-03    0.75       9.5  T
   6   -137.9981677 -0.328381E-07  0.588E-04    0.75      20.3  T
   7   -137.9981677 -0.353154E-08  0.303E-04    0.75      39.5  T
     SCC iter.                  ...        0 min,  0.170 sec
     gradient                   ...        0 min,  0.148 sec
 * total energy  :  -136.2172893 Eh     change       -0.3053646E-03 Eh
   gradient norm :     0.0042417 Eh/α   predicted    -0.2135153E-03 ( -30.08%)
   displ. norm   :     0.2248243 α      lambda       -0.4369788E-03
   maximum displ.:     0.0863754 α      in ANC's #11, #38, #6, ...

........................................................................
.............................. CYCLE   23 ..............................
........................................................................
   1   -138.0001529 -0.138000E+03  0.573E-02    0.76       0.0  T
   2   -138.0001628 -0.997181E-05  0.339E-02    0.76       1.0  T
   3   -138.0001524  0.104524E-04  0.155E-02    0.76       1.0  T
   4   -138.0001668 -0.144519E-04  0.426E-03    0.76       2.8  T
   5   -138.0001675 -0.694639E-06  0.228E-03    0.76       5.2  T
   6   -138.0001676 -0.723141E-07  0.107E-03    0.76      11.1  T
   7   -138.0001676 -0.219806E-07  0.447E-04    0.76      26.7  T
   8   -138.0001676 -0.910478E-08  0.125E-04    0.76      95.4  T
     SCC iter.                  ...        0 min,  0.196 sec
     gradient                   ...        0 min,  0.121 sec
 * total energy  :  -136.2175775 Eh     change       -0.2882390E-03 Eh
   gradient norm :     0.0093669 Eh/α   predicted    -0.2296476E-03 ( -20.33%)
   displ. norm   :     0.2894368 α      lambda       -0.3825711E-03
   maximum displ.:     0.1148707 α      in ANC's #11, #38, #6, ...

........................................................................
.............................. CYCLE   24 ..............................
........................................................................
   1   -137.9993385 -0.137999E+03  0.715E-02    0.76       0.0  T
   2   -137.9993521 -0.135254E-04  0.419E-02    0.76       1.0  T
   3   -137.9993360  0.160590E-04  0.182E-02    0.76       1.0  T
   4   -137.9993575 -0.215385E-04  0.514E-03    0.76       2.3  T
   5   -137.9993586 -0.104616E-05  0.270E-03    0.76       4.4  T
   6   -137.9993587 -0.681110E-07  0.134E-03    0.76       8.9  T
   7   -137.9993587 -0.525689E-07  0.436E-04    0.76      27.4  T
   8   -137.9993587 -0.720030E-08  0.163E-04    0.76      73.3  T
     SCC iter.                  ...        0 min,  0.189 sec
     gradient                   ...        0 min,  0.155 sec
 * total energy  :  -136.2178090 Eh     change       -0.2314648E-03 Eh
   gradient norm :     0.0137470 Eh/α   predicted    -0.2073116E-03 ( -10.43%)
   displ. norm   :     0.2394898 α      lambda       -0.3104401E-03
   maximum displ.:     0.0974618 α      in ANC's #6, #11, #1, ...

........................................................................
.............................. CYCLE   25 ..............................
........................................................................
   1   -137.9981914 -0.137998E+03  0.547E-02    0.76       0.0  T
   2   -137.9981996 -0.818176E-05  0.321E-02    0.76       1.0  T
   3   -137.9981905  0.909460E-05  0.144E-02    0.76       1.0  T
   4   -137.9982028 -0.122968E-04  0.385E-03    0.76       3.1  T
   5   -137.9982036 -0.756509E-06  0.186E-03    0.76       6.4  T
   6   -137.9982036 -0.317316E-07  0.946E-04    0.76      12.6  T
   7   -137.9982036 -0.260328E-07  0.287E-04    0.76      41.6  T
     SCC iter.                  ...        0 min,  0.163 sec
     gradient                   ...        0 min,  0.154 sec
 * total energy  :  -136.2180502 Eh     change       -0.2412068E-03 Eh
   gradient norm :     0.0102146 Eh/α   predicted    -0.1641236E-03 ( -31.96%)
   displ. norm   :     0.3040472 α      lambda       -0.3806974E-03
   maximum displ.:     0.1328931 α      in ANC's #6, #1, #11, ...

........................................................................
.............................. CYCLE   26 ..............................
........................................................................
   1   -137.9980022 -0.137998E+03  0.670E-02    0.77       0.0  T
   2   -137.9980183 -0.161010E-04  0.390E-02    0.76       1.0  T
   3   -137.9980095  0.881789E-05  0.158E-02    0.76       1.0  T
   4   -137.9980208 -0.112625E-04  0.513E-03    0.76       2.3  T
   5   -137.9980225 -0.168027E-05  0.202E-03    0.76       5.9  T
   6   -137.9980226 -0.116362E-06  0.109E-03    0.76      11.0  T
   7   -137.9980226 -0.111329E-07  0.496E-04    0.76      24.1  T
   8   -137.9980226 -0.898788E-08  0.132E-04    0.76      90.5  T
     SCC iter.                  ...        0 min,  0.186 sec
     gradient                   ...        0 min,  0.122 sec
 * total energy  :  -136.2182931 Eh     change       -0.2428589E-03 Eh
   gradient norm :     0.0049781 Eh/α   predicted    -0.2079514E-03 ( -14.37%)
   displ. norm   :     0.3370860 α      lambda       -0.2028772E-03
   maximum displ.:     0.1427634 α      in ANC's #6, #1, #11, ...

........................................................................
.............................. CYCLE   27 ..............................
........................................................................
   1   -137.9961266 -0.137996E+03  0.725E-02    0.76       0.0  T
   2   -137.9961389 -0.123943E-04  0.424E-02    0.76       1.0  T
   3   -137.9961229  0.160395E-04  0.182E-02    0.76       1.0  T
   4   -137.9961440 -0.211037E-04  0.479E-03    0.76       2.5  T
   5   -137.9961449 -0.931286E-06  0.251E-03    0.76       4.8  T
   6   -137.9961450 -0.832217E-07  0.130E-03    0.76       9.2  T
   7   -137.9961451 -0.429946E-07  0.447E-04    0.76      26.7  T
   8   -137.9961451 -0.815282E-08  0.155E-04    0.76      77.3  T
     SCC iter.                  ...        0 min,  0.190 sec
     gradient                   ...        0 min,  0.128 sec
 * total energy  :  -136.2184332 Eh     change       -0.1400934E-03 Eh
   gradient norm :     0.0077676 Eh/α   predicted    -0.1129652E-03 ( -19.36%)
   displ. norm   :     0.2955692 α      lambda       -0.2095543E-03
   maximum displ.:     0.1356729 α      in ANC's #1, #6, #3, ...

........................................................................
.............................. CYCLE   28 ..............................
........................................................................
   1   -137.9974606 -0.137997E+03  0.583E-02    0.76       0.0  T
   2   -137.9974652 -0.459213E-05  0.341E-02    0.76       1.0  T
   3   -137.9974577  0.755687E-05  0.116E-02    0.76       1.0  T
   4   -137.9974669 -0.926050E-05  0.293E-03    0.76       4.1  T
   5   -137.9974673 -0.374752E-06  0.149E-03    0.76       8.0  T
   6   -137.9974673 -0.346633E-07  0.800E-04    0.76      14.9  T
   7   -137.9974674 -0.146433E-07  0.273E-04    0.76      43.7  T
     SCC iter.                  ...        0 min,  0.165 sec
     gradient                   ...        0 min,  0.109 sec
 * total energy  :  -136.2185967 Eh     change       -0.1635438E-03 Eh
   gradient norm :     0.0054517 Eh/α   predicted    -0.1139391E-03 ( -30.33%)
   displ. norm   :     0.3735896 α      lambda       -0.2223792E-03
   maximum displ.:     0.1802012 α      in ANC's #1, #6, #3, ...

........................................................................
.............................. CYCLE   29 ..............................
........................................................................
   1   -137.9990819 -0.137999E+03  0.731E-02    0.76       0.0  T
   2   -137.9990880 -0.606509E-05  0.428E-02    0.75       1.0  T
   3   -137.9990783  0.970579E-05  0.137E-02    0.75       1.0  T
   4   -137.9990906 -0.123353E-04  0.335E-03    0.75       3.6  T
   5   -137.9990910 -0.440607E-06  0.186E-03    0.75       6.4  T
   6   -137.9990911 -0.396054E-07  0.801E-04    0.75      14.9  T
   7   -137.9990911 -0.237987E-07  0.256E-04    0.75      46.7  T
     SCC iter.                  ...        0 min,  0.168 sec
     gradient                   ...        0 min,  0.122 sec
 * total energy  :  -136.2187596 Eh     change       -0.1628778E-03 Eh
   gradient norm :     0.0058767 Eh/α   predicted    -0.1267106E-03 ( -22.21%)
   displ. norm   :     0.3775763 α      lambda       -0.1899150E-03
   maximum displ.:     0.1923032 α      in ANC's #1, #6, #3, ...

........................................................................
.............................. CYCLE   30 ..............................
........................................................................
   1   -138.0002586 -0.138000E+03  0.728E-02    0.75       0.0  T
   2   -138.0002779 -0.193034E-04  0.436E-02    0.75       1.0  T
   3   -138.0002735  0.445373E-05  0.200E-02    0.75       1.0  T
   4   -138.0002849 -0.113979E-04  0.312E-03    0.75       3.8  T
   5   -138.0002853 -0.401110E-06  0.169E-03    0.75       7.1  T
   6   -138.0002853 -0.161685E-07  0.614E-04    0.75      19.5  T
   7   -138.0002853 -0.153823E-07  0.254E-04    0.75      47.0  T
     SCC iter.                  ...        0 min,  0.169 sec
     gradient                   ...        0 min,  0.128 sec
 * total energy  :  -136.2188466 Eh     change       -0.8696889E-04 Eh
   gradient norm :     0.0075789 Eh/α   predicted    -0.1085056E-03 (  24.76%)
   displ. norm   :     0.2972136 α      lambda       -0.1754779E-03
   maximum displ.:     0.1594643 α      in ANC's #1, #6, #2, ...

........................................................................
.............................. CYCLE   31 ..............................
........................................................................
   1   -138.0004893 -0.138000E+03  0.603E-02    0.75       0.0  T
   2   -138.0005045 -0.152122E-04  0.360E-02    0.75       1.0  T
   3   -138.0005027  0.178658E-05  0.169E-02    0.75       1.0  T
   4   -138.0005098 -0.701832E-05  0.245E-03    0.75       4.9  T
   5   -138.0005099 -0.189810E-06  0.141E-03    0.75       8.5  T
   6   -138.0005100 -0.194980E-07  0.482E-04    0.75      24.8  T
   7   -138.0005100 -0.766187E-08  0.212E-04    0.75      56.3  T
     SCC iter.                  ...        0 min,  0.163 sec
     gradient                   ...        0 min,  0.150 sec
 * total energy  :  -136.2189517 Eh     change       -0.1051794E-03 Eh
   gradient norm :     0.0056074 Eh/α   predicted    -0.9549681E-04 (  -9.21%)
   displ. norm   :     0.1799834 α      lambda       -0.7953274E-04
   maximum displ.:     0.1048098 α      in ANC's #1, #6, #2, ...

........................................................................
.............................. CYCLE   32 ..............................
........................................................................
   1   -138.0003197 -0.138000E+03  0.336E-02    0.76       0.0  T
   2   -138.0003207 -0.985096E-06  0.198E-02    0.76       1.0  T
   3   -138.0003191  0.160708E-05  0.554E-03    0.76       2.2  T
   4   -138.0003212 -0.206155E-05  0.130E-03    0.76       9.2  T
   5   -138.0003212 -0.455162E-07  0.751E-04    0.76      15.9  T
   6   -138.0003212 -0.525461E-08  0.305E-04    0.76      39.2  T
     SCC iter.                  ...        0 min,  0.142 sec
     gradient                   ...        0 min,  0.140 sec
 * total energy  :  -136.2190192 Eh     change       -0.6742241E-04 Eh
   gradient norm :     0.0043815 Eh/α   predicted    -0.4105533E-04 ( -39.11%)
   displ. norm   :     0.2712030 α      lambda       -0.1520807E-03
   maximum displ.:     0.1669225 α      in ANC's #1, #2, #3, ...

........................................................................
.............................. CYCLE   33 ..............................
........................................................................
   1   -138.0021190 -0.138002E+03  0.499E-02    0.76       0.0  T
   2   -138.0021260 -0.697686E-05  0.297E-02    0.76       1.0  T
   3   -138.0021208  0.514419E-05  0.123E-02    0.76       1.0  T
   4   -138.0021275 -0.673158E-05  0.325E-03    0.76       3.7  T
   5   -138.0021282 -0.627073E-06  0.132E-03    0.76       9.1  T
   6   -138.0021282 -0.560185E-07  0.651E-04    0.76      18.4  T
   7   -138.0021282 -0.352938E-08  0.333E-04    0.76      35.9  T
     SCC iter.                  ...        0 min,  0.165 sec
     gradient                   ...        0 min,  0.145 sec
 * total energy  :  -136.2191104 Eh     change       -0.9119935E-04 Eh
   gradient norm :     0.0056305 Eh/α   predicted    -0.8163358E-04 ( -10.49%)
   displ. norm   :     0.3695498 α      lambda       -0.1405457E-03
   maximum displ.:     0.2190516 α      in ANC's #1, #2, #3, ...

........................................................................
.............................. CYCLE   34 ..............................
........................................................................
   1   -137.9981531 -0.137998E+03  0.706E-02    0.77       0.0  T
   2   -137.9981671 -0.139872E-04  0.413E-02    0.77       1.0  T
   3   -137.9981622  0.487692E-05  0.127E-02    0.77       1.0  T
   4   -137.9981689 -0.666128E-05  0.459E-03    0.77       2.6  T
   5   -137.9981699 -0.102381E-05  0.197E-03    0.77       6.1  T
   6   -137.9981700 -0.674997E-07  0.113E-03    0.77      10.6  T
   7   -137.9981700 -0.174504E-07  0.403E-04    0.77      29.7  T
   8   -137.9981700 -0.794014E-08  0.122E-04    0.77      98.0  T
     SCC iter.                  ...        0 min,  0.188 sec
     gradient                   ...        0 min,  0.129 sec
 * total energy  :  -136.2191473 Eh     change       -0.3695281E-04 Eh
   gradient norm :     0.0073151 Eh/α   predicted    -0.7987116E-04 ( 116.14%)
   displ. norm   :     0.0660546 α      lambda       -0.8777146E-04
   maximum displ.:     0.0408586 α      in ANC's #1, #2, #8, ...

........................................................................
.............................. CYCLE   35 ..............................
........................................................................
   1   -137.9994833 -0.137999E+03  0.156E-02    0.77       0.0  T
   2   -137.9994869 -0.365262E-05  0.867E-03    0.77       1.4  T
   3   -137.9994870 -0.701986E-07  0.424E-03    0.77       2.8  T
   4   -137.9994870 -0.101481E-07  0.207E-03    0.77       5.8  T
   5   -137.9994872 -0.216424E-06  0.638E-04    0.77      18.7  T
   6   -137.9994872 -0.857489E-08  0.377E-04    0.77      31.7  T
     SCC iter.                  ...        0 min,  0.141 sec
     gradient                   ...        0 min,  0.129 sec
 * total energy  :  -136.2192061 Eh     change       -0.5883154E-04 Eh
   gradient norm :     0.0025910 Eh/α   predicted    -0.4407968E-04 ( -25.07%)
   displ. norm   :     0.1555906 α      lambda       -0.5756692E-04
   maximum displ.:     0.1102890 α      in ANC's #1, #2, #3, ...

........................................................................
.............................. CYCLE   36 ..............................
........................................................................
   1   -138.0006297 -0.138001E+03  0.254E-02    0.77       0.0  T
   2   -138.0006306 -0.981203E-06  0.148E-02    0.76       1.0  T
   3   -138.0006300  0.650729E-06  0.380E-03    0.76       3.1  T
   4   -138.0006308 -0.806043E-06  0.116E-03    0.76      10.3  T
   5   -138.0006309 -0.714710E-07  0.539E-04    0.76      22.2  T
   6   -138.0006309 -0.861974E-08  0.275E-04    0.76      43.5  T
     SCC iter.                  ...        0 min,  0.141 sec
     gradient                   ...        0 min,  0.129 sec
 * total energy  :  -136.2192505 Eh     change       -0.4433390E-04 Eh
   gradient norm :     0.0027165 Eh/α   predicted    -0.2948070E-04 ( -33.50%)
   displ. norm   :     0.1625005 α      lambda       -0.5049405E-04
   maximum displ.:     0.1185244 α      in ANC's #1, #2, #3, ...

........................................................................
.............................. CYCLE   37 ..............................
........................................................................
   1   -138.0011077 -0.138001E+03  0.253E-02    0.76       0.0  T
   2   -138.0011082 -0.440705E-06  0.148E-02    0.76       1.0  T
   3   -138.0011075  0.617720E-06  0.336E-03    0.76       3.6  T
   4   -138.0011083 -0.737165E-06  0.895E-04    0.76      13.4  T
   5   -138.0011083 -0.413279E-07  0.424E-04    0.76      28.2  T
     SCC iter.                  ...        0 min,  0.127 sec
     gradient                   ...        0 min,  0.141 sec
 * total energy  :  -136.2192917 Eh     change       -0.4124223E-04 Eh
   gradient norm :     0.0028770 Eh/α   predicted    -0.2591684E-04 ( -37.16%)
   displ. norm   :     0.1418171 α      lambda       -0.4181415E-04
   maximum displ.:     0.1046408 α      in ANC's #1, #2, #3, ...

........................................................................
.............................. CYCLE   38 ..............................
........................................................................
   1   -138.0012470 -0.138001E+03  0.226E-02    0.76       0.0  T
   2   -138.0012474 -0.411030E-06  0.132E-02    0.76       1.0  T
   3   -138.0012469  0.495341E-06  0.303E-03    0.76       3.9  T
   4   -138.0012475 -0.596098E-06  0.769E-04    0.76      15.5  T
   5   -138.0012476 -0.290947E-07  0.364E-04    0.76      32.9  T
     SCC iter.                  ...        0 min,  0.118 sec
     gradient                   ...        0 min,  0.120 sec
 * total energy  :  -136.2193274 Eh     change       -0.3566304E-04 Eh
   gradient norm :     0.0023411 Eh/α   predicted    -0.2132962E-04 ( -40.19%)
   displ. norm   :     0.1304804 α      lambda       -0.3754076E-04
   maximum displ.:     0.0956385 α      in ANC's #1, #2, #10, ...

........................................................................
.............................. CYCLE   39 ..............................
........................................................................
   1   -138.0007983 -0.138001E+03  0.214E-02    0.76       0.0  T
   2   -138.0007986 -0.323690E-06  0.126E-02    0.76       1.0  T
   3   -138.0007981  0.477238E-06  0.279E-03    0.76       4.3  T
   4   -138.0007987 -0.586051E-06  0.660E-04    0.76      18.1  T
   5   -138.0007987 -0.161812E-07  0.338E-04    0.76      35.3  T
     SCC iter.                  ...        0 min,  0.118 sec
     gradient                   ...        0 min,  0.121 sec
 * total energy  :  -136.2193602 Eh     change       -0.3285676E-04 Eh
   gradient norm :     0.0017640 Eh/α   predicted    -0.1909136E-04 ( -41.90%)
   displ. norm   :     0.2112513 α      lambda       -0.3870760E-04
   maximum displ.:     0.1533993 α      in ANC's #1, #2, #10, ...

........................................................................
.............................. CYCLE   40 ..............................
........................................................................
   1   -138.0004612 -0.138000E+03  0.362E-02    0.75       0.0  T
   2   -138.0004626 -0.139326E-05  0.212E-02    0.76       1.0  T
   3   -138.0004604  0.213899E-05  0.599E-03    0.76       2.0  T
   4   -138.0004630 -0.257325E-05  0.143E-03    0.76       8.3  T
   5   -138.0004631 -0.106551E-06  0.648E-04    0.76      18.4  T
   6   -138.0004631 -0.140540E-08  0.355E-04    0.76      33.7  T
     SCC iter.                  ...        0 min,  0.146 sec
     gradient                   ...        0 min,  0.128 sec
 * total energy  :  -136.2194071 Eh     change       -0.4683610E-04 Eh
   gradient norm :     0.0016874 Eh/α   predicted    -0.1973858E-04 ( -57.86%)
   displ. norm   :     0.1806457 α      lambda       -0.2881891E-04
   maximum displ.:     0.1333157 α      in ANC's #1, #2, #5, ...

........................................................................
.............................. CYCLE   41 ..............................
........................................................................
   1   -137.9999613 -0.138000E+03  0.299E-02    0.76       0.0  T
   2   -137.9999622 -0.872173E-06  0.176E-02    0.76       1.0  T
   3   -137.9999598  0.239219E-05  0.630E-03    0.76       1.9  T
   4   -137.9999626 -0.285173E-05  0.118E-03    0.76      10.1  T
   5   -137.9999627 -0.617527E-07  0.582E-04    0.76      20.5  T
   6   -137.9999627 -0.209570E-08  0.315E-04    0.76      37.9  T
     SCC iter.                  ...        0 min,  0.142 sec
     gradient                   ...        0 min,  0.120 sec
 * total energy  :  -136.2194433 Eh     change       -0.3622896E-04 Eh
   gradient norm :     0.0019045 Eh/α   predicted    -0.1461992E-04 ( -59.65%)
   displ. norm   :     0.1759300 α      lambda       -0.2761973E-04
   maximum displ.:     0.1315293 α      in ANC's #1, #2, #5, ...

........................................................................
.............................. CYCLE   42 ..............................
........................................................................
   1   -138.0004475 -0.138000E+03  0.274E-02    0.76       0.0  T
   2   -138.0004483 -0.780044E-06  0.162E-02    0.76       1.0  T
   3   -138.0004468  0.151910E-05  0.513E-03    0.76       2.3  T
   4   -138.0004487 -0.184465E-05  0.104E-03    0.76      11.5  T
   5   -138.0004487 -0.512988E-07  0.509E-04    0.76      23.5  T
   6   -138.0004487 -0.197988E-08  0.259E-04    0.76      46.1  T
     SCC iter.                  ...        0 min,  0.141 sec
     gradient                   ...        0 min,  0.137 sec
 * total energy  :  -136.2194774 Eh     change       -0.3412733E-04 Eh
   gradient norm :     0.0017895 Eh/α   predicted    -0.1400435E-04 ( -58.96%)
   displ. norm   :     0.1603877 α      lambda       -0.2475236E-04
   maximum displ.:     0.1236420 α      in ANC's #1, #2, #6, ...
 * RMSD in coord.:     0.4999200 α      energy gain  -0.2893532E-02 Eh

generating ANC from model Hessian ...
Using Lindh-Hessian (1995)
 Shifting diagonal of input Hessian by    9.8710178872851110E-003
 Lowest  eigenvalues of input Hessian
    0.000000    0.000000    0.000000    0.000000    0.000000    0.000000
    0.010000    0.010060    0.010188    0.010247    0.010316    0.010423
    0.010508    0.010715    0.010972    0.011361    0.011951    0.012129
 Highest eigenvalues
    2.298615    2.368543    2.386304    2.416055    2.700727    2.711883


........................................................................
.............................. CYCLE   43 ..............................
........................................................................
   1   -138.0002913 -0.138000E+03  0.232E-02    0.77       0.0  T
   2   -138.0002920 -0.664829E-06  0.137E-02    0.77       1.0  T
   3   -138.0002909  0.108254E-05  0.454E-03    0.77       2.6  T
   4   -138.0002922 -0.129811E-05  0.925E-04    0.77      12.9  T
   5   -138.0002922 -0.432688E-07  0.433E-04    0.77      27.6  T
   6   -138.0002922 -0.380456E-08  0.237E-04    0.77      50.4  T
     SCC iter.                  ...        0 min,  0.146 sec
     gradient                   ...        0 min,  0.136 sec
 * total energy  :  -136.2195090 Eh     change       -0.3156459E-04 Eh
   gradient norm :     0.0012552 Eh/α   predicted     0.0000000E+00 (-100.00%)
   displ. norm   :     0.0394437 α      lambda       -0.1100946E-04
   maximum displ.:     0.0318279 α      in ANC's #1, #20, #6, ...

........................................................................
.............................. CYCLE   44 ..............................
........................................................................
   1   -138.0007885 -0.138001E+03  0.690E-03    0.77       0.0  T
   2   -138.0007887 -0.161249E-06  0.403E-03    0.76       3.0  T
   3   -138.0007885  0.156471E-06  0.224E-03    0.77       5.3  T
   4   -138.0007887 -0.237801E-06  0.496E-04    0.76      24.1  T
   5   -138.0007888 -0.132280E-07  0.185E-04    0.76      64.6  T
     SCC iter.                  ...        0 min,  0.122 sec
     gradient                   ...        0 min,  0.135 sec
 * total energy  :  -136.2195233 Eh     change       -0.1428163E-04 Eh
   gradient norm :     0.0008526 Eh/α   predicted    -0.5510256E-05 ( -61.42%)
   displ. norm   :     0.1140438 α      lambda       -0.2665198E-04
   maximum displ.:     0.0834389 α      in ANC's #1, #6, #20, ...

........................................................................
.............................. CYCLE   45 ..............................
........................................................................
   1   -138.0012317 -0.138001E+03  0.214E-02    0.76       0.0  T
   2   -138.0012336 -0.189003E-05  0.123E-02    0.76       1.0  T
   3   -138.0012326  0.994045E-06  0.620E-03    0.76       1.9  T
   4   -138.0012341 -0.149023E-05  0.172E-03    0.76       6.9  T
   5   -138.0012343 -0.195064E-06  0.566E-04    0.76      21.1  T
   6   -138.0012343 -0.325014E-08  0.342E-04    0.76      35.0  T
     SCC iter.                  ...        0 min,  0.140 sec
     gradient                   ...        0 min,  0.116 sec
 * total energy  :  -136.2195491 Eh     change       -0.2577624E-04 Eh
   gradient norm :     0.0018057 Eh/α   predicted    -0.1340741E-04 ( -47.99%)
   displ. norm   :     0.1402753 α      lambda       -0.2784407E-04
   maximum displ.:     0.1034516 α      in ANC's #1, #6, #8, ...

........................................................................
.............................. CYCLE   46 ..............................
........................................................................
   1   -138.0005686 -0.138001E+03  0.242E-02    0.76       0.0  T
   2   -138.0005714 -0.276649E-05  0.140E-02    0.76       1.0  T
   3   -138.0005705  0.865684E-06  0.637E-03    0.76       1.9  T
   4   -138.0005719 -0.134442E-05  0.193E-03    0.76       6.2  T
   5   -138.0005722 -0.266828E-06  0.648E-04    0.76      18.4  T
   6   -138.0005722 -0.494916E-08  0.376E-04    0.76      31.8  T
     SCC iter.                  ...        0 min,  0.142 sec
     gradient                   ...        0 min,  0.127 sec
 * total energy  :  -136.2195719 Eh     change       -0.2285939E-04 Eh
   gradient norm :     0.0020289 Eh/α   predicted    -0.1407444E-04 ( -38.43%)
   displ. norm   :     0.0448324 α      lambda       -0.1160473E-04
   maximum displ.:     0.0359119 α      in ANC's #1, #6, #2, ...

........................................................................
.............................. CYCLE   47 ..............................
........................................................................
   1   -138.0007053 -0.138001E+03  0.674E-03    0.76       0.0  T
   2   -138.0007054 -0.925580E-07  0.394E-03    0.76       3.0  T
   3   -138.0007053  0.103468E-06  0.157E-03    0.76       7.6  T
   4   -138.0007054 -0.129726E-06  0.363E-04    0.76      32.9  T
   5   -138.0007054 -0.790661E-08  0.146E-04    0.76      81.7  T
     SCC iter.                  ...        0 min,  0.123 sec
     gradient                   ...        0 min,  0.139 sec
 * total energy  :  -136.2195824 Eh     change       -0.1043851E-04 Eh
   gradient norm :     0.0014730 Eh/α   predicted    -0.5821394E-05 ( -44.23%)
   displ. norm   :     0.0924494 α      lambda       -0.1855803E-04
   maximum displ.:     0.0727157 α      in ANC's #1, #2, #16, ...

........................................................................
.............................. CYCLE   48 ..............................
........................................................................
   1   -138.0011809 -0.138001E+03  0.153E-02    0.76       0.0  T
   2   -138.0011812 -0.378684E-06  0.907E-03    0.77       1.3  T
   3   -138.0011808  0.487965E-06  0.361E-03    0.77       3.3  T
   4   -138.0011814 -0.632887E-06  0.595E-04    0.77      20.1  T
   5   -138.0011814 -0.151814E-07  0.271E-04    0.77      44.1  T
     SCC iter.                  ...        0 min,  0.119 sec
     gradient                   ...        0 min,  0.149 sec
 * total energy  :  -136.2196022 Eh     change       -0.1988385E-04 Eh
   gradient norm :     0.0012094 Eh/α   predicted    -0.9318231E-05 ( -53.14%)
   displ. norm   :     0.0828586 α      lambda       -0.1063362E-04
   maximum displ.:     0.0658546 α      in ANC's #1, #2, #6, ...

........................................................................
.............................. CYCLE   49 ..............................
........................................................................
   1   -138.0010694 -0.138001E+03  0.122E-02    0.77       0.0  T
   2   -138.0010695 -0.194658E-06  0.722E-03    0.77       1.7  T
   3   -138.0010693  0.296331E-06  0.265E-03    0.77       4.5  T
   4   -138.0010696 -0.378165E-06  0.435E-04    0.77      27.5  T
   5   -138.0010696 -0.831358E-08  0.209E-04    0.77      57.1  T
     SCC iter.                  ...        0 min,  0.125 sec
     gradient                   ...        0 min,  0.126 sec
 * total energy  :  -136.2196149 Eh     change       -0.1262019E-04 Eh
   gradient norm :     0.0013316 Eh/α   predicted    -0.5337635E-05 ( -57.71%)
   displ. norm   :     0.0775519 α      lambda       -0.1094679E-04
   maximum displ.:     0.0606857 α      in ANC's #1, #2, #6, ...

........................................................................
.............................. CYCLE   50 ..............................
........................................................................
   1   -138.0008572 -0.138001E+03  0.114E-02    0.77       0.0  T
   2   -138.0008573 -0.106700E-06  0.672E-03    0.77       1.8  T
   3   -138.0008571  0.175793E-06  0.181E-03    0.77       6.6  T
   4   -138.0008573 -0.220846E-06  0.354E-04    0.77      33.7  T
   5   -138.0008573 -0.350406E-08  0.200E-04    0.77      59.7  T
     SCC iter.                  ...        0 min,  0.120 sec
     gradient                   ...        0 min,  0.109 sec
 * total energy  :  -136.2196274 Eh     change       -0.1249489E-04 Eh
   gradient norm :     0.0012556 Eh/α   predicted    -0.5491261E-05 ( -56.05%)
   displ. norm   :     0.0780688 α      lambda       -0.1120672E-04
   maximum displ.:     0.0607898 α      in ANC's #1, #2, #6, ...

........................................................................
.............................. CYCLE   51 ..............................
........................................................................
   1   -138.0008321 -0.138001E+03  0.109E-02    0.77       0.0  T
   2   -138.0008322 -0.732803E-07  0.642E-03    0.77       1.9  T
   3   -138.0008321  0.126686E-06  0.143E-03    0.77       8.4  T
   4   -138.0008323 -0.158362E-06  0.380E-04    0.77      31.5  T
   5   -138.0008323 -0.447497E-08  0.220E-04    0.77      54.4  T
     SCC iter.                  ...        0 min,  0.122 sec
     gradient                   ...        0 min,  0.152 sec
 * total energy  :  -136.2196416 Eh     change       -0.1424493E-04 Eh
   gradient norm :     0.0009665 Eh/α   predicted    -0.5623252E-05 ( -60.52%)
   displ. norm   :     0.0943762 α      lambda       -0.1266441E-04
   maximum displ.:     0.0721714 α      in ANC's #1, #2, #3, ...

........................................................................
.............................. CYCLE   52 ..............................
........................................................................
   1   -138.0008767 -0.138001E+03  0.128E-02    0.77       0.0  T
   2   -138.0008768 -0.138495E-06  0.757E-03    0.76       1.6  T
   3   -138.0008765  0.298059E-06  0.225E-03    0.76       5.3  T
   4   -138.0008769 -0.357897E-06  0.525E-04    0.76      22.8  T
   5   -138.0008769 -0.118792E-07  0.266E-04    0.76      45.0  T
     SCC iter.                  ...        0 min,  0.113 sec
     gradient                   ...        0 min,  0.081 sec
 * total energy  :  -136.2196579 Eh     change       -0.1631725E-04 Eh
   gradient norm :     0.0007240 Eh/α   predicted    -0.6358444E-05 ( -61.03%)
   displ. norm   :     0.1045887 α      lambda       -0.1236226E-04
   maximum displ.:     0.0794707 α      in ANC's #1, #2, #3, ...

........................................................................
.............................. CYCLE   53 ..............................
........................................................................
   1   -138.0009350 -0.138001E+03  0.145E-02    0.76       0.0  T
   2   -138.0009351 -0.121883E-06  0.854E-03    0.76       1.4  T
   3   -138.0009349  0.172572E-06  0.179E-03    0.76       6.7  T
   4   -138.0009352 -0.222451E-06  0.446E-04    0.76      26.8  T
   5   -138.0009352 -0.568090E-08  0.254E-04    0.76      47.1  T
     SCC iter.                  ...        0 min,  0.114 sec
     gradient                   ...        0 min,  0.148 sec
 * total energy  :  -136.2196745 Eh     change       -0.1659997E-04 Eh
   gradient norm :     0.0009204 Eh/α   predicted    -0.6216015E-05 ( -62.55%)
   displ. norm   :     0.1125454 α      lambda       -0.1263686E-04
   maximum displ.:     0.0844318 α      in ANC's #1, #2, #3, ...

........................................................................
.............................. CYCLE   54 ..............................
........................................................................
   1   -138.0011044 -0.138001E+03  0.155E-02    0.76       0.0  T
   2   -138.0011045 -0.854806E-07  0.913E-03    0.76       1.3  T
   3   -138.0011044  0.112225E-06  0.140E-03    0.76       8.5  T
   4   -138.0011045 -0.151869E-06  0.371E-04    0.76      32.2  T
   5   -138.0011045 -0.230852E-08  0.218E-04    0.76      54.8  T
     SCC iter.                  ...        0 min,  0.122 sec
     gradient                   ...        0 min,  0.128 sec
 * total energy  :  -136.2196919 Eh     change       -0.1737873E-04 Eh
   gradient norm :     0.0008593 Eh/α   predicted    -0.6356614E-05 ( -63.42%)
   displ. norm   :     0.1264675 α      lambda       -0.1366028E-04
   maximum displ.:     0.0936853 α      in ANC's #1, #2, #3, ...

........................................................................
.............................. CYCLE   55 ..............................
........................................................................
   1   -138.0010947 -0.138001E+03  0.172E-02    0.76       0.0  T
   2   -138.0010947 -0.868029E-07  0.101E-02    0.76       1.2  T
   3   -138.0010946  0.159312E-06  0.159E-03    0.76       7.5  T
   4   -138.0010948 -0.203447E-06  0.379E-04    0.76      31.5  T
   5   -138.0010948 -0.260988E-08  0.224E-04    0.76      53.3  T
     SCC iter.                  ...        0 min,  0.119 sec
     gradient                   ...        0 min,  0.144 sec
 * total energy  :  -136.2197109 Eh     change       -0.1903306E-04 Eh
   gradient norm :     0.0007376 Eh/α   predicted    -0.6882273E-05 ( -63.84%)
   displ. norm   :     0.1442076 α      lambda       -0.1480387E-04
   maximum displ.:     0.1061040 α      in ANC's #1, #2, #3, ...

........................................................................
.............................. CYCLE   56 ..............................
........................................................................
   1   -138.0011178 -0.138001E+03  0.190E-02    0.77       0.0  T
   2   -138.0011179 -0.112246E-06  0.112E-02    0.77       1.1  T
   3   -138.0011177  0.238701E-06  0.196E-03    0.77       6.1  T
   4   -138.0011180 -0.296749E-06  0.426E-04    0.77      28.1  T
   5   -138.0011180 -0.383980E-08  0.252E-04    0.77      47.4  T
     SCC iter.                  ...        0 min,  0.119 sec
     gradient                   ...        0 min,  0.143 sec
 * total energy  :  -136.2197315 Eh     change       -0.2053698E-04 Eh
   gradient norm :     0.0005459 Eh/α   predicted    -0.7475303E-05 ( -63.60%)
   displ. norm   :     0.1567023 α      lambda       -0.1488727E-04
   maximum displ.:     0.1148947 α      in ANC's #1, #2, #3, ...

........................................................................
.............................. CYCLE   57 ..............................
........................................................................
   1   -138.0010612 -0.138001E+03  0.203E-02    0.77       0.0  T
   2   -138.0010614 -0.156020E-06  0.119E-02    0.77       1.0  T
   3   -138.0010611  0.251948E-06  0.211E-03    0.77       5.7  T
   4   -138.0010615 -0.322432E-06  0.490E-04    0.77      24.4  T
   5   -138.0010615 -0.510795E-08  0.286E-04    0.77      41.8  T
     SCC iter.                  ...        0 min,  0.118 sec
     gradient                   ...        0 min,  0.154 sec
 * total energy  :  -136.2197522 Eh     change       -0.2069429E-04 Eh
   gradient norm :     0.0004326 Eh/α   predicted    -0.7526795E-05 ( -63.63%)
   displ. norm   :     0.1596664 α      lambda       -0.1420937E-04
   maximum displ.:     0.1172228 α      in ANC's #1, #2, #3, ...

........................................................................
.............................. CYCLE   58 ..............................
........................................................................
   1   -138.0010333 -0.138001E+03  0.210E-02    0.77       0.0  T
   2   -138.0010335 -0.183982E-06  0.124E-02    0.77       1.0  T
   3   -138.0010333  0.215702E-06  0.209E-03    0.77       5.7  T
   4   -138.0010336 -0.292751E-06  0.520E-04    0.77      23.0  T
   5   -138.0010336 -0.484920E-08  0.302E-04    0.77      39.6  T
     SCC iter.                  ...        0 min,  0.123 sec
     gradient                   ...        0 min,  0.137 sec
 * total energy  :  -136.2197718 Eh     change       -0.1962320E-04 Eh
   gradient norm :     0.0004623 Eh/α   predicted    -0.7188003E-05 ( -63.37%)
   displ. norm   :     0.1582746 α      lambda       -0.1289754E-04
   maximum displ.:     0.1163271 α      in ANC's #1, #2, #3, ...

........................................................................
.............................. CYCLE   59 ..............................
........................................................................
   1   -138.0010390 -0.138001E+03  0.210E-02    0.77       0.0  T
   2   -138.0010393 -0.203686E-06  0.123E-02    0.77       1.0  T
   3   -138.0010391  0.194624E-06  0.204E-03    0.77       5.8  T
   4   -138.0010393 -0.272877E-06  0.553E-04    0.77      21.6  T
   5   -138.0010393 -0.612650E-08  0.322E-04    0.77      37.1  T
     SCC iter.                  ...        0 min,  0.117 sec
     gradient                   ...        0 min,  0.140 sec
 * total energy  :  -136.2197901 Eh     change       -0.1829259E-04 Eh
   gradient norm :     0.0004974 Eh/α   predicted    -0.6523806E-05 ( -64.34%)
   displ. norm   :     0.1562823 α      lambda       -0.1206375E-04
   maximum displ.:     0.1153319 α      in ANC's #1, #2, #3, ...

........................................................................
.............................. CYCLE   60 ..............................
........................................................................
   1   -138.0010245 -0.138001E+03  0.217E-02    0.77       0.0  T
   2   -138.0010247 -0.267942E-06  0.127E-02    0.77       1.0  T
   3   -138.0010245  0.262142E-06  0.228E-03    0.77       5.2  T
   4   -138.0010248 -0.348874E-06  0.640E-04    0.77      18.7  T
   5   -138.0010248 -0.136440E-07  0.361E-04    0.77      33.1  T
     SCC iter.                  ...        0 min,  0.119 sec
     gradient                   ...        0 min,  0.130 sec
 * total energy  :  -136.2198074 Eh     change       -0.1730218E-04 Eh
   gradient norm :     0.0005100 Eh/α   predicted    -0.6100823E-05 ( -64.74%)
   displ. norm   :     0.1573478 α      lambda       -0.9708344E-05
   maximum displ.:     0.1167763 α      in ANC's #1, #2, #3, ...

........................................................................
.............................. CYCLE   61 ..............................
........................................................................
   1   -138.0008767 -0.138001E+03  0.218E-02    0.77       0.0  T
   2   -138.0008770 -0.265399E-06  0.128E-02    0.77       1.0  T
   3   -138.0008767  0.272395E-06  0.231E-03    0.77       5.2  T
   4   -138.0008771 -0.361815E-06  0.635E-04    0.77      18.8  T
   5   -138.0008771 -0.128374E-07  0.359E-04    0.77      33.3  T
     SCC iter.                  ...        0 min,  0.118 sec
     gradient                   ...        0 min,  0.127 sec
 * total energy  :  -136.2198224 Eh     change       -0.1507305E-04 Eh
   gradient norm :     0.0007824 Eh/α   predicted    -0.4912256E-05 ( -67.41%)
   displ. norm   :     0.1262727 α      lambda       -0.9303823E-05
   maximum displ.:     0.0950885 α      in ANC's #1, #2, #3, ...

........................................................................
.............................. CYCLE   62 ..............................
........................................................................
   1   -138.0010914 -0.138001E+03  0.175E-02    0.77       0.0  T
   2   -138.0010916 -0.194247E-06  0.103E-02    0.77       1.2  T
   3   -138.0010914  0.212269E-06  0.206E-03    0.77       5.8  T
   4   -138.0010917 -0.275794E-06  0.527E-04    0.77      22.7  T
   5   -138.0010917 -0.981061E-08  0.298E-04    0.77      40.1  T
     SCC iter.                  ...        0 min,  0.119 sec
     gradient                   ...        0 min,  0.142 sec
 * total energy  :  -136.2198356 Eh     change       -0.1317685E-04 Eh
   gradient norm :     0.0005609 Eh/α   predicted    -0.4688417E-05 ( -64.42%)
   displ. norm   :     0.1222817 α      lambda       -0.8790836E-05
   maximum displ.:     0.0930380 α      in ANC's #1, #2, #3, ...

........................................................................
.............................. CYCLE   63 ..............................
........................................................................
   1   -138.0012106 -0.138001E+03  0.180E-02    0.77       0.0  T
   2   -138.0012109 -0.237800E-06  0.105E-02    0.77       1.1  T
   3   -138.0012105  0.390381E-06  0.251E-03    0.77       4.8  T
   4   -138.0012110 -0.464083E-06  0.664E-04    0.77      18.0  T
[...]

    * Orbital Energies and Occupations

         #    Occupation            Energy/Eh            Energy/eV
      -------------------------------------------------------------
         1        2.0000           -0.8196414             -22.3036
       ...           ...                  ...                  ...
       107        2.0000           -0.4449891             -12.1088
       108        2.0000           -0.4388122             -11.9407
       109        2.0000           -0.4352043             -11.8425
       110        2.0000           -0.4319660             -11.7544
       111        2.0000           -0.4259234             -11.5900
       112        2.0000           -0.4253616             -11.5747
       113        2.0000           -0.4236363             -11.5277
       114        2.0000           -0.4209948             -11.4559
       115        2.0000           -0.4182892             -11.3822
       116        2.0000           -0.4084831             -11.1154
       117        2.0000           -0.4077666             -11.0959
       118        2.0000           -0.3860657             -10.5054
       119        2.0000           -0.3858404             -10.4993 (HOMO)
       120        0.0000           -0.3575370              -9.7291 (LUMO)
       121                         -0.3413993              -9.2899
       122                         -0.2939535              -7.9989
       123                         -0.2858369              -7.7780
       124                         -0.2837117              -7.7202
       125                         -0.2696998              -7.3389
       126                         -0.2690112              -7.3202
       127                         -0.2364628              -6.4345
       128                         -0.2358999              -6.4192
       129                         -0.2319662              -6.3121
       130                         -0.2273688              -6.1870
       ...                                ...                  ...
       214                          0.6881746              18.7262
      -------------------------------------------------------------
                  HL-Gap            0.0283034 Eh            0.7702 eV
             Fermi-level           -0.3714124 Eh          -10.1066 eV

     #   Z          covCN         q      C6AA      α(0)
     1   6 C        2.921    -0.032    28.788     8.799
     2   6 C        2.915    -0.029    28.722     8.788
     3   6 C        2.917    -0.029    28.725     8.789
     4   6 C        2.917    -0.037    28.929     8.820
     5   6 C        2.986     0.014    27.695     8.633
     6   6 C        2.989     0.020    27.556     8.611
     7   6 C        2.919    -0.032    28.798     8.800
     8   6 C        2.915    -0.026    28.656     8.778
     9   6 C        2.920    -0.034    28.839     8.806
    10   6 C        2.965     0.009    27.823     8.652
    11   6 C        3.862     0.041    19.843     6.335
    12   6 C        3.829     0.044    19.822     6.335
    13   6 C        2.966     0.003    27.957     8.673
    14   6 C        2.923    -0.040    28.994     8.830
    15   6 C        2.914    -0.029    28.719     8.788
    16   6 C        2.921    -0.033    28.833     8.806
    17   6 C        2.989     0.017    27.625     8.622
    18   6 C        2.982     0.017    27.629     8.622
    19   6 C        2.917    -0.031    28.763     8.795
    20   6 C        2.917    -0.027    28.677     8.782
    21   6 C        2.915    -0.028    28.705     8.786
    22   6 C        2.922    -0.033    28.810     8.802
    23   7 N        2.770    -0.106    23.320     7.172
    24   6 C        2.756     0.266    22.510     7.769
    25   6 C        3.119     0.104    25.545     8.278
    26   6 C        3.028    -0.039    28.951     8.826
    27   6 C        3.005    -0.036    28.885     8.816
    28   6 C        3.081     0.116    25.366     8.257
    29   7 N        2.755     0.541    13.577     5.473
    30   8 O        0.933    -0.366    20.983     6.143
    31   8 O        0.932    -0.389    21.429     6.208
    32   8 O        1.726    -0.166    16.795     5.533
    33   8 O        0.860    -0.398    21.637     6.237
    34   6 C        3.786     0.083    19.214     6.244
    35   6 C        2.686     0.359    20.908     7.483
    36   8 O        1.659    -0.360    20.096     6.052
    37   8 O        0.856    -0.374    21.162     6.168
    38   7 N        2.767    -0.126    23.730     7.235
    39   6 C        2.754     0.276    22.327     7.737
    40   6 C        3.133     0.095    25.693     8.298
    41   6 C        3.029    -0.059    29.434     8.899
    42   6 C        3.008    -0.042    29.025     8.838
    43   6 C        3.093     0.114    25.378     8.257
    44   7 N        2.755     0.543    13.560     5.469
    45   8 O        0.931    -0.354    20.757     6.110
    46   8 O        0.933    -0.380    21.247     6.182
    47   8 O        1.728    -0.123    16.168     5.429
    48   8 O        0.858    -0.361    20.923     6.133
    49   1 H        0.926     0.038     2.473     2.459
    50   1 H        0.926     0.035     2.511     2.478
    51   1 H        0.926     0.031     2.568     2.506
    52   1 H        0.926     0.020     2.737     2.587
    53   1 H        0.926     0.041     2.439     2.442
    54   1 H        0.926     0.040     2.449     2.447
    55   1 H        0.926     0.042     2.427     2.436
    56   1 H        0.923     0.074     2.048     2.238
    57   1 H        0.924     0.063     2.166     2.302
    58   1 H        0.926     0.051     2.302     2.373
    59   1 H        0.926     0.039     2.465     2.455
    60   1 H        0.926     0.039     2.466     2.456
    61   1 H        0.926     0.033     2.548     2.496
    62   1 H        0.926     0.036     2.503     2.474
    63   1 H        0.926     0.035     2.515     2.480
    64   1 H        0.926     0.036     2.502     2.473
    65   1 H        0.927     0.097     1.816     2.107
    66   1 H        0.926     0.098     1.799     2.097
    67   1 H        0.924     0.064     2.159     2.298
    68   1 H        0.804     0.370     0.545     1.159
    69   1 H        0.927     0.084     1.934     2.175
    70   1 H        0.926     0.094     1.840     2.121

 Mol. C6AA /au·bohr⁶  :      72711.721791
 Mol. C8AA /au·bohr⁸  :    1788401.933047
 Mol. α(0) /au        :        421.954079


Wiberg/Mayer (AO) data.
largest (>0.10) Wiberg bond orders for each atom

 ---------------------------------------------------------------------------
     #   Z sym  total        # sym  WBO       # sym  WBO       # sym  WBO
 ---------------------------------------------------------------------------
     1   6 C    3.991 --     2 C    1.555     6 C    1.282    49 H    0.968
                             4 C    0.118
     2   6 C    3.992 --     1 C    1.555     3 C    1.325    50 H    0.971
     3   6 C    3.992 --     4 C    1.551     2 C    1.325    51 H    0.971
     4   6 C    3.993 --     3 C    1.551     5 C    1.288    52 H    0.966
                             1 C    0.118
     5   6 C    3.989 --     4 C    1.288     6 C    1.258    10 C    1.241
     6   6 C    3.990 --     1 C    1.282     7 C    1.273     5 C    1.258
     7   6 C    3.991 --     8 C    1.561     6 C    1.273    53 H    0.968
                            10 C    0.114
     8   6 C    3.991 --     7 C    1.561     9 C    1.317    54 H    0.970
     9   6 C    3.990 --    10 C    1.533     8 C    1.317    55 H    0.961
    10   6 C    3.981 --     9 C    1.533     5 C    1.241    11 C    0.995
                             7 C    0.114
    11   6 C    3.948 --    10 C    0.995    12 C    0.960    56 H    0.939
                            38 N    0.938
    12   6 C    3.950 --    13 C    0.991    11 C    0.960    57 H    0.944
                            23 N    0.937
    13   6 C    3.980 --    14 C    1.519    18 C    1.253    12 C    0.991
                            16 C    0.114
    14   6 C    3.988 --    13 C    1.519    15 C    1.329    58 H    0.960
    15   6 C    3.992 --    16 C    1.550    14 C    1.329    59 H    0.970
    16   6 C    3.989 --    15 C    1.550    17 C    1.281    60 H    0.968
                            13 C    0.114
    17   6 C    3.990 --    16 C    1.281    22 C    1.279    18 C    1.251
    18   6 C    3.988 --    19 C    1.282    13 C    1.253    17 C    1.251
    19   6 C    3.992 --    20 C    1.554    18 C    1.282    61 H    0.958
                            22 C    0.118
    20   6 C    3.990 --    19 C    1.554    21 C    1.322    62 H    0.971
    21   6 C    3.992 --    22 C    1.558    20 C    1.322    63 H    0.971
    22   6 C    3.990 --    21 C    1.558    17 C    1.279    64 H    0.968
                            19 C    0.118
    23   7 N    3.487 --    24 C    1.230    34 C    0.974    12 C    0.937
                            33 O    0.207
    24   6 C    3.965 --    33 O    1.661    23 N    1.230    25 C    0.991
    25   6 C    3.902 --    26 C    1.493    32 O    1.129    24 C    0.991
                            28 C    0.119
    26   6 C    3.979 --    25 C    1.493    27 C    1.362    65 H    0.967
    27   6 C    3.979 --    28 C    1.466    26 C    1.362    66 H    0.966
    28   6 C    3.891 --    27 C    1.466    32 O    1.105    29 N    1.014
                            25 C    0.119
    29   7 N    3.918 --    30 O    1.438    31 O    1.413    28 C    1.014
    30   8 O    1.931 --    29 N    1.438    31 O    0.353
    31   8 O    1.914 --    29 N    1.413    30 O    0.353
    32   8 O    2.466 --    25 C    1.129    28 C    1.105
    33   8 O    2.023 --    24 C    1.661    23 N    0.207
    34   6 C    3.968 --    38 N    0.984    23 N    0.974    67 H    0.947
                            35 C    0.903
    35   6 C    3.927 --    37 O    1.779    36 O    1.177    34 C    0.903
    36   8 O    2.230 --    35 C    1.177    68 H    0.829    37 O    0.187
    37   8 O    2.074 --    35 C    1.779    36 O    0.187
    38   7 N    3.429 --    39 C    1.177    34 C    0.984    11 C    0.938
                            48 O    0.189
    39   6 C    3.959 --    48 O    1.728    38 N    1.177    40 C    0.971
    40   6 C    3.906 --    41 C    1.491    47 O    1.152    39 C    0.971
                            43 C    0.120
    41   6 C    3.981 --    40 C    1.491    42 C    1.357    69 H    0.965
    42   6 C    3.981 --    43 C    1.474    41 C    1.357    70 H    0.967
    43   6 C    3.897 --    42 C    1.474    47 O    1.129    44 N    0.997
                            40 C    0.120
    44   7 N    3.920 --    45 O    1.450    46 O    1.424    43 C    0.997
    45   8 O    1.952 --    44 N    1.450    46 O    0.366
    46   8 O    1.919 --    44 N    1.424    45 O    0.366
    47   8 O    2.500 --    40 C    1.152    43 C    1.129
    48   8 O    2.079 --    39 C    1.728    38 N    0.189
    49   1 H    0.998 --     1 C    0.968
    50   1 H    0.998 --     2 C    0.971
    51   1 H    0.999 --     3 C    0.971
    52   1 H    0.999 --     4 C    0.966
    53   1 H    0.997 --     7 C    0.968
    54   1 H    0.998 --     8 C    0.970
    55   1 H    0.998 --     9 C    0.961
    56   1 H    0.994 --    11 C    0.939
    57   1 H    0.994 --    12 C    0.944
    58   1 H    0.997 --    14 C    0.960
    59   1 H    0.997 --    15 C    0.970
    60   1 H    0.997 --    16 C    0.968
    61   1 H    0.998 --    19 C    0.958
    62   1 H    0.998 --    20 C    0.971
    63   1 H    0.998 --    21 C    0.971
    64   1 H    0.998 --    22 C    0.968
    65   1 H    0.990 --    26 C    0.967
    66   1 H    0.990 --    27 C    0.966
    67   1 H    0.995 --    34 C    0.947
    68   1 H    0.863 --    36 O    0.829
    69   1 H    0.992 --    41 C    0.965
    70   1 H    0.990 --    42 C    0.967
 ---------------------------------------------------------------------------

Topologies differ in total number of bonds
Writing topology from bond orders to xtbtopo.mol

molecular dipole:
                 x           y           z       tot (Debye)
 q only:       -1.254      -1.408      -1.271
   full:       -1.336      -0.784      -1.275       5.101
molecular quadrupole (traceless):
                xx          xy          yy          xz          yz          zz
 q only:       -6.315      -9.453       2.641     -36.609      -5.536       3.674
  q+dip:       -8.240     -10.466       2.229     -36.730     -11.513       6.011
   full:       -5.383     -10.985       0.254     -36.823      -6.441       5.129

           -------------------------------------------------
          |                Geometry Summary                 |
           -------------------------------------------------

      molecular mass/u    :      646.5605791
   center of mass at/Å    :        0.0772079       0.5654483       0.1583014
  moments of inertia/u·Å² :        0.7124449E+04   0.8488917E+04   0.1181113E+05
rotational constants/cm⁻¹ :        0.2366166E-02   0.1985840E-02   0.1427266E-02

 * 71 selected distances

     #   Z          #   Z                                           value/Å
     1   6 C        2   6 C                                       1.3656501
     2   6 C        3   6 C                                       1.4013592
     3   6 C        4   6 C                                       1.3676583
     4   6 C        5   6 C                                       1.4116385
     1   6 C        6   6 C                                       1.4102856
     5   6 C        6   6 C                                       1.4202159
     6   6 C        7   6 C                                       1.4103646
     7   6 C        8   6 C                                       1.3633537
     8   6 C        9   6 C                                       1.4023456
     5   6 C       10   6 C                                       1.4242582
     9   6 C       10   6 C                                       1.3697517
    11   6 C       12   6 C                                       1.5412094 (max)
    13   6 C       14   6 C                                       1.3740772
    14   6 C       15   6 C                                       1.3994715
    15   6 C       16   6 C                                       1.3645619
    16   6 C       17   6 C                                       1.4092658
    13   6 C       18   6 C                                       1.4220057
    17   6 C       18   6 C                                       1.4234710
    18   6 C       19   6 C                                       1.4130883
    19   6 C       20   6 C                                       1.3671142
    20   6 C       21   6 C                                       1.4015368
    17   6 C       22   6 C                                       1.4110838
    21   6 C       22   6 C                                       1.3648250
    12   6 C       23   7 N                                       1.4710047
    23   7 N       24   6 C                                       1.3510872
    25   6 C       26   6 C                                       1.3795406
    26   6 C       27   6 C                                       1.4027516
    27   6 C       28   6 C                                       1.3765750
    28   6 C       29   7 N                                       1.4141264
    29   7 N       30   8 O                                       1.2110934
    29   7 N       31   8 O                                       1.2160999
    25   6 C       32   8 O                                       1.3430957
    28   6 C       32   8 O                                       1.3471928
    24   6 C       33   8 O                                       1.2137520
    23   7 N       34   6 C                                       1.4535046
    35   6 C       36   8 O                                       1.3206844
    35   6 C       37   8 O                                       1.1967807
    11   6 C       38   7 N                                       1.4736130
    34   6 C       38   7 N                                       1.4451437
    38   7 N       39   6 C                                       1.3703336
    40   6 C       41   6 C                                       1.3794743
    41   6 C       42   6 C                                       1.4038789
    42   6 C       43   6 C                                       1.3759415
    43   6 C       44   7 N                                       1.4208754
    44   7 N       45   8 O                                       1.2085165
    44   7 N       46   8 O                                       1.2143301
    40   6 C       47   8 O                                       1.3386072
    43   6 C       47   8 O                                       1.3402696
    39   6 C       48   8 O                                       1.2054046
     1   6 C       49   1 H                                       1.0805594
     2   6 C       50   1 H                                       1.0798842
     3   6 C       51   1 H                                       1.0804331
     4   6 C       52   1 H                                       1.0794349
     7   6 C       53   1 H                                       1.0802630
     8   6 C       54   1 H                                       1.0795937
     9   6 C       55   1 H                                       1.0767785
    11   6 C       56   1 H                                       1.0987984
    12   6 C       57   1 H                                       1.0938289
    14   6 C       58   1 H                                       1.0795861
    15   6 C       59   1 H                                       1.0795865
    16   6 C       60   1 H                                       1.0804586
    19   6 C       61   1 H                                       1.0790921
    20   6 C       62   1 H                                       1.0801061
    21   6 C       63   1 H                                       1.0798372
    22   6 C       64   1 H                                       1.0806920
    26   6 C       65   1 H                                       1.0702263
    27   6 C       66   1 H                                       1.0706391
    34   6 C       67   1 H                                       1.0967013
    36   8 O       68   1 H                                       0.9754267 (min)
    41   6 C       69   1 H                                       1.0694540
    42   6 C       70   1 H                                       1.0703756

 * 6 distinct bonds (by element types)

   Z      Z             #   av. dist./Å        max./Å        min./Å
   1 H    6 C          21     1.0803014     1.0987984     1.0694540
   6 C    6 C          29     1.3985088     1.5412094     1.3633537
   6 C    7 N           8     1.4249611     1.4736130     1.3510872
   1 H    8 O           1     0.9754267     0.9754267     0.9754267
   6 C    8 O           8     1.2882234     1.3471928     1.1967807
   7 N    8 O           4     1.2125100     1.2160999     1.2085165


optimized geometry written to: xtbopt.xyz


           -------------------------------------------------
          | TOTAL ENERGY             -136.219895095331 Eh   |
          | GRADIENT NORM               0.000445248981 Eh/α |
          | HOMO-LUMO GAP               0.770175042057 eV   |
           -------------------------------------------------

------------------------------------------------------------------------
 * finished run on 2022/03/16 at 23:51:39.287     
------------------------------------------------------------------------
 total:
 * wall-time:     0 d,  0 h,  0 min, 32.320 sec
 *  cpu-time:     0 d,  0 h, 11 min, 12.044 sec
 * ratio c/w:    20.793 speedup
 SCF:
 * wall-time:     0 d,  0 h,  0 min,  0.629 sec
 *  cpu-time:     0 d,  0 h,  0 min,  9.804 sec
 * ratio c/w:    15.588 speedup
 ANC optimizer:
 * wall-time:     0 d,  0 h,  0 min, 31.566 sec
 *  cpu-time:     0 d,  0 h, 10 min, 58.227 sec
 * ratio c/w:    20.852 speedup

