70
 energy: -136.171845044798 gnorm: 0.172288055675 xtb: 6.3.3 (4ae9cef)
C         4.29050000000000   -2.52675300000000   -2.82191500000000
C         4.14669900000000   -1.65655200000000   -3.89720800000000
C         3.12288700000000   -0.72054800000000   -3.88845000000000
C         2.24493600000000   -0.65547600000000   -2.80266800000000
C         2.35434700000000   -1.52653900000000   -1.69115100000000
C         3.41250000000000   -2.47506300000000   -1.72540300000000
C         3.59042700000000   -3.36126400000000   -0.65726400000000
C         2.74038300000000   -3.32687900000000    0.44117900000000
C         1.69442800000000   -2.40888600000000    0.48989900000000
C         1.47465900000000   -1.50203400000000   -0.55853600000000
C         0.34413200000000   -0.48370200000000   -0.47311300000000
C        -0.87683600000000   -0.66349700000000    0.47940600000000
C        -1.93832900000000   -1.63608500000000   -0.03097400000000
C        -2.57192200000000   -1.35513700000000   -1.26337500000000
C        -3.52283800000000   -2.21099200000000   -1.80375900000000
C        -3.87507200000000   -3.36901200000000   -1.11961600000000
C        -3.29823100000000   -3.67252100000000    0.12007300000000
C        -2.32035200000000   -2.81278000000000    0.69129700000000
C        -1.81349300000000   -3.19036200000000    1.96128000000000
C        -2.21847600000000   -4.35930700000000    2.60952500000000
C        -3.16542700000000   -5.18138300000000    2.02071900000000
C        -3.70641900000000   -4.83650100000000    0.78745400000000
N        -1.39649200000000    0.71582000000000    0.58373800000000
C        -2.24592200000000    1.04443500000000    1.64154400000000
C        -2.81023700000000    2.38445600000000    1.66396500000000
C        -3.36407200000000    3.11309100000000    2.70381800000000
C        -3.78379700000000    4.36107000000000    2.16898400000000
C        -3.50081200000000    4.28871600000000    0.82631700000000
N        -3.70163500000000    5.20701800000000   -0.25281600000000
O        -4.04592600000000    6.35380000000000    0.05797900000000
O        -3.52398300000000    4.78458500000000   -1.40758700000000
O        -2.90994000000000    3.10878900000000    0.50342800000000
O        -2.50990800000000    0.23731100000000    2.53057200000000
C        -0.39367500000000    1.66655900000000    0.08862800000000
C        -0.82558800000000    2.35845100000000   -1.22228700000000
O        -0.66096600000000    3.70031900000000   -1.17722100000000
O        -1.25161000000000    1.82660700000000   -2.24063900000000
N         0.81342200000000    0.88644200000000   -0.17853600000000
C         1.71699200000000    1.02963100000000    0.88687400000000
C         2.72314700000000    2.05513300000000    0.68406500000000
C         3.09536700000000    2.81528100000000   -0.41738900000000
C         4.11782500000000    3.70047400000000    0.01434900000000
C         4.30175100000000    3.42407300000000    1.34488600000000
N         5.17487600000000    3.99013400000000    2.32474700000000
O         5.33670600000000    3.36828900000000    3.38256400000000
O         5.70399200000000    5.07125100000000    2.02681300000000
O         3.47577500000000    2.43355200000000    1.76774100000000
O         1.58774900000000    0.39755100000000    1.93324100000000
H         5.09755100000000   -3.25686500000000   -2.84473400000000
H         4.83495400000000   -1.71288700000000   -4.73832500000000
H         2.99744100000000   -0.04199200000000   -4.72830000000000
H         1.46242000000000    0.09911800000000   -2.85482200000000
H         4.40003100000000   -4.08761300000000   -0.66358900000000
H         2.89904700000000   -4.01092100000000    1.26994800000000
H         1.07178300000000   -2.40245400000000    1.38002200000000
H        -0.06830400000000   -0.42432800000000   -1.48773200000000
H        -0.53313500000000   -0.92045600000000    1.48323800000000
H        -2.32240400000000   -0.45351300000000   -1.82470900000000
H        -3.98759500000000   -1.97487700000000   -2.75591900000000
H        -4.62111700000000   -4.02925700000000   -1.55192900000000
H        -1.10283600000000   -2.56905700000000    2.49615500000000
H        -1.80493200000000   -4.61287400000000    3.58110800000000
H        -3.49615300000000   -6.08597800000000    2.52497400000000
H        -4.45611100000000   -5.49463800000000    0.35148900000000
H        -3.43441300000000    2.77821300000000    3.73209900000000
H        -4.25194400000000    5.18454700000000    2.69127300000000
H        -0.20280400000000    2.43561600000000    0.84732800000000
H        -1.04133400000000    4.01140700000000   -2.03694600000000
H         2.68036800000000    2.73257500000000   -1.41141500000000
H         4.64794500000000    4.44466900000000   -0.56438800000000
70
 energy: -136.192413027496 gnorm: 0.071786179532 xtb: 6.3.3 (4ae9cef)
C         4.28189102256527   -2.51998136358268   -2.82056537605900
C         4.13758200044666   -1.65836484675351   -3.88099736545617
C         3.10620159376877   -0.72081187196939   -3.86497471144697
C         2.23601701865947   -0.64896314570621   -2.79469687327902
C         2.34456059411361   -1.51459637790236   -1.68260497987786
C         3.40545261567684   -2.47039719795394   -1.71844100450374
C         3.58047454379523   -3.35895614145756   -0.64521082056550
C         2.73580486515428   -3.31597016856264    0.43597983608723
C         1.69309547820341   -2.38640373219058    0.48317094894484
C         1.47232476187148   -1.48645566025238   -0.54566121931814
C         0.33329582178217   -0.47873403124174   -0.48736855924363
C        -0.87235879940420   -0.67289085596127    0.47912171535047
C        -1.93415545397085   -1.63520900382801   -0.02676473611576
C        -2.55454273295990   -1.35693859728413   -1.23949694590808
C        -3.51369407446238   -2.20895170816778   -1.78778973174175
C        -3.87316493722504   -3.35641872890922   -1.12332992857202
C        -3.29625873025729   -3.67103071047853    0.11780696117338
C        -2.31590875301076   -2.80712543038592    0.69437325664612
C        -1.80777440265544   -3.18368924236305    1.95867152891883
C        -2.21612743304853   -4.33673999596344    2.59711963190743
C        -3.16483553882968   -5.17280853764392    2.01187822017824
C        -3.70008013040162   -4.83831086179701    0.79184040614058
N        -1.38712174296195    0.70989285456339    0.58287242850684
C        -2.22385661729034    1.03203744452174    1.63602130304733
C        -2.79695355446152    2.38653525632360    1.64911373519491
C        -3.35063939748298    3.10722065051565    2.69029555368885
C        -3.78111518427659    4.34082220774581    2.15813548763211
C        -3.48738826729211    4.27689885814832    0.81787209329268
N        -3.69809337016960    5.19781901005873   -0.24600709356930
O        -4.04822143714247    6.32488188631437    0.06206538993267
O        -3.49599920233288    4.79927482915694   -1.38260977897211
O        -2.89158005901148    3.10702700710914    0.50055733241329
O        -2.52224905713261    0.22382127258810    2.49690339911136
C        -0.40094848686130    1.66426354522684    0.07093269814602
C        -0.83855660883841    2.34720621266420   -1.23059572534733
O        -0.67228593661335    3.67780080865722   -1.18389291284772
O        -1.24816619122235    1.79981846676116   -2.21857194093748
N         0.80993975415926    0.89049965859867   -0.18664723928660
C         1.71280313096487    1.02742591577890    0.89821864446389
C         2.72430405535131    2.06258896132999    0.69405349501875
C         3.08884024305420    2.81578395765743   -0.40762404054966
C         4.10534109893076    3.69413997460931    0.01858847955958
C         4.29316706322409    3.41462958103939    1.35029473116925
N         5.17096182422289    3.98500806359892    2.31871974417077
O         5.33031876889790    3.38308909190379    3.36305140811220
O         5.69717428844236    5.04496495731703    2.01652031101166
O         3.47768811139307    2.42830791593049    1.76392408958484
O         1.62551357208682    0.37232048585108    1.91438112280329
H         5.08234179968183   -3.24931980782223   -2.83550834095592
H         4.81984170327033   -1.71185740310243   -4.72120541347090
H         2.98464460294695   -0.04481196290727   -4.70183372889068
H         1.45720443516919    0.09993525177788   -2.83798371875644
H         4.38854519275190   -4.07967080022261   -0.66283074082430
H         2.88537367161239   -3.99982885306645    1.26088035506826
H         1.06124016327157   -2.38743338362400    1.35875315739271
H        -0.08371927816263   -0.41202501246239   -1.49956424904760
H        -0.52915692584546   -0.94843901277324    1.47979958297125
H        -2.30530138526221   -0.45518517856760   -1.78746112702815
H        -3.97260954845976   -1.96814968959221   -2.73782901787571
H        -4.61320234772355   -4.01919547006594   -1.55294722466502
H        -1.09989000655339   -2.55930167608982    2.48332260945603
H        -1.80208449931969   -4.59050585403268    3.56416387594826
H        -3.48913453396600   -6.07407594369431    2.51747910296219
H        -4.44848952790489   -5.48413804315205    0.35001703420001
H        -3.42406996261058    2.77704126177160    3.71069274954060
H        -4.24662140170959    5.15864495304276    2.67738463233639
H        -0.20630056425490    2.44881073403733    0.81460285654507
H        -1.04190613258488    4.02421058767923   -2.02436700650086
H         2.67887828390220    2.73030571059334   -1.39594359600266
H         4.63374013430203    4.43065892865808   -0.55825076101213
70
 energy: -136.199599756840 gnorm: 0.021497844532 xtb: 6.3.3 (4ae9cef)
C         4.26915802370276   -2.50971846090448   -2.81427540112263
C         4.12302764920242   -1.65382817842417   -3.86600647468170
C         3.08693659728513   -0.71180728955196   -3.84292313561561
C         2.22482297452345   -0.63625347166574   -2.78232301619123
C         2.33502175308346   -1.50365885912246   -1.67321933573616
C         3.39575691805046   -2.46059570494606   -1.70701754096139
C         3.56714984521603   -3.35192749564930   -0.62946414788587
C         2.72512449434617   -3.30369574991163    0.44008028207531
C         1.67838001550647   -2.37119281153507    0.47958722025514
C         1.46195420320821   -1.48080241624962   -0.53900131755408
C         0.32815692218135   -0.47546007546031   -0.49676603737603
C        -0.86074678542369   -0.67753072651152    0.47878328974341
C        -1.92457751694222   -1.63014012190734   -0.02480312700249
C        -2.53775246083018   -1.34693643787951   -1.22049168539922
C        -3.50298096024062   -2.19642393281760   -1.77690023811025
C        -3.86526577816869   -3.33884760408294   -1.12745404947776
C        -3.28961852587037   -3.66271958997971    0.11621652237559
C        -2.30735567961728   -2.80015183578869    0.69532070495534
C        -1.79886254098567   -3.17371845978983    1.95824639350274
C        -2.20716215863657   -4.31566425293439    2.58989241607898
C        -3.15814805320578   -5.16220924232831    2.00643598168872
C        -3.69053232763258   -4.83278537503979    0.79530093664938
N        -1.37144020765204    0.70544486721966    0.58704820715767
C        -2.21452689686188    1.00817744961973    1.62181903895763
C        -2.77505709213441    2.38392960670102    1.63187769340564
C        -3.33117544585978    3.09342729642443    2.67688041056793
C        -3.77109152114090    4.31678710272139    2.14653887173307
C        -3.46078508991940    4.26273314399325    0.80790299104015
N        -3.66841273414407    5.19374702399819   -0.24131751489848
O        -4.06466430508996    6.29502847066214    0.06960843436585
O        -3.45648923881372    4.81319788019496   -1.36954525393445
O        -2.86385831431561    3.09944252196156    0.49560270430942
O        -2.54836932894549    0.19926443340815    2.46102385570246
C        -0.40046741310984    1.66301572656183    0.05715825893477
C        -0.84917408795545    2.32376098445568   -1.24944103310653
O        -0.69062508637797    3.64659769791919   -1.19464440298404
O        -1.25930249705049    1.74963243532331   -2.21229613659523
N         0.81226789973602    0.89142433188097   -0.19488424273838
C         1.71888653280911    1.00260068742471    0.90358278361813
C         2.71681180308815    2.06690142789467    0.70555754889001
C         3.07069307942961    2.81738242195577   -0.39839974709805
C         4.08740692029057    3.68769492168889    0.02215440585214
C         4.27889285488166    3.40314918898308    1.35545052020850
N         5.16857861105865    3.97837171603982    2.31175845256315
O         5.32030009776077    3.39608261264968    3.35368768467585
O         5.70014182174671    5.01830519343839    1.99431088930159
O         3.46447405122748    2.42746012314389    1.76371762578241
O         1.66885702296306    0.32134094516798    1.89267792903179
H         5.06276474787982   -3.24286183695557   -2.81769348488269
H         4.79817749973567   -1.70217872557257   -4.70796880640835
H         2.96833424259074   -0.03883311035488   -4.67936052467214
H         1.44545756500924    0.10803669801862   -2.81097297364387
H         4.37365856332256   -4.07003606938420   -0.66381061237619
H         2.86167660053118   -3.98620066609560    1.26493521770932
H         1.04358093132277   -2.37090461657538    1.34851389859215
H        -0.09732823767636   -0.40277294828399   -1.50372827249161
H        -0.51399233185406   -0.96875534845560    1.47338648726273
H        -2.28576260927600   -0.44501681896660   -1.75837361494481
H        -3.95565019832294   -1.94637535746516   -2.72502232386742
H        -4.60264071573456   -4.00562301849423   -1.55091165339257
H        -1.09135718838914   -2.54374771804086    2.47139590827411
H        -1.79766680689539   -4.56872703604443    3.55661208790852
H        -3.47564629393045   -6.05987720047616    2.51665731808131
H        -4.43699853064330   -5.46760052882980    0.34022516859061
H        -3.41088754392616    2.76301905071745    3.69134836792692
H        -4.24208518866193    5.12921838915084    2.66099010699382
H        -0.20373157939752    2.46482237003384    0.78437913857152
H        -1.05432225535765    4.03828801180692   -2.01167321159032
H         2.66339426663800    2.72813400390171   -1.38313870692304
H         4.61666701866238    4.41916035741344   -0.55283372967125
70
 energy: -136.202442183449 gnorm: 0.025097702830 xtb: 6.3.3 (4ae9cef)
C         4.25678748906007   -2.49965083151469   -2.80525274532764
C         4.10786871230912   -1.64329464024773   -3.85452557399479
C         3.07157559002194   -0.69748362745540   -3.82760030434302
C         2.21382128325796   -0.62210499485636   -2.76761500003297
C         2.32812332068257   -1.49617238377059   -1.66412815360548
C         3.38511991076122   -2.45234029301640   -1.69614542351333
C         3.55359815039053   -3.34634091281245   -0.61751387232060
C         2.71029571459614   -3.29906348063124    0.44880878339065
C         1.66229796768420   -2.36566196197086    0.48388599528724
C         1.45303638184042   -1.47849440322058   -0.53474638913729
C         0.32655890331609   -0.47429753296661   -0.50248924241180
C        -0.84725067239419   -0.67893817093727    0.48040671741109
C        -1.91405690080348   -1.62320752882047   -0.02265668332083
C        -2.52643158772421   -1.33082175751275   -1.21280453537404
C        -3.49448663086469   -2.17745169744304   -1.77290495299561
C        -3.85563922180560   -3.32138644141828   -1.12923335492234
C        -3.27943053071148   -3.65129255149736    0.11486760064721
C        -2.29740576850246   -2.79297120502574    0.69519401346251
C        -1.78750360993831   -3.16266608151277    1.95868412575917
C        -2.19736660320673   -4.30044753071229    2.59043935271849
C        -3.14825816160933   -5.15052607415205    2.00542592455300
C        -3.67883505121007   -4.82300715172836    0.79460311491398
N        -1.35411349826252    0.70178048342241    0.59501786449118
C        -2.21105641009481    0.98841212235019    1.61118800470144
C        -2.75430736316357    2.37710673348226    1.62158333693049
C        -3.32007493726049    3.07556268193665    2.66782829705681
C        -3.75987644767351    4.29747132239013    2.13904386966000
C        -3.44256044755059    4.24859132338664    0.80070448366155
N        -3.66968040933595    5.18110950389478   -0.24128592361733
O        -4.07342622449981    6.27539729771492    0.07883036140919
O        -3.36547098055622    4.83748294234161   -1.36850816175584
O        -2.83070986255772    3.09372905782081    0.49229617563770
O        -2.58538517862110    0.17127180355784    2.42670991732894
C        -0.39535224577727    1.66043370294414    0.04918209086861
C        -0.86312596996824    2.29876855280220   -1.26577274775835
O        -0.70957083655155    3.61806039620734   -1.21624968748548
O        -1.27497455608514    1.69852659806950   -2.21356512202563
N         0.81659638137632    0.88920920704645   -0.19938451006294
C         1.72422343014015    0.97879344600062    0.90356657672332
C         2.70391665981978    2.06708048035093    0.71631310702435
C         3.04854723901115    2.81783574946509   -0.39045493186237
C         4.06838708426855    3.68425573564630    0.02549281030129
C         4.26546081355181    3.39611126016386    1.35885315263939
N         5.16627036486068    3.97605638474771    2.30480806536081
O         5.31300455134414    3.40773413378394    3.35505327223518
O         5.71613324000310    4.99828450716891    1.96178491374317
O         3.45505484174775    2.42139576604223    1.76702230435433
O         1.71466964761618    0.25309923540174    1.86427278439815
H         5.04659750136159   -3.23658979440776   -2.80287554571812
H         4.77643748311378   -1.68871288373765   -4.70056904194698
H         2.95454657002700   -0.02449982814100   -4.66364204411045
H         1.43380746163829    0.12202827561251   -2.78249220847933
H         4.36174607014365   -4.06139687290786   -0.66039814013511
H         2.83820271239143   -3.97887936437104    1.27649457609525
H         1.02231746510410   -2.36709369346815    1.34831178291016
H        -0.10561273436598   -0.40024575350426   -1.50609145939139
H        -0.49434312347032   -0.97719611081456    1.46976195756192
H        -2.27368899624664   -0.42566267825431   -1.74322338567183
H        -3.94416613867488   -1.91772621336238   -2.71909982015813
H        -4.59232076845396   -3.99048886566785   -1.54968242994032
H        -1.08069686310396   -2.52703677168283    2.46550315173270
H        -1.79190615739886   -4.55308582628752    3.55854731376381
H        -3.46090571811102   -6.04691680928160    2.51915912806850
H        -4.42486214040801   -5.45203715459788    0.33056923992972
H        -3.40434651078043    2.74068221912197    3.67948900697778
H        -4.24356433985075    5.10452823153647    2.64855875246032
H        -0.19791302866301    2.47576937671425    0.76097681228067
H        -1.07800360869087    4.03561064298031   -2.01639783787738
H         2.63649542440138    2.72790531511550   -1.37252501140150
H         4.59718186910651    4.41510538448916   -0.54940049775195
70
 energy: -136.204362424822 gnorm: 0.032204737614 xtb: 6.3.3 (4ae9cef)
C         4.24424667135258   -2.48847958194168   -2.79530307580598
C         4.09102891930320   -1.62866114678478   -3.84258437302534
C         3.05703241120399   -0.67837140523172   -3.81143080547709
C         2.20310256728306   -0.60534640177883   -2.74868052073398
C         2.32217024338729   -1.49073394935614   -1.65377452384999
C         3.37432905533092   -2.44500085899490   -1.68486440807810
C         3.54035064820850   -3.34207558960128   -0.60668375977126
C         2.69349646333509   -3.30041102133159    0.45806749229683
C         1.64312566140711   -2.36967761632787    0.48903828788045
C         1.44317100974898   -1.48139972746196   -0.53138400195750
C         0.32611757348570   -0.47710447381402   -0.50490897162630
C        -0.83255210985626   -0.67885630700098    0.48418219412242
C        -1.90367955766506   -1.61375492041778   -0.01846793034749
C        -2.51769647502171   -1.30972431155787   -1.20646810658695
C        -3.48682542676048   -2.15318413930955   -1.76946675406176
C        -3.84422181323490   -3.30164147540546   -1.12997152291757
C        -3.26665078489023   -3.63734271248281    0.11340027913097
C        -2.28645986959003   -2.78425298449834    0.69545203316877
C        -1.77450459920405   -3.14967198337739    1.96009836585600
C        -2.18598554452292   -4.28597823932963    2.59334183621039
C        -3.13537187956863   -5.13716744564379    2.00470644972002
C        -3.66445380667858   -4.81082847608464    0.79180343991750
N        -1.33178220985923    0.69929292533170    0.60881774986851
C        -2.21203106753269    0.96852189481087    1.59955118185547
C        -2.73617361567282    2.36687634459267    1.61296138802926
C        -3.31593735915557    3.05517627750508    2.65780528528571
C        -3.75303829209815    4.27715363860185    2.12738618978400
C        -3.40653022614213    4.23985803008455    0.79324065392364
N        -3.60177438845361    5.18915521534013   -0.23752646249029
O        -4.11819550218688    6.24839060138571    0.08658643372862
O        -3.28216317874499    4.86241627882007   -1.36612231452988
O        -2.79606493175349    3.08414944776416    0.48799455992580
O        -2.63085572748116    0.14169658441355    2.38657530053760
C        -0.38536946029666    1.65604061594620    0.04118282717561
C        -0.87576129507242    2.26912765923918   -1.28501177161135
O        -0.72878264313443    3.58491377026005   -1.24768922982791
O        -1.29703715017375    1.64090948583415   -2.21405950503070
N         0.82367606511966    0.88195416816423   -0.20091378331171
C         1.73331783661869    0.94914007067017    0.89958532190289
C         2.68499693783672    2.06729306201473    0.73088824676246
C         3.02002700656983    2.81799391450299   -0.37993531242256
C         4.04335913603194    3.68320028498473    0.03021106417079
C         4.25080024086022    3.39069825877980    1.36219275173311
N         5.16955415351030    3.97191783136777    2.29272555352435
O         5.29824570130412    3.42820269197230    3.36322571497638
O         5.74144623585450    4.97512681170806    1.91835915445126
O         3.44273534513219    2.41692795793575    1.77495082871301
O         1.76946647518436    0.17289697710382    1.82508573382101
H         5.03166014951942   -3.22839410653229   -2.79036014243827
H         4.75256181245469   -1.67047747925352   -4.69398445597489
H         2.94147039381936   -0.00314718692058   -4.64612673359139
H         1.42321050318098    0.14032633695527   -2.74836752225671
H         4.35167118794856   -4.05308944201546   -0.65537588996808
H         2.81391028507568   -3.97689581781007    1.28955847619685
H         0.99751712282978   -2.37498676867914    1.34932464424258
H        -0.11265704268267   -0.40274166692127   -1.50533984460575
H        -0.47110341566903   -0.98223475906539    1.46740735411820
H        -2.26459126568507   -0.40035281089541   -1.72972735172251
H        -3.93454468335871   -1.88229496721772   -2.71332942211028
H        -4.58048630187108   -3.97227025200058   -1.54920259000333
H        -1.06926932046430   -2.50835510679363    2.46273746461314
H        -1.78527817872608   -4.53817048311152    3.56376522871236
H        -3.44378149606783   -6.03281531026728    2.52188592931015
H        -4.40967160493164   -5.43619752205879    0.32010642930745
H        -3.40427921219404    2.71472194344448    3.66765743278658
H        -4.24589180881203    5.08249904690163    2.63105672820145
H        -0.18661733727503    2.48682177408641    0.73313656019588
H        -1.11931212393360    4.02629997359036   -2.02435477924101
H         2.59862446436499    2.72809878212437   -1.35859017279286
H         4.57096042915928    4.41428979103782   -0.54604252798883
70
 energy: -136.205666459506 gnorm: 0.017883604920 xtb: 6.3.3 (4ae9cef)
C         4.24213272362283   -2.48304783369446   -2.79288020136629
C         4.08566101495874   -1.61805840838416   -3.83736075335152
C         3.05510532991275   -0.66557457008005   -3.80211745394972
C         2.20213704927048   -0.59750679194583   -2.73627619601065
C         2.32135721249961   -1.49314167407360   -1.64869702487977
C         3.37300600602848   -2.44528537496110   -1.68194919259281
C         3.53915191211281   -3.34450336210262   -0.60630927637257
C         2.68801602647156   -3.31186380592406    0.45758295538114
C         1.63327308377448   -2.38841007111156    0.48758449037936
C         1.43814561221806   -1.49329716990181   -0.53109560639658
C         0.32676278885861   -0.48536082769749   -0.50055725454377
C        -0.82884265946819   -0.67738900290059    0.48900839612335
C        -1.90272265658160   -1.60764365878827   -0.01368898015394
C        -2.51924779280303   -1.29845750759484   -1.20240172814328
C        -3.48656354601936   -2.14062912975378   -1.76620641612049
C        -3.83935382617329   -3.29350128554426   -1.12844825027511
C        -3.26062451316418   -3.63122014182528    0.11320099477456
C        -2.28298498914605   -2.77927391490231    0.69729648339462
C        -1.77009335084061   -3.14363906586868    1.96247530464326
C        -2.18027052673765   -4.28249482371347    2.59542180784543
C        -3.12703840494761   -5.13237993698362    2.00340852189465
C        -3.65649623933313   -4.80600089725411    0.78906424288044
N        -1.32102951623751    0.70073348029394    0.61727123630786
C        -2.22085298884818    0.96494587167773    1.59100466178576
C        -2.73789425134766    2.36254945242930    1.61087418249652
C        -3.32103915264415    3.04976339262202    2.65440747391359
C        -3.74785000216022    4.27672210858608    2.12469347972242
C        -3.40213096316412    4.23887021321431    0.79075422926140
N        -3.59013146567153    5.18923725291876   -0.23762861427879
O        -4.09093738010989    6.24755148911798    0.08365912581688
O        -3.22843562440954    4.88064649718642   -1.36235005670239
O        -2.79484080644307    3.08020301805374    0.48511920425496
O        -2.64610279671162    0.13753411628967    2.36857462170696
C        -0.37604485610583    1.65154522798727    0.03721565791060
C        -0.87569006456637    2.25320113554822   -1.29467199197036
O        -0.73520712025381    3.56834072548617   -1.26903709851127
O        -1.30919785133084    1.61712526607056   -2.21243036727190
N         0.82963197371127    0.87113758963079   -0.19744823499557
C         1.74251769823133    0.93312519802734    0.89312120142108
C         2.67431795678913    2.06701584037876    0.73906449164437
C         3.00319624337690    2.81927217693832   -0.37307847167898
C         4.02668447856190    3.68768968144652    0.03325183180909
C         4.24256375430849    3.39413391273784    1.36330419443090
N         5.16941406738242    3.97373640394338    2.28520291411001
O         5.28962217695048    3.44345847761249    3.36557910242287
O         5.75908711360359    4.96260520813439    1.89425627621869
O         3.43516020794096    2.41969232231511    1.78211865941078
O         1.78979036576476    0.15063523579905    1.80441590130674
H         5.03083295014308   -3.22172725638103   -2.79317060988900
H         4.74487078949154   -1.65677325658674   -4.69130088738461
H         2.93958351453595    0.01440561332148   -4.63365232602795
H         1.42413219796733    0.15044626944467   -2.73022400484202
H         4.35324363549614   -4.05267176108509   -0.65302698150800
H         2.80830208629281   -3.98827990371567    1.28951204555294
H         0.98533957842390   -2.39899165320299    1.34630918104039
H        -0.11320689845817   -0.41168228629659   -1.50034622988648
H        -0.46302238621332   -0.98040595574037    1.47002719499192
H        -2.26692461050732   -0.38724559024960   -1.72364605377187
H        -3.93572931730345   -1.86508688043753   -2.70844011609994
H        -4.57526212228862   -3.96312091144876   -1.55028799671911
H        -1.06687470622597   -2.50141561844236    2.46716198884892
H        -1.78157038754871   -4.53414183201838    3.56728396061719
H        -3.43505405505932   -6.02847068282776    2.52081255282617
H        -4.39969710815435   -5.43379725897319    0.31726830735205
H        -3.41373367691358    2.70317586719055    3.66272966531179
H        -4.24435077232926    5.08179040843835    2.62596055368640
H        -0.17565187568143    2.48941702366978    0.71830974501124
H        -1.15327301903562    4.00971428171970   -2.03210428017943
H         2.57251298985934    2.73104039451268   -1.34866886210811
H         4.55042174237801    4.42102894966730   -0.54480132052520
70
 energy: -136.206801627641 gnorm: 0.017800179346 xtb: 6.3.3 (4ae9cef)
C         4.24418770098654   -2.47740741283336   -2.79207205299666
C         4.08471622810330   -1.60387251343883   -3.83022448624872
C         3.05857418539094   -0.64926142581517   -3.78785293147736
C         2.20581680366531   -0.58965259118781   -2.71946391543871
C         2.32286477028725   -1.49836468388997   -1.64174262977902
C         3.37530903719826   -2.44924940618183   -1.68078324742104
C         3.54122713349700   -3.35305639536322   -0.61073175886028
C         2.68260765602248   -3.33493167913047    0.44976414357118
C         1.62274240446469   -2.41995517507289    0.48137812164102
C         1.43404924092896   -1.51097369984890   -0.52959810097118
C         0.32758396189268   -0.49660281542140   -0.49336500749081
C        -0.82747693256861   -0.67635442616908    0.49757103044868
C        -1.90608726745318   -1.60075644202446   -0.00401221412794
C        -2.52561021117057   -1.28739940069337   -1.19262613743937
C        -3.49042333210857   -2.12809697480796   -1.75747523119166
C        -3.83708616606614   -3.28665926309276   -1.12332366395304
C        -3.25662048890616   -3.62686267005605    0.11531124066214
C        -2.28259266759025   -2.77405872665899    0.70296601811842
C        -1.76938881785016   -3.13805995932719    1.96839076223117
C        -2.17610282934267   -4.28116151572541    2.59896469636952