      -----------------------------------------------------------      
     |                   =====================                   |     
     |                           x T B                           |     
     |                   =====================                   |     
     |                         S. Grimme                         |     
     |          Mulliken Center for Theoretical Chemistry        |     
     |                    University of Bonn                     |     
      -----------------------------------------------------------      

   * xtb version 6.3.3 (4ae9cef) compiled by 'conda@95abc7406d43' on 2020-10-14

   xtb is free software: you can redistribute it and/or modify it under
   the terms of the GNU Lesser General Public License as published by
   the Free Software Foundation, either version 3 of the License, or
   (at your option) any later version.
   
   xtb is distributed in the hope that it will be useful,
   but WITHOUT ANY WARRANTY; without even the implied warranty of
   MERCHANTABILITY or FITNESS FOR A PARTICULAR PURPOSE.  See the
   GNU Lesser General Public License for more details.
   
   Cite this work as:
   * C. Bannwarth, E. Caldeweyher, S. Ehlert, A. Hansen, P. Pracht,
     J. Seibert, S. Spicher, S. Grimme, WIREs Comput. Mol. Sci., 2020,
     e01493. DOI: 10.1002/wcms.1493
   
   for GFN2-xTB:
   * S. Grimme, C. Bannwarth, P. Shushkov, J. Chem. Theory Comput., 2017,
     13, 1989-2009. DOI: 10.1021/acs.jctc.7b00118
   for GFN1-xTB:
   * C. Bannwarth, S. Ehlert and S. Grimme., J. Chem. Theory Comput., 2019,
     15, 1652-1671. DOI: 10.1021/acs.jctc.8b01176
   for GFN0-xTB:
   * P. Pracht, E. Caldeweyher, S. Ehlert, S. Grimme, ChemRxiv, 2019, preprint.
     DOI: 10.26434/chemrxiv.8326202.v1
   for GFN-FF:
   * S. Spicher and S. Grimme, Angew. Chem. Int. Ed., 2020, 59, 15665-15673.
     DOI: 10.1002/anie.202004239
   
   for DFT-D4:
   * E. Caldeweyher, C. Bannwarth and S. Grimme, J. Chem. Phys., 2017,
     147, 034112. DOI: 10.1063/1.4993215
   * E. Caldeweyher, S. Ehlert, A. Hansen, H. Neugebauer, S. Spicher,
     C. Bannwarth and S. Grimme, J. Chem. Phys., 2019, 150, 154122.
     DOI: 10.1063/1.5090222
   * E. Caldeweyher, J.-M. Mewes, S. Ehlert and S. Grimme, Phys. Chem. Chem. Phys.
     2020, 22, 8499-8512. DOI: 10.1039/D0CP00502A
   
   for sTDA-xTB:
   * S. Grimme and C. Bannwarth, J. Chem. Phys., 2016, 145, 054103.
     DOI: 10.1063/1.4959605
   
   in the mass-spec context:
   * V. Asgeirsson, C. Bauer and S. Grimme, Chem. Sci., 2017, 8, 4879.
     DOI: 10.1039/c7sc00601b
   * J. Koopman and S. Grimme, ACS Omega 2019, 4, 12, 15120-15133.
     DOI: 10.1021/acsomega.9b02011
   
   for metadynamics refer to:
   * S. Grimme, J. Chem. Theory Comput., 2019, 155, 2847-2862
     DOI: 10.1021/acs.jctc.9b00143
   
   with help from (in alphabetical order)
   C. Bannwarth, F. Bohle, G. Brandenburg, E. Caldeweyher, M. Checinski,
   S. Dohm, S. Ehlert, S. Ehrlich, F. März, H. Neugebauer, J. Pisarek,
   P. Pracht, P. Shushkov, and S. Spicher.
   
 * started run on 2022/03/17 at 01:38:25.235     

           -------------------------------------------------
          |                Calculation Setup                |
           -------------------------------------------------

          program call               : xtb acid_477.xyz --opt --chrg 0 --uhf 0 --gfn 2
          coordinate file            : acid_477.xyz
          omp threads                :                    64
          number of atoms            :                    62
          number of electrons        :                   234
          charge                     :                     0
          spin                       :                   0.0
          first test random number   :      0.11186948595319

   ID    Z sym.   atoms
    1    6 C      1, 2, 6-15, 19-22, 24-29, 33, 34, 38-43
    2    9 F      3-5, 16-18
    3    7 N      23, 30, 37, 44
    4    8 O      31, 32, 35, 36, 45, 46
    5    1 H      47-62

           -------------------------------------------------
          |                 G F N 2 - x T B                 |
           -------------------------------------------------

        Reference                      10.1021/acs.jctc.8b01176
      * Hamiltonian:
        H0-scaling (s, p, d)           1.850000    2.230000    2.230000
        zeta-weighting                 0.500000
      * Dispersion:
        s8                             2.700000
        a1                             0.520000
        a2                             5.000000
        s9                             5.000000
      * Repulsion:
        kExp                           1.500000    1.000000
        rExp                           1.000000
      * Coulomb:
        alpha                          2.000000
        third order                    shell-resolved
        anisotropic                    true
        a3                             3.000000
        a5                             4.000000
        cn-shift                       1.200000
        cn-exp                         4.000000
        max-rad                        5.000000


          ...................................................
          :                      SETUP                      :
          :.................................................:
          :  # basis functions                 200          :
          :  # atomic orbitals                 200          :
          :  # shells                          108          :
          :  # electrons                       234          :
          :  max. iterations                   250          :
          :  Hamiltonian                  GFN2-xTB          :
          :  restarted?                      false          :
          :  GBSA solvation                  false          :
          :  PC potential                    false          :
          :  electronic temp.          300.0000000     K    :
          :  accuracy                    1.0000000          :
          :  -> integral cutoff          0.2500000E+02      :
          :  -> integral neglect         0.1000000E-07      :
          :  -> SCF convergence          0.1000000E-05 Eh   :
          :  -> wf. convergence          0.1000000E-03 e    :
          :  Broyden damping             0.4000000          :
          ...................................................

 iter      E             dE          RMSdq      gap      omega  full diag
   1   -138.0009302 -0.138001E+03  0.548E+00    2.29       0.0  T
   2   -138.1966561 -0.195726E+00  0.334E+00    2.37       1.0  T
   3   -138.1559220  0.407341E-01  0.216E+00    2.20       1.0  T
   4   -138.2558375 -0.999155E-01  0.816E-01    2.12       1.0  T
   5   -138.2872932 -0.314557E-01  0.146E-01    2.11       1.0  T
   6   -138.2876441 -0.350955E-03  0.783E-02    2.13       1.0  T
   7   -138.2878045 -0.160408E-03  0.284E-02    2.13       1.0  T
   8   -138.2878109 -0.631932E-05  0.142E-02    2.13       1.0  T
   9   -138.2878169 -0.606976E-05  0.597E-03    2.13       2.1  T
  10   -138.2878176 -0.627532E-06  0.345E-03    2.13       3.7  T
  11   -138.2878179 -0.374513E-06  0.104E-03    2.13      12.2  T
  12   -138.2878180 -0.268023E-07  0.496E-04    2.13      25.6  T
  13   -138.2878180 -0.594039E-08  0.236E-04    2.13      53.9  T

   *** convergence criteria satisfied after 13 iterations ***

         #    Occupation            Energy/Eh            Energy/eV
      -------------------------------------------------------------
         1        2.0000           -0.8865435             -24.1241
       ...           ...                  ...                  ...
       111        2.0000           -0.4456235             -12.1260
       112        2.0000           -0.4431819             -12.0596
       113        2.0000           -0.4417256             -12.0200
       114        2.0000           -0.4280097             -11.6467
       115        2.0000           -0.4206984             -11.4478
       116        2.0000           -0.4143927             -11.2762
       117        2.0000           -0.4117719             -11.2049 (HOMO)
       118                         -0.3334276              -9.0730 (LUMO)
       119                         -0.2998996              -8.1607
       120                         -0.2917666              -7.9394
       121                         -0.2863116              -7.7909
       122                         -0.2806676              -7.6374
       ...                                ...                  ...
       200                          1.0785643              29.3492
      -------------------------------------------------------------
                  HL-Gap            0.0783443 Eh            2.1319 eV
             Fermi-level           -0.3725998 Eh          -10.1390 eV

 SCC (total)                   0 d,  0 h,  0 min,  0.543 sec
 SCC setup                      ...        0 min,  0.022 sec (  4.055%)
 Dispersion                     ...        0 min,  0.017 sec (  3.108%)
 classical contributions        ...        0 min,  0.013 sec (  2.341%)
 integral evaluation            ...        0 min,  0.085 sec ( 15.586%)
 iterations                     ...        0 min,  0.263 sec ( 48.492%)
 molecular gradient             ...        0 min,  0.141 sec ( 25.931%)
 printout                       ...        0 min,  0.003 sec (  0.470%)

         :::::::::::::::::::::::::::::::::::::::::::::::::::::
         ::                     SUMMARY                     ::
         :::::::::::::::::::::::::::::::::::::::::::::::::::::
         :: total energy            -136.809268255197 Eh    ::
         :: gradient norm              0.136159381198 Eh/a0 ::
         :: HOMO-LUMO gap              2.131856530157 eV    ::
         ::.................................................::
         :: SCC energy              -138.287817969546 Eh    ::
         :: -> isotropic ES            0.228711195418 Eh    ::
         :: -> anisotropic ES          0.001275084660 Eh    ::
         :: -> anisotropic XC          0.028051434251 Eh    ::
         :: -> dispersion             -0.089587349003 Eh    ::
         :: repulsion energy           1.475620111276 Eh    ::
         :: add. restraining           0.000000000000 Eh    ::
         :: total charge              -0.000000000000 e     ::
         :::::::::::::::::::::::::::::::::::::::::::::::::::::

      ----------------------------------------------------------- 
     |                   =====================                   |
     |                        A N C O P T                        |
     |                   =====================                   |
     |               Approximate Normal Coordinate               |
     |                Rational Function Optimizer                |
      ----------------------------------------------------------- 

          ...................................................
          :                      SETUP                      :
          :.................................................:
          :   optimization level            normal          :
          :   max. optcycles                   200          :
          :   ANC micro-cycles                  20          :
          :   degrees of freedom               180          :
          :.................................................:
          :   RF solver                   davidson          :
          :   write xtbopt.log                true          :
          :   linear?                        false          :
          :   energy convergence         0.5000000E-05 Eh   :
          :   grad. convergence          0.1000000E-02 Eh/α :
          :   maximium RF displ.         1.0000000          :
          :   Hlow (freq-cutoff)         0.1000000E-01      :
          :   Hmax (freq-cutoff)         5.0000000          :
          :   S6 in model hess.         20.0000000          :
          ...................................................

generating ANC from model Hessian ...
Using Lindh-Hessian (1995)
 Shifting diagonal of input Hessian by    9.8158379465214211E-003
 Lowest  eigenvalues of input Hessian
    0.000000    0.000000    0.000000    0.000000    0.000000    0.000000
    0.010000    0.010148    0.010201    0.010375    0.010411    0.010563
    0.010749    0.010826    0.011048    0.011234    0.011553    0.012149
 Highest eigenvalues
    1.987738    2.209417    2.256381    2.264074    2.574320    2.577132


........................................................................
.............................. CYCLE    1 ..............................
........................................................................
   1   -138.2878180 -0.138288E+03  0.783E-05    2.13       0.0  T
   2   -138.2878180 -0.792966E-10  0.508E-05    2.13     250.1  T
   3   -138.2878180 -0.669331E-10  0.315E-05    2.13     403.3  T
     SCC iter.                  ...        0 min,  0.063 sec
     gradient                   ...        0 min,  0.136 sec
 * total energy  :  -136.8092683 Eh     change       -0.1236089E-08 Eh
   gradient norm :     0.1361619 Eh/α   predicted     0.0000000E+00 (-100.00%)
   displ. norm   :     0.4266160 α      lambda       -0.2788030E-01
   maximum displ.:     0.1085879 α      in ANC's #37, #40, #32, ...

........................................................................
.............................. CYCLE    2 ..............................
........................................................................
   1   -138.3933280 -0.138393E+03  0.223E-01    2.24       0.0  T
   2   -138.3935639 -0.235847E-03  0.134E-01    2.22       1.0  T
   3   -138.3934568  0.107086E-03  0.779E-02    2.21       1.0  T
   4   -138.3936489 -0.192120E-03  0.203E-02    2.21       1.0  T
   5   -138.3936683 -0.193407E-04  0.557E-03    2.21       2.3  T
   6   -138.3936692 -0.891489E-06  0.323E-03    2.21       3.9  T
   7   -138.3936694 -0.235695E-06  0.147E-03    2.21       8.7  T
   8   -138.3936694 -0.395702E-07  0.475E-04    2.21      26.7  T
   9   -138.3936694 -0.582091E-08  0.207E-04    2.21      61.3  T
     SCC iter.                  ...        0 min,  0.179 sec
     gradient                   ...        0 min,  0.131 sec
 * total energy  :  -136.8280340 Eh     change       -0.1876575E-01 Eh
   gradient norm :     0.0575937 Eh/α   predicted    -0.1647728E-01 ( -12.19%)
   displ. norm   :     0.4344187 α      lambda       -0.1060450E-01
   maximum displ.:     0.1440054 α      in ANC's #37, #32, #21, ...

........................................................................
.............................. CYCLE    3 ..............................
........................................................................
   1   -138.4440522 -0.138444E+03  0.182E-01    2.28       0.0  T
   2   -138.4442304 -0.178267E-03  0.111E-01    2.29       1.0  T
   3   -138.4441703  0.601378E-04  0.624E-02    2.27       1.0  T
   4   -138.4443070 -0.136685E-03  0.140E-02    2.28       1.0  T
   5   -138.4443159 -0.896687E-05  0.455E-03    2.28       2.8  T
   6   -138.4443164 -0.469169E-06  0.241E-03    2.28       5.3  T
   7   -138.4443165 -0.968177E-07  0.124E-03    2.28      10.2  T
   8   -138.4443165 -0.380693E-07  0.441E-04    2.28      28.8  T
   9   -138.4443165 -0.602174E-08  0.190E-04    2.28      66.8  T
     SCC iter.                  ...        0 min,  0.178 sec
     gradient                   ...        0 min,  0.136 sec
 * total energy  :  -136.8343808 Eh     change       -0.6346786E-02 Eh
   gradient norm :     0.0220231 Eh/α   predicted    -0.6302897E-02 (  -0.69%)
   displ. norm   :     0.3271609 α      lambda       -0.2783695E-02
   maximum displ.:     0.1155850 α      in ANC's #21, #27, #37, ...

........................................................................
.............................. CYCLE    4 ..............................
........................................................................
   1   -138.4485326 -0.138449E+03  0.121E-01    2.30       0.0  T
   2   -138.4485798 -0.472568E-04  0.727E-02    2.32       1.0  T
   3   -138.4485361  0.437288E-04  0.349E-02    2.31       1.0  T
   4   -138.4485970 -0.608936E-04  0.841E-03    2.31       1.5  T
   5   -138.4486004 -0.334402E-05  0.319E-03    2.31       4.0  T
   6   -138.4486005 -0.168721E-06  0.175E-03    2.31       7.3  T
   7   -138.4486006 -0.625882E-07  0.722E-04    2.31      17.6  T
   8   -138.4486006 -0.146952E-07  0.259E-04    2.31      49.0  T
     SCC iter.                  ...        0 min,  0.158 sec
     gradient                   ...        0 min,  0.135 sec
 * total energy  :  -136.8361388 Eh     change       -0.1757988E-02 Eh
   gradient norm :     0.0130083 Eh/α   predicted    -0.1540822E-02 ( -12.35%)
   displ. norm   :     0.2996520 α      lambda       -0.1253275E-02
   maximum displ.:     0.1165051 α      in ANC's #9, #21, #7, ...

........................................................................
.............................. CYCLE    5 ..............................
........................................................................
   1   -138.4497462 -0.138450E+03  0.912E-02    2.32       0.0  T
   2   -138.4497683 -0.220566E-04  0.546E-02    2.34       1.0  T
   3   -138.4497451  0.232344E-04  0.237E-02    2.34       1.0  T
   4   -138.4497736 -0.285373E-04  0.661E-03    2.34       1.9  T
   5   -138.4497758 -0.218382E-05  0.209E-03    2.34       6.1  T
   6   -138.4497759 -0.720159E-07  0.123E-03    2.34      10.3  T
   7   -138.4497759 -0.287733E-07  0.468E-04    2.34      27.1  T
   8   -138.4497759 -0.660583E-08  0.184E-04    2.34      69.2  T
     SCC iter.                  ...        0 min,  0.158 sec
     gradient                   ...        0 min,  0.136 sec
 * total energy  :  -136.8369631 Eh     change       -0.8243662E-03 Eh
   gradient norm :     0.0111276 Eh/α   predicted    -0.6829239E-03 ( -17.16%)
   displ. norm   :     0.3306161 α      lambda       -0.8209149E-03
   maximum displ.:     0.1503426 α      in ANC's #9, #7, #11, ...

........................................................................
.............................. CYCLE    6 ..............................
........................................................................
   1   -138.4434009 -0.138443E+03  0.180E-01    2.35       0.0  T
   2   -138.4434373 -0.363358E-04  0.100E-01    2.36       1.0  T
   3   -138.4434172  0.200920E-04  0.225E-02    2.36       1.0  T
   4   -138.4434467 -0.295116E-04  0.736E-03    2.37       1.7  T
   5   -138.4434489 -0.224257E-05  0.297E-03    2.37       4.3  T
   6   -138.4434490 -0.750487E-07  0.155E-03    2.37       8.2  T
   7   -138.4434491 -0.811159E-07  0.398E-04    2.37      31.9  T
   8   -138.4434491 -0.353589E-08  0.203E-04    2.37      62.7  T
     SCC iter.                  ...        0 min,  0.168 sec
     gradient                   ...        0 min,  0.152 sec
 * total energy  :  -136.8373144 Eh     change       -0.3512313E-03 Eh
   gradient norm :     0.0181091 Eh/α   predicted    -0.4553244E-03 (  29.64%)
   displ. norm   :     0.3612440 α      lambda       -0.1052596E-02
   maximum displ.:     0.1861840 α      in ANC's #9, #2, #7, ...

........................................................................
.............................. CYCLE    7 ..............................
........................................................................
   1   -138.4472498 -0.138447E+03  0.161E-01    2.37       0.0  T
   2   -138.4472803 -0.304409E-04  0.903E-02    2.39       1.0  T
   3   -138.4472696  0.106545E-04  0.178E-02    2.39       1.0  T
   4   -138.4472858 -0.162327E-04  0.619E-03    2.39       2.1  T
   5   -138.4472875 -0.169997E-05  0.258E-03    2.39       4.9  T
   6   -138.4472876 -0.446761E-07  0.152E-03    2.39       8.4  T
   7   -138.4472877 -0.767191E-07  0.396E-04    2.39      32.1  T
   8   -138.4472877 -0.380149E-08  0.189E-04    2.39      67.0  T
     SCC iter.                  ...        0 min,  0.167 sec
     gradient                   ...        0 min,  0.136 sec
 * total energy  :  -136.8378131 Eh     change       -0.4987062E-03 Eh
   gradient norm :     0.0129291 Eh/α   predicted    -0.5949820E-03 (  19.31%)
   displ. norm   :     0.2137518 α      lambda       -0.5575499E-03
   maximum displ.:     0.1007845 α      in ANC's #9, #2, #7, ...

........................................................................
.............................. CYCLE    8 ..............................
........................................................................
   1   -138.4523386 -0.138452E+03  0.728E-02    2.41       0.0  T
   2   -138.4523441 -0.547786E-05  0.415E-02    2.42       1.0  T
   3   -138.4523372  0.689692E-05  0.111E-02    2.42       1.1  T
   4   -138.4523464 -0.913868E-05  0.217E-03    2.42       5.9  T
   5   -138.4523465 -0.101736E-06  0.114E-03    2.42      11.1  T
   6   -138.4523465 -0.153608E-07  0.527E-04    2.42      24.1  T
   7   -138.4523465 -0.752959E-08  0.215E-04    2.42      59.0  T
     SCC iter.                  ...        0 min,  0.140 sec
     gradient                   ...        0 min,  0.136 sec
 * total energy  :  -136.8382322 Eh     change       -0.4191152E-03 Eh
   gradient norm :     0.0145698 Eh/α   predicted    -0.2915258E-03 ( -30.44%)
   displ. norm   :     0.5539209 α      lambda       -0.1328979E-02
   maximum displ.:     0.2700870 α      in ANC's #9, #2, #7, ...

........................................................................
.............................. CYCLE    9 ..............................
........................................................................
   1   -138.4541092 -0.138454E+03  0.162E-01    2.43       0.0  T
   2   -138.4541382 -0.290674E-04  0.932E-02    2.45       1.0  T
   3   -138.4540963  0.419017E-04  0.288E-02    2.46       1.0  T
   4   -138.4541490 -0.527089E-04  0.542E-03    2.46       2.3  T
   5   -138.4541498 -0.774104E-06  0.269E-03    2.46       4.7  T
   6   -138.4541499 -0.763496E-07  0.153E-03    2.46       8.3  T
   7   -138.4541500 -0.711587E-07  0.549E-04    2.46      23.1  T
   8   -138.4541500 -0.830934E-08  0.235E-04    2.46      54.1  T
     SCC iter.                  ...        0 min,  0.163 sec
     gradient                   ...        0 min,  0.122 sec
 * total energy  :  -136.8389587 Eh     change       -0.7264687E-03 Eh
   gradient norm :     0.0139778 Eh/α   predicted    -0.8683733E-03 (  19.53%)
   displ. norm   :     0.5758462 α      lambda       -0.9684854E-03
   maximum displ.:     0.2836403 α      in ANC's #9, #2, #7, ...

........................................................................
.............................. CYCLE   10 ..............................
........................................................................
   1   -138.4495176 -0.138450E+03  0.152E-01    2.45       0.0  T
   2   -138.4496147 -0.971183E-04  0.875E-02    2.50       1.0  T
   3   -138.4495887  0.260311E-04  0.321E-02    2.50       1.0  T
   4   -138.4496227 -0.339931E-04  0.102E-02    2.51       1.2  T
   5   -138.4496291 -0.644108E-05  0.285E-03    2.51       4.5  T
   6   -138.4496293 -0.168982E-06  0.176E-03    2.51       7.2  T
   7   -138.4496294 -0.632621E-07  0.669E-04    2.51      19.0  T
   8   -138.4496294 -0.111081E-07  0.274E-04    2.51      46.4  T
     SCC iter.                  ...        0 min,  0.159 sec
     gradient                   ...        0 min,  0.160 sec
 * total energy  :  -136.8396319 Eh     change       -0.6732099E-03 Eh
   gradient norm :     0.0199726 Eh/α   predicted    -0.6448191E-03 (  -4.22%)
   displ. norm   :     0.4967486 α      lambda       -0.9944157E-03
   maximum displ.:     0.2694972 α      in ANC's #2, #9, #7, ...

........................................................................
.............................. CYCLE   11 ..............................
........................................................................
   1   -138.4476449 -0.138448E+03  0.119E-01    2.55       0.0  T
   2   -138.4476655 -0.205880E-04  0.704E-02    2.56       1.0  T
   3   -138.4476264  0.390667E-04  0.267E-02    2.57       1.0  T
   4   -138.4476737 -0.473622E-04  0.452E-03    2.57       2.8  T
   5   -138.4476745 -0.737553E-06  0.225E-03    2.57       5.6  T
   6   -138.4476746 -0.797325E-07  0.125E-03    2.57      10.1  T
   7   -138.4476746 -0.431463E-07  0.483E-04    2.57      26.3  T
   8   -138.4476746 -0.469410E-08  0.191E-04    2.57      66.6  T
     SCC iter.                  ...        0 min,  0.159 sec
     gradient                   ...        0 min,  0.136 sec
 * total energy  :  -136.8403659 Eh     change       -0.7340345E-03 Eh
   gradient norm :     0.0134656 Eh/α   predicted    -0.6199020E-03 ( -15.55%)
   displ. norm   :     0.5942198 α      lambda       -0.9521025E-03
   maximum displ.:     0.3438667 α      in ANC's #2, #9, #7, ...

........................................................................
.............................. CYCLE   12 ..............................
........................................................................
   1   -138.4460527 -0.138446E+03  0.145E-01    2.58       0.0  T
   2   -138.4460935 -0.408085E-04  0.843E-02    2.60       1.0  T
   3   -138.4460561  0.374390E-04  0.298E-02    2.61       1.0  T
   4   -138.4461031 -0.469763E-04  0.655E-03    2.61       1.9  T
   5   -138.4461053 -0.224243E-05  0.231E-03    2.61       5.5  T
   6   -138.4461054 -0.402126E-07  0.134E-03    2.61       9.5  T
   7   -138.4461054 -0.409778E-07  0.550E-04    2.61      23.1  T
   8   -138.4461054 -0.104116E-07  0.239E-04    2.61      53.2  T
     SCC iter.                  ...        0 min,  0.158 sec
     gradient                   ...        0 min,  0.142 sec
 * total energy  :  -136.8411780 Eh     change       -0.8120894E-03 Eh
   gradient norm :     0.0115251 Eh/α   predicted    -0.6441437E-03 ( -20.68%)
   displ. norm   :     0.6128175 α      lambda       -0.1085450E-02
   maximum displ.:     0.3973083 α      in ANC's #2, #9, #1, ...

........................................................................
.............................. CYCLE   13 ..............................
........................................................................
   1   -138.4517511 -0.138452E+03  0.150E-01    2.63       0.0  T
   2   -138.4517723 -0.211729E-04  0.874E-02    2.64       1.0  T
   3   -138.4517307  0.415234E-04  0.289E-02    2.65       1.0  T
   4   -138.4517812 -0.504726E-04  0.521E-03    2.65       2.4  T
   5   -138.4517821 -0.858655E-06  0.268E-03    2.65       4.7  T
   6   -138.4517822 -0.811162E-07  0.155E-03    2.65       8.2  T
   7   -138.4517822 -0.687262E-07  0.492E-04    2.65      25.8  T
   8   -138.4517822 -0.571200E-08  0.234E-04    2.65      54.3  T
     SCC iter.                  ...        0 min,  0.160 sec
     gradient                   ...        0 min,  0.134 sec
 * total energy  :  -136.8420418 Eh     change       -0.8637636E-03 Eh
   gradient norm :     0.0102260 Eh/α   predicted    -0.7465470E-03 ( -13.57%)
   displ. norm   :     0.7532243 α      lambda       -0.1036498E-02
   maximum displ.:     0.4752764 α      in ANC's #2, #9, #7, ...

........................................................................
.............................. CYCLE   14 ..............................
........................................................................
   1   -138.4474612 -0.138447E+03  0.177E-01    2.65       0.0  T
   2   -138.4475446 -0.834568E-04  0.102E-01    2.67       1.0  T
   3   -138.4475090  0.355649E-04  0.347E-02    2.69       1.0  T
   4   -138.4475562 -0.471602E-04  0.907E-03    2.68       1.4  T
   5   -138.4475609 -0.471692E-05  0.282E-03    2.69       4.5  T
   6   -138.4475610 -0.652610E-07  0.178E-03    2.69       7.1  T
   7   -138.4475611 -0.697832E-07  0.724E-04    2.68      17.6  T
   8   -138.4475611 -0.158219E-07  0.300E-04    2.68      42.3  T
     SCC iter.                  ...        0 min,  0.144 sec
     gradient                   ...        0 min,  0.143 sec
 * total energy  :  -136.8428835 Eh     change       -0.8417434E-03 Eh
   gradient norm :     0.0166339 Eh/α   predicted    -0.8122800E-03 (  -3.50%)
   displ. norm   :     0.6240694 α      lambda       -0.1177934E-02
   maximum displ.:     0.4395218 α      in ANC's #2, #3, #1, ...

........................................................................
.............................. CYCLE   15 ..............................
........................................................................
   1   -138.4552294 -0.138455E+03  0.133E-01    2.72       0.0  T
   2   -138.4552454 -0.159779E-04  0.775E-02    2.72       1.0  T
   3   -138.4552197  0.256488E-04  0.227E-02    2.73       1.0  T
   4   -138.4552512 -0.314931E-04  0.449E-03    2.72       2.8  T
   5   -138.4552519 -0.695797E-06  0.224E-03    2.72       5.7  T
   6   -138.4552520 -0.479056E-07  0.131E-03    2.72       9.7  T
   7   -138.4552520 -0.444465E-07  0.472E-04    2.72      26.9  T
   8   -138.4552520 -0.558629E-08  0.207E-04    2.72      61.4  T
     SCC iter.                  ...        0 min,  0.170 sec
     gradient                   ...        0 min,  0.140 sec
 * total energy  :  -136.8438736 Eh     change       -0.9900625E-03 Eh
   gradient norm :     0.0129558 Eh/α   predicted    -0.8183483E-03 ( -17.34%)
   displ. norm   :     0.7663501 α      lambda       -0.1365422E-02
   maximum displ.:     0.5346656 α      in ANC's #2, #1, #3, ...

........................................................................
.............................. CYCLE   16 ..............................
........................................................................
   1   -138.4573124 -0.138457E+03  0.177E-01    2.74       0.0  T
   2   -138.4573533 -0.409059E-04  0.102E-01    2.76       1.0  T
   3   -138.4573281  0.251353E-04  0.267E-02    2.78       1.0  T
   4   -138.4573620 -0.338873E-04  0.666E-03    2.77       1.9  T
   5   -138.4573640 -0.193452E-05  0.293E-03    2.77       4.3  T
   6   -138.4573640 -0.175502E-07  0.165E-03    2.77       7.7  T
   7   -138.4573641 -0.903838E-07  0.588E-04    2.77      21.6  T
   8   -138.4573641 -0.793821E-08  0.297E-04    2.77      42.7  T
     SCC iter.                  ...        0 min,  0.165 sec
     gradient                   ...        0 min,  0.130 sec
 * total energy  :  -136.8450765 Eh     change       -0.1202964E-02 Eh
   gradient norm :     0.0154256 Eh/α   predicted    -0.1083666E-02 (  -9.92%)
   displ. norm   :     0.7414594 α      lambda       -0.1591934E-02
   maximum displ.:     0.5193353 α      in ANC's #2, #1, #3, ...

........................................................................
.............................. CYCLE   17 ..............................
........................................................................
   1   -138.4642016 -0.138464E+03  0.162E-01    2.81       0.0  T
   2   -138.4642369 -0.352949E-04  0.937E-02    2.82       1.0  T
   3   -138.4642129  0.240006E-04  0.263E-02    2.83       1.0  T
   4   -138.4642470 -0.340195E-04  0.563E-03    2.82       2.3  T
   5   -138.4642479 -0.996571E-06  0.287E-03    2.82       4.4  T
   6   -138.4642480 -0.600813E-07  0.154E-03    2.82       8.2  T
   7   -138.4642481 -0.637502E-07  0.585E-04    2.82      21.7  T
   8   -138.4642481 -0.105389E-07  0.257E-04    2.82      49.5  T
     SCC iter.                  ...        0 min,  0.161 sec
     gradient                   ...        0 min,  0.156 sec
 * total energy  :  -136.8463571 Eh     change       -0.1280532E-02 Eh
   gradient norm :     0.0137081 Eh/α   predicted    -0.1233559E-02 (  -3.67%)
   displ. norm   :     0.8610433 α      lambda       -0.1575167E-02
   maximum displ.:     0.6045516 α      in ANC's #2, #1, #3, ...

........................................................................
.............................. CYCLE   18 ..............................
........................................................................
   1   -138.4535223 -0.138454E+03  0.193E-01    2.85       0.0  T
   2   -138.4536082 -0.858427E-04  0.113E-01    2.85       1.0  T
   3   -138.4535474  0.607771E-04  0.437E-02    2.87       1.0  T
   4   -138.4536331 -0.857154E-04  0.891E-03    2.86       1.4  T
   5   -138.4536363 -0.321945E-05  0.381E-03    2.87       3.3  T
   6   -138.4536364 -0.925956E-07  0.204E-03    2.86       6.2  T
   7   -138.4536365 -0.737311E-07  0.907E-04    2.86      14.0  T
   8   -138.4536365 -0.283978E-07  0.375E-04    2.86      33.9  T
     SCC iter.                  ...        0 min,  0.158 sec
     gradient                   ...        0 min,  0.124 sec
 * total energy  :  -136.8474798 Eh     change       -0.1122751E-02 Eh
   gradient norm :     0.0261156 Eh/α   predicted    -0.1371503E-02 (  22.16%)
   displ. norm   :     0.5872993 α      lambda       -0.1324346E-02
   maximum displ.:     0.4297401 α      in ANC's #2, #1, #3, ...

........................................................................
.............................. CYCLE   19 ..............................
........................................................................
   1   -138.4529785 -0.138453E+03  0.122E-01    2.88       0.0  T
   2   -138.4530242 -0.456815E-04  0.712E-02    2.89       1.0  T
   3   -138.4530105  0.136546E-04  0.239E-02    2.90       1.0  T
   4   -138.4530309 -0.204106E-04  0.610E-03    2.89       2.1  T
   5   -138.4530329 -0.193377E-05  0.219E-03    2.90       5.8  T
   6   -138.4530329 -0.391486E-07  0.117E-03    2.89      10.9  T
   7   -138.4530329 -0.265990E-07  0.514E-04    2.89      24.7  T
   8   -138.4530329 -0.743529E-08  0.225E-04    2.89      56.5  T
     SCC iter.                  ...        0 min,  0.158 sec
     gradient                   ...        0 min,  0.049 sec
 * total energy  :  -136.8484611 Eh     change       -0.9813134E-03 Eh
   gradient norm :     0.0169771 Eh/α   predicted    -0.8905727E-03 (  -9.25%)
   displ. norm   :     0.6127913 α      lambda       -0.1514733E-02
   maximum displ.:     0.3922884 α      in ANC's #2, #9, #16, ...

........................................................................
.............................. CYCLE   20 ..............................
........................................................................
   1   -138.4644377 -0.138464E+03  0.148E-01    2.96       0.0  T
   2   -138.4644859 -0.481725E-04  0.859E-02    2.94       1.0  T
   3   -138.4644629  0.230225E-04  0.261E-02    2.94       1.0  T
   4   -138.4644962 -0.333442E-04  0.731E-03    2.94       1.7  T
   5   -138.4644983 -0.201698E-05  0.361E-03    2.94       3.5  T
   6   -138.4644985 -0.204622E-06  0.189E-03    2.94       6.7  T
   7   -138.4644986 -0.101382E-06  0.654E-04    2.94      19.4  T
   8   -138.4644986 -0.101289E-07  0.286E-04    2.94      44.5  T
     SCC iter.                  ...        0 min,  0.161 sec
     gradient                   ...        0 min,  0.142 sec
 * total energy  :  -136.8493022 Eh     change       -0.8410914E-03 Eh
   gradient norm :     0.0176046 Eh/α   predicted    -0.1041769E-02 (  23.86%)
   displ. norm   :     0.7202200 α      lambda       -0.1316189E-02
   maximum displ.:     0.5347958 α      in ANC's #2, #1, #5, ...
 * RMSD in coord.:     1.1082538 α      energy gain  -0.4003397E-01 Eh

generating ANC from model Hessian ...
Using Lindh-Hessian (1995)
 Shifting diagonal of input Hessian by    9.8105433785329373E-003
 Lowest  eigenvalues of input Hessian
    0.000000    0.000000    0.000000    0.000000    0.000000    0.000000
    0.010000    0.010185    0.010375    0.010421    0.010477    0.010593
    0.010718    0.010920    0.011119    0.011642    0.012126    0.012927
 Highest eigenvalues
    2.032846    2.336047    2.358080    2.390023    2.652725    2.672870


........................................................................
.............................. CYCLE   21 ..............................
........................................................................
   1   -138.4587483 -0.138459E+03  0.142E-01    2.94       0.0  T
   2   -138.4587897 -0.413969E-04  0.830E-02    2.96       1.0  T
   3   -138.4587668  0.228839E-04  0.260E-02    2.97       1.0  T
   4   -138.4587970 -0.301956E-04  0.739E-03    2.97       1.7  T
   5   -138.4587996 -0.263951E-05  0.307E-03    2.97       4.1  T
   6   -138.4587998 -0.126685E-06  0.172E-03    2.97       7.4  T
   7   -138.4587999 -0.828003E-07  0.638E-04    2.97      19.9  T
   8   -138.4587999 -0.715195E-08  0.297E-04    2.97      42.8  T
     SCC iter.                  ...        0 min,  0.159 sec
     gradient                   ...        0 min,  0.150 sec
 * total energy  :  -136.8502543 Eh     change       -0.9521164E-03 Eh
   gradient norm :     0.0180100 Eh/α   predicted     0.0000000E+00 (-100.00%)
   displ. norm   :     0.1625552 α      lambda       -0.8724936E-03
   maximum displ.:     0.0710949 α      in ANC's #3, #28, #2, ...

........................................................................
.............................. CYCLE   22 ..............................
........................................................................
   1   -138.4628873 -0.138463E+03  0.141E-01    2.98       0.0  T
   2   -138.4629066 -0.192481E-04  0.789E-02    2.97       1.0  T
   3   -138.4628900  0.165493E-04  0.210E-02    2.98       1.0  T
   4   -138.4629140 -0.240189E-04  0.464E-03    2.98       2.7  T
   5   -138.4629147 -0.614067E-06  0.218E-03    2.98       5.8  T
   6   -138.4629147 -0.672360E-07  0.100E-03    2.98      12.7  T
   7   -138.4629148 -0.381806E-07  0.282E-04    2.98      45.0  T
     SCC iter.                  ...        0 min,  0.143 sec
     gradient                   ...        0 min,  0.149 sec
 * total energy  :  -136.8507642 Eh     change       -0.5098776E-03 Eh
   gradient norm :     0.0074516 Eh/α   predicted    -0.4481131E-03 ( -12.11%)
   displ. norm   :     0.2403192 α      lambda       -0.6733279E-03
   maximum displ.:     0.1230696 α      in ANC's #3, #2, #30, ...

........................................................................
.............................. CYCLE   23 ..............................
........................................................................
   1   -138.4693545 -0.138469E+03  0.994E-02    2.98       0.0  T
   2   -138.4693645 -0.998740E-05  0.572E-02    2.98       1.0  T
   3   -138.4693444  0.200574E-04  0.196E-02    2.98       1.0  T
   4   -138.4693694 -0.250007E-04  0.391E-03    2.98       3.2  T
   5   -138.4693699 -0.440087E-06  0.210E-03    2.98       6.1  T
   6   -138.4693699 -0.482730E-07  0.982E-04    2.98      12.9  T
   7   -138.4693700 -0.322734E-07  0.290E-04    2.98      43.9  T
     SCC iter.                  ...        0 min,  0.139 sec
     gradient                   ...        0 min,  0.031 sec
 * total energy  :  -136.8511448 Eh     change       -0.3806135E-03 Eh
   gradient norm :     0.0118693 Eh/α   predicted    -0.3561099E-03 (  -6.44%)
   displ. norm   :     0.2986626 α      lambda       -0.5377937E-03
   maximum displ.:     0.1643243 α      in ANC's #3, #2, #13, ...

........................................................................
.............................. CYCLE   24 ..............................
........................................................................
   1   -138.4681710 -0.138468E+03  0.111E-01    2.98       0.0  T
   2   -138.4681801 -0.912299E-05  0.629E-02    2.98       1.0  T
   3   -138.4681605  0.196022E-04  0.204E-02    2.98       1.0  T
   4   -138.4681857 -0.251596E-04  0.355E-03    2.98       3.6  T
   5   -138.4681858 -0.933810E-07  0.238E-03    2.98       5.3  T
   6   -138.4681859 -0.138558E-06  0.818E-04    2.98      15.5  T
   7   -138.4681860 -0.192310E-07  0.288E-04    2.98      44.1  T
     SCC iter.                  ...        0 min,  0.155 sec
     gradient                   ...        0 min,  0.138 sec
 * total energy  :  -136.8515512 Eh     change       -0.4063875E-03 Eh
   gradient norm :     0.0088321 Eh/α   predicted    -0.2928822E-03 ( -27.93%)
   displ. norm   :     0.4619470 α      lambda       -0.6913769E-03
   maximum displ.:     0.2574908 α      in ANC's #3, #2, #13, ...

........................................................................
.............................. CYCLE   25 ..............................
........................................................................
   1   -138.4632638 -0.138463E+03  0.119E-01    2.98       0.0  T
   2   -138.4632778 -0.139424E-04  0.689E-02    2.99       1.0  T
   3   -138.4632275  0.502281E-04  0.322E-02    2.99       1.0  T
   4   -138.4632880 -0.604988E-04  0.538E-03    2.99       2.4  T
   5   -138.4632890 -0.955445E-06  0.281E-03    2.99       4.5  T
   6   -138.4632891 -0.127284E-06  0.132E-03    2.99       9.6  T
   7   -138.4632892 -0.364372E-07  0.442E-04    2.99      28.7  T
   8   -138.4632892 -0.279030E-08  0.196E-04    2.99      64.9  T
     SCC iter.                  ...        0 min,  0.159 sec
     gradient                   ...        0 min,  0.143 sec
 * total energy  :  -136.8520626 Eh     change       -0.5113742E-03 Eh
   gradient norm :     0.0142505 Eh/α   predicted    -0.4194584E-03 ( -17.97%)
   displ. norm   :     0.4432122 α      lambda       -0.6256633E-03
   maximum displ.:     0.2583710 α      in ANC's #3, #2, #8, ...

........................................................................
.............................. CYCLE   26 ..............................
........................................................................
   1   -138.4624634 -0.138462E+03  0.943E-02    3.00       0.0  T
   2   -138.4624748 -0.114030E-04  0.547E-02    3.01       1.0  T
   3   -138.4624536  0.212071E-04  0.213E-02    3.02       1.0  T
   4   -138.4624791 -0.254559E-04  0.442E-03    3.01       2.9  T
   5   -138.4624799 -0.792742E-06  0.209E-03    3.01       6.1  T
   6   -138.4624800 -0.877982E-07  0.113E-03    3.01      11.3  T
   7   -138.4624800 -0.275723E-07  0.378E-04    3.01      33.6  T
   8   -138.4624800 -0.226132E-08  0.155E-04    3.01      82.0  T
     SCC iter.                  ...        0 min,  0.167 sec
     gradient                   ...        0 min,  0.127 sec
 * total energy  :  -136.8525566 Eh     change       -0.4939798E-03 Eh
   gradient norm :     0.0122826 Eh/α   predicted    -0.3742844E-03 ( -24.23%)
   displ. norm   :     0.4789289 α      lambda       -0.6023718E-03
   maximum displ.:     0.2868392 α      in ANC's #3, #2, #8, ...

........................................................................
.............................. CYCLE   27 ..............................
........................................................................
   1   -138.4636940 -0.138464E+03  0.966E-02    3.03       0.0  T
   2   -138.4637064 -0.124683E-04  0.562E-02    3.04       1.0  T
   3   -138.4636875  0.188954E-04  0.201E-02    3.05       1.0  T
   4   -138.4637103 -0.227580E-04  0.473E-03    3.04       2.7  T
   5   -138.4637114 -0.108199E-05  0.191E-03    3.04       6.7  T
   6   -138.4637114 -0.342416E-07  0.109E-03    3.04      11.7  T
   7   -138.4637114 -0.319752E-07  0.396E-04    3.04      32.1  T
   8   -138.4637114 -0.398765E-08  0.148E-04    3.04      85.7  T
     SCC iter.                  ...        0 min,  0.162 sec
     gradient                   ...        0 min,  0.144 sec
 * total energy  :  -136.8530339 Eh     change       -0.4773234E-03 Eh
   gradient norm :     0.0080216 Eh/α   predicted    -0.3702697E-03 ( -22.43%)
   displ. norm   :     0.5313694 α      lambda       -0.5256520E-03
   maximum displ.:     0.3256984 α      in ANC's #3, #2, #8, ...

........................................................................
.............................. CYCLE   28 ..............................
........................................................................
   1   -138.4646341 -0.138465E+03  0.112E-01    3.06       0.0  T
   2   -138.4646450 -0.109042E-04  0.648E-02    3.07       1.0  T
   3   -138.4646242  0.207516E-04  0.200E-02    3.08       1.0  T
   4   -138.4646496 -0.253568E-04  0.420E-03    3.08       3.0  T
   5   -138.4646501 -0.567681E-06  0.215E-03    3.08       5.9  T
   6   -138.4646502 -0.344753E-07  0.113E-03    3.08      11.2  T
   7   -138.4646502 -0.478846E-07  0.379E-04    3.08      33.5  T
   8   -138.4646502 -0.282751E-08  0.173E-04    3.08      73.3  T
     SCC iter.                  ...        0 min,  0.163 sec
     gradient                   ...        0 min,  0.143 sec
 * total energy  :  -136.8534686 Eh     change       -0.4347098E-03 Eh
   gradient norm :     0.0066528 Eh/α   predicted    -0.3370387E-03 ( -22.47%)
   displ. norm   :     0.5249289 α      lambda       -0.4946954E-03
   maximum displ.:     0.3343774 α      in ANC's #3, #2, #7, ...

........................................................................
.............................. CYCLE   29 ..............................
........................................................................
   1   -138.4669931 -0.138467E+03  0.116E-01    3.09       0.0  T
   2   -138.4670049 -0.117552E-04  0.666E-02    3.10       1.0  T
   3   -138.4669854  0.194417E-04  0.198E-02    3.10       1.0  T
   4   -138.4670100 -0.245579E-04  0.412E-03    3.10       3.1  T
   5   -138.4670105 -0.463696E-06  0.212E-03    3.10       6.0  T
   6   -138.4670105 -0.264400E-07  0.982E-04    3.10      12.9  T
   7   -138.4670105 -0.423113E-07  0.358E-04    3.10      35.5  T
     SCC iter.                  ...        0 min,  0.144 sec
     gradient                   ...        0 min,  0.128 sec
 * total energy  :  -136.8538705 Eh     change       -0.4018923E-03 Eh
   gradient norm :     0.0065449 Eh/α   predicted    -0.3155103E-03 ( -21.49%)
   displ. norm   :     0.5789180 α      lambda       -0.4506367E-03
   maximum displ.:     0.3719609 α      in ANC's #3, #2, #7, ...

........................................................................
.............................. CYCLE   30 ..............................
........................................................................
   1   -138.4655491 -0.138466E+03  0.134E-01    3.11       0.0  T
   2   -138.4655623 -0.131955E-04  0.772E-02    3.11       1.0  T
   3   -138.4655415  0.207871E-04  0.206E-02    3.12       1.0  T
   4   -138.4655680 -0.265529E-04  0.454E-03    3.12       2.8  T
   5   -138.4655684 -0.392833E-06  0.264E-03    3.12       4.8  T
   6   -138.4655685 -0.108632E-06  0.119E-03    3.12      10.7  T
   7   -138.4655686 -0.510717E-07  0.429E-04    3.12      29.6  T
   8   -138.4655686 -0.398202E-08  0.203E-04    3.12      62.7  T
     SCC iter.                  ...        0 min,  0.162 sec
     gradient                   ...        0 min,  0.121 sec
 * total energy  :  -136.8542084 Eh     change       -0.3379383E-03 Eh
   gradient norm :     0.0085070 Eh/α   predicted    -0.3008370E-03 ( -10.98%)
   displ. norm   :     0.5202121 α      lambda       -0.4810618E-03
   maximum displ.:     0.3426533 α      in ANC's #3, #2, #7, ...

........................................................................
.............................. CYCLE   31 ..............................
........................................................................
   1   -138.4704158 -0.138470E+03  0.123E-01    3.13       0.0  T
   2   -138.4704307 -0.149040E-04  0.703E-02    3.13       1.0  T
   3   -138.4704118  0.189736E-04  0.202E-02    3.13       1.0  T
   4   -138.4704365 -0.247951E-04  0.434E-03    3.13       2.9  T
   5   -138.4704369 -0.381992E-06  0.229E-03    3.13       5.5  T
   6   -138.4704370 -0.726087E-07  0.115E-03    3.13      11.0  T
   7   -138.4704370 -0.439063E-07  0.368E-04    3.13      34.5  T
   8   -138.4704370 -0.386490E-08  0.159E-04    3.13      80.0  T
     SCC iter.                  ...        0 min,  0.158 sec
     gradient                   ...        0 min,  0.123 sec
 * total energy  :  -136.8545206 Eh     change       -0.3121727E-03 Eh
   gradient norm :     0.0106918 Eh/α   predicted    -0.3056244E-03 (  -2.10%)
   displ. norm   :     0.4946818 α      lambda       -0.3172259E-03
   maximum displ.:     0.3292998 α      in ANC's #3, #2, #10, ...

........................................................................
.............................. CYCLE   32 ..............................
........................................................................
   1   -138.4691959 -0.138469E+03  0.110E-01    3.13       0.0  T
   2   -138.4692052 -0.936984E-05  0.627E-02    3.13       1.0  T
   3   -138.4691968  0.842742E-05  0.138E-02    3.13       1.0  T
   4   -138.4692083 -0.115091E-04  0.373E-03    3.13       3.4  T
   5   -138.4692086 -0.323284E-06  0.200E-03    3.13       6.4  T
   6   -138.4692087 -0.647315E-07  0.102E-03    3.13      12.4  T
   7   -138.4692087 -0.369446E-07  0.296E-04    3.13      43.0  T
   8   -138.4692087 -0.225191E-08  0.149E-04    3.13      85.0  T
     SCC iter.                  ...        0 min,  0.161 sec
     gradient                   ...        0 min,  0.120 sec
 * total energy  :  -136.8547812 Eh     change       -0.2605418E-03 Eh
   gradient norm :     0.0073098 Eh/α   predicted    -0.1974281E-03 ( -24.22%)
   displ. norm   :     0.4709201 α      lambda       -0.3068468E-03
   maximum displ.:     0.3179845 α      in ANC's #3, #2, #10, ...

........................................................................
.............................. CYCLE   33 ..............................
........................................................................
   1   -138.4706148 -0.138471E+03  0.100E-01    3.14       0.0  T
   2   -138.4706219 -0.706673E-05  0.574E-02    3.14       1.0  T
   3   -138.4706171  0.475401E-05  0.112E-02    3.14       1.1  T
   4   -138.4706246 -0.753387E-05  0.308E-03    3.14       4.1  T
   5   -138.4706247 -0.595570E-07  0.165E-03    3.14       7.7  T
   6   -138.4706248 -0.794839E-07  0.614E-04    3.14      20.7  T
   7   -138.4706248 -0.109057E-07  0.275E-04    3.14      46.2  T
     SCC iter.                  ...        0 min,  0.145 sec
     gradient                   ...        0 min,  0.125 sec
 * total energy  :  -136.8550222 Eh     change       -0.2410706E-03 Eh
   gradient norm :     0.0039252 Eh/α   predicted    -0.1874479E-03 ( -22.24%)
   displ. norm   :     0.5124719 α      lambda       -0.2622583E-03
   maximum displ.:     0.3453899 α      in ANC's #3, #2, #4, ...

........................................................................
.............................. CYCLE   34 ..............................
........................................................................
   1   -138.4679277 -0.138468E+03  0.124E-01    3.14       0.0  T
   2   -138.4679388 -0.111283E-04  0.705E-02    3.14       1.0  T
   3   -138.4679351  0.371458E-05  0.118E-02    3.14       1.1  T
   4   -138.4679425 -0.738527E-05  0.405E-03    3.14       3.1  T
   5   -138.4679428 -0.285251E-06  0.219E-03    3.14       5.8  T
   6   -138.4679429 -0.114954E-06  0.893E-04    3.14      14.2  T
   7   -138.4679429 -0.354397E-07  0.265E-04    3.14      48.0  T
     SCC iter.                  ...        0 min,  0.141 sec
     gradient                   ...        0 min,  0.145 sec
 * total energy  :  -136.8552159 Eh     change       -0.1937192E-03 Eh
   gradient norm :     0.0069774 Eh/α   predicted    -0.1655687E-03 ( -14.53%)
   displ. norm   :     0.5063604 α      lambda       -0.2729236E-03
   maximum displ.:     0.3320754 α      in ANC's #3, #2, #4, ...

........................................................................
.............................. CYCLE   35 ..............................
........................................................................
   1   -138.4720056 -0.138472E+03  0.107E-01    3.15       0.0  T
   2   -138.4720144 -0.879749E-05  0.614E-02    3.15       1.0  T
   3   -138.4720039  0.104494E-04  0.149E-02    3.15       1.0  T
   4   -138.4720175 -0.135927E-04  0.420E-03    3.15       3.0  T
   5   -138.4720180 -0.455680E-06  0.202E-03    3.15       6.3  T
   6   -138.4720180 -0.695889E-07  0.780E-04    3.15      16.3  T
   7   -138.4720181 -0.202493E-07  0.250E-04    3.15      50.9  T
     SCC iter.                  ...        0 min,  0.143 sec
     gradient                   ...        0 min,  0.136 sec
 * total energy  :  -136.8553872 Eh     change       -0.1712267E-03 Eh
   gradient norm :     0.0087648 Eh/α   predicted    -0.1714520E-03 (   0.13%)
   displ. norm   :     0.4431347 α      lambda       -0.2056339E-03
   maximum displ.:     0.2908417 α      in ANC's #3, #2, #4, ...

........................................................................
.............................. CYCLE   36 ..............................
........................................................................
   1   -138.4702237 -0.138470E+03  0.108E-01    3.16       0.0  T
   2   -138.4702318 -0.802528E-05  0.610E-02    3.16       1.0  T
   3   -138.4702311  0.696297E-06  0.832E-03    3.16       1.5  T
   4   -138.4702346 -0.356409E-05  0.316E-03    3.15       4.0  T
   5   -138.4702347 -0.884700E-07  0.146E-03    3.16       8.7  T
   6   -138.4702348 -0.644278E-07  0.473E-04    3.16      26.9  T
   7   -138.4702348 -0.606931E-08  0.240E-04    3.16      53.0  T
     SCC iter.                  ...        0 min,  0.139 sec
     gradient                   ...        0 min,  0.139 sec
 * total energy  :  -136.8555388 Eh     change       -0.1516665E-03 Eh
   gradient norm :     0.0059573 Eh/α   predicted    -0.1230127E-03 ( -18.89%)
   displ. norm   :     0.3568048 α      lambda       -0.1781278E-03
   maximum displ.:     0.2108745 α      in ANC's #3, #4, #2, ...

........................................................................
.............................. CYCLE   37 ..............................
........................................................................
   1   -138.4702681 -0.138470E+03  0.852E-02    3.16       0.0  T
   2   -138.4702741 -0.596723E-05  0.483E-02    3.16       1.0  T
   3   -138.4702710  0.308951E-05  0.937E-03    3.16       1.4  T
   4   -138.4702758 -0.481626E-05  0.344E-03    3.16       3.7  T
   5   -138.4702762 -0.359408E-06  0.158E-03    3.16       8.0  T
   6   -138.4702762 -0.380039E-07  0.608E-04    3.16      20.9  T
   7   -138.4702762 -0.124247E-07  0.197E-04    3.16      64.4  T
     SCC iter.                  ...        0 min,  0.140 sec
     gradient                   ...        0 min,  0.136 sec
 * total energy  :  -136.8556769 Eh     change       -0.1380303E-03 Eh
   gradient norm :     0.0061685 Eh/α   predicted    -0.1004068E-03 ( -27.26%)
   displ. norm   :     0.3532184 α      lambda       -0.1607526E-03
   maximum displ.:     0.1878040 α      in ANC's #4, #3, #2, ...

........................................................................
.............................. CYCLE   38 ..............................
........................................................................
   1   -138.4701104 -0.138470E+03  0.832E-02    3.16       0.0  T
   2   -138.4701157 -0.528139E-05  0.473E-02    3.16       1.0  T
   3   -138.4701123  0.336475E-05  0.938E-03    3.16       1.4  T
   4   -138.4701173 -0.498559E-05  0.328E-03    3.16       3.9  T
   5   -138.4701176 -0.311914E-06  0.153E-03    3.16       8.3  T
   6   -138.4701177 -0.426692E-07  0.559E-04    3.16      22.7  T
   7   -138.4701177 -0.853018E-08  0.204E-04    3.16      62.4  T
     SCC iter.                  ...        0 min,  0.139 sec
     gradient                   ...        0 min,  0.148 sec
 * total energy  :  -136.8557847 Eh     change       -0.1078413E-03 Eh
   gradient norm :     0.0041963 Eh/α   predicted    -0.9040582E-04 ( -16.17%)
   displ. norm   :     0.2473114 α      lambda       -0.1052784E-03
   maximum displ.:     0.1621129 α      in ANC's #4, #2, #3, ...

........................................................................
.............................. CYCLE   39 ..............................
........................................................................
   1   -138.4727617 -0.138473E+03  0.657E-02    3.17       0.0  T
   2   -138.4727667 -0.494605E-05  0.373E-02    3.17       1.0  T
   3   -138.4727549  0.118328E-04  0.161E-02    3.17       1.0  T
   4   -138.4727695 -0.146825E-04  0.288E-03    3.17       4.4  T
   5   -138.4727697 -0.189828E-06  0.168E-03    3.17       7.6  T
   6   -138.4727698 -0.848904E-07  0.629E-04    3.17      20.2  T
   7   -138.4727698 -0.458954E-08  0.217E-04    3.17      58.5  T
     SCC iter.                  ...        0 min,  0.139 sec
     gradient                   ...        0 min,  0.139 sec
 * total energy  :  -136.8558305 Eh     change       -0.4577215E-04 Eh
   gradient norm :     0.0060027 Eh/α   predicted    -0.5585992E-04 (  22.04%)
   displ. norm   :     0.2518671 α      lambda       -0.1033923E-03
   maximum displ.:     0.1407105 α      in ANC's #2, #3, #4, ...

........................................................................
.............................. CYCLE   40 ..............................
........................................................................
   1   -138.4694545 -0.138469E+03  0.640E-02    3.16       0.0  T
   2   -138.4694581 -0.353529E-05  0.364E-02    3.16       1.0  T
   3   -138.4694513  0.680817E-05  0.123E-02    3.16       1.0  T
   4   -138.4694596 -0.834871E-05  0.239E-03    3.16       5.3  T
   5   -138.4694597 -0.119276E-06  0.143E-03    3.16       8.9  T
   6   -138.4694598 -0.670155E-07  0.535E-04    3.16      23.7  T
   7   -138.4694598 -0.316172E-08  0.174E-04    3.16      72.8  T
     SCC iter.                  ...        0 min,  0.154 sec
     gradient                   ...        0 min,  0.130 sec
 * total energy  :  -136.8558853 Eh     change       -0.5484425E-04 Eh
   gradient norm :     0.0063585 Eh/α   predicted    -0.5498029E-04 (   0.25%)
   displ. norm   :     0.1570375 α      lambda       -0.1005817E-03
   maximum displ.:     0.0943762 α      in ANC's #4, #2, #7, ...

........................................................................
.............................. CYCLE   41 ..............................
........................................................................
   1   -138.4722193 -0.138472E+03  0.364E-02    3.16       0.0  T
   2   -138.4722210 -0.170600E-05  0.209E-02    3.16       1.0  T
   3   -138.4722184  0.260189E-05  0.822E-03    3.16       1.5  T
   4   -138.4722215 -0.307938E-05  0.194E-03    3.16       6.5  T
   5   -138.4722216 -0.160069E-06  0.677E-04    3.16      18.8  T
   6   -138.4722217 -0.770157E-08  0.376E-04    3.16      33.7  T
     SCC iter.                  ...        0 min,  0.119 sec
     gradient                   ...        0 min,  0.118 sec
 * total energy  :  -136.8559398 Eh     change       -0.5445458E-04 Eh
   gradient norm :     0.0065088 Eh/α   predicted    -0.5153192E-04 (  -5.37%)
   displ. norm   :     0.2506736 α      lambda       -0.1143962E-03
   maximum displ.:     0.1462730 α      in ANC's #4, #2, #3, ...

........................................................................
.............................. CYCLE   42 ..............................
........................................................................
   1   -138.4704162 -0.138470E+03  0.746E-02    3.16       0.0  T
   2   -138.4704202 -0.405262E-05  0.424E-02    3.16       1.0  T
   3   -138.4704127  0.754368E-05  0.122E-02    3.16       1.0  T
   4   -138.4704223 -0.958037E-05  0.250E-03    3.16       5.1  T
   5   -138.4704223 -0.725872E-07  0.150E-03    3.16       8.5  T
   6   -138.4704224 -0.636362E-07  0.532E-04    3.16      23.9  T
   7   -138.4704224 -0.734244E-08  0.153E-04    3.16      83.0  T
     SCC iter.                  ...        0 min,  0.143 sec
     gradient                   ...        0 min,  0.140 sec
 * total energy  :  -136.8560052 Eh     change       -0.6539362E-04 Eh
   gradient norm :     0.0067290 Eh/α   predicted    -0.6079502E-04 (  -7.03%)
   displ. norm   :     0.2556390 α      lambda       -0.1127416E-03
   maximum displ.:     0.1556410 α      in ANC's #4, #2, #3, ...
 * RMSD in coord.:     0.9498302 α      energy gain  -0.6702946E-02 Eh

generating ANC from model Hessian ...
Using Lindh-Hessian (1995)
 Shifting diagonal of input Hessian by    9.8349077358609212E-003
 Lowest  eigenvalues of input Hessian
    0.000000    0.000000    0.000000    0.000000    0.000000    0.000000
    0.010000    0.010024    0.010140    0.010394    0.010468    0.010534
    0.010643    0.010697    0.010739    0.011228    0.011654    0.012219
 Highest eigenvalues
    2.037951    2.362351    2.375505    2.398925    2.668679    2.670491


........................................................................
.............................. CYCLE   43 ..............................
........................................................................
   1   -138.4716828 -0.138472E+03  0.670E-02    3.15       0.0  T
   2   -138.4716861 -0.323077E-05  0.382E-02    3.16       1.0  T
   3   -138.4716782  0.784652E-05  0.133E-02    3.15       1.0  T
   4   -138.4716881 -0.988697E-05  0.195E-03    3.15       6.5  T
   5   -138.4716881  0.287750E-08  0.122E-03    3.15      10.4  T
   6   -138.4716882 -0.468801E-07  0.403E-04    3.15      31.5  T
   7   -138.4716882 -0.502365E-08  0.168E-04    3.15      75.4  T
     SCC iter.                  ...        0 min,  0.139 sec
     gradient                   ...        0 min,  0.145 sec
 * total energy  :  -136.8560800 Eh     change       -0.7483184E-04 Eh
   gradient norm :     0.0044347 Eh/α   predicted     0.0000000E+00 (-100.00%)
   displ. norm   :     0.0391606 α      lambda       -0.5103059E-04
   maximum displ.:     0.0193321 α      in ANC's #3, #17, #33, ...

........................................................................
.............................. CYCLE   44 ..............................
........................................................................
   1   -138.4724496 -0.138472E+03  0.186E-02    3.15       0.0  T
   2   -138.4724501 -0.474243E-06  0.107E-02    3.15       1.2  T
   3   -138.4724490  0.108140E-05  0.500E-03    3.15       2.5  T
   4   -138.4724504 -0.134500E-05  0.946E-04    3.15      13.4  T
   5   -138.4724504 -0.334501E-07  0.429E-04    3.15      29.6  T
   6   -138.4724504 -0.263097E-08  0.220E-04    3.15      57.8  T
     SCC iter.                  ...        0 min,  0.121 sec
     gradient                   ...        0 min,  0.137 sec
 * total energy  :  -136.8561152 Eh     change       -0.3522730E-04 Eh
   gradient norm :     0.0023197 Eh/α   predicted    -0.2557329E-04 ( -27.40%)
   displ. norm   :     0.1422808 α      lambda       -0.1203675E-03
   maximum displ.:     0.0762594 α      in ANC's #3, #17, #1, ...

........................................................................
.............................. CYCLE   45 ..............................
........................................................................
   1   -138.4733047 -0.138473E+03  0.110E-01    3.14       0.0  T
   2   -138.4733155 -0.107816E-04  0.616E-02    3.14       1.0  T
   3   -138.4733048  0.107471E-04  0.160E-02    3.14       1.0  T
   4   -138.4733203 -0.155361E-04  0.325E-03    3.14       3.9  T
   5   -138.4733205 -0.221725E-06  0.177E-03    3.14       7.2  T
   6   -138.4733206 -0.523292E-07  0.781E-04    3.14      16.3  T
   7   -138.4733206 -0.201390E-07  0.226E-04    3.14      56.2  T
     SCC iter.                  ...        0 min,  0.144 sec
     gradient                   ...        0 min,  0.141 sec
 * total energy  :  -136.8560840 Eh     change        0.3118556E-04 Eh
   gradient norm :     0.0070857 Eh/α   predicted    -0.6140831E-04 (-296.91%)
   displ. norm   :     0.0474709 α      lambda       -0.1464870E-03
   maximum displ.:     0.0256795 α      in ANC's #1, #12, #2, ...

........................................................................
.............................. CYCLE   46 ..............................
........................................................................
   1   -138.4729374 -0.138473E+03  0.653E-02    3.15       0.0  T
   2   -138.4729407 -0.330661E-05  0.361E-02    3.15       1.0  T
   3   -138.4729397  0.984710E-06  0.645E-03    3.15       2.0  T
   4   -138.4729420 -0.231715E-05  0.138E-03    3.15       9.2  T
   5   -138.4729420 -0.277647E-07  0.750E-04    3.15      16.9  T
   6   -138.4729421 -0.844980E-08  0.335E-04    3.15      37.9  T
     SCC iter.                  ...        0 min,  0.119 sec
     gradient                   ...        0 min,  0.144 sec
 * total energy  :  -136.8561615 Eh     change       -0.7748120E-04 Eh
   gradient norm :     0.0021080 Eh/α   predicted    -0.7340858E-04 (  -5.26%)
   displ. norm   :     0.0333316 α      lambda       -0.1640603E-04
   maximum displ.:     0.0161986 α      in ANC's #3, #9, #13, ...

........................................................................
.............................. CYCLE   47 ..............................
........................................................................
   1   -138.4726356 -0.138473E+03  0.127E-02    3.15       0.0  T
   2   -138.4726358 -0.151955E-06  0.721E-03    3.15       1.8  T
   3   -138.4726355  0.229985E-06  0.241E-03    3.15       5.3  T
   4   -138.4726358 -0.291235E-06  0.461E-04    3.15      27.5  T
   5   -138.4726358 -0.583390E-08  0.227E-04    3.15      55.8  T
     SCC iter.                  ...        0 min,  0.104 sec
     gradient                   ...        0 min,  0.126 sec
 * total energy  :  -136.8561730 Eh     change       -0.1142606E-04 Eh
   gradient norm :     0.0012868 Eh/α   predicted    -0.8212583E-05 ( -28.12%)
   displ. norm   :     0.2583942 α      lambda       -0.6297629E-04
   maximum displ.:     0.1791918 α      in ANC's #3, #17, #6, ...

........................................................................
.............................. CYCLE   48 ..............................
........................................................................
   1   -138.4700367 -0.138470E+03  0.107E-01    3.14       0.0  T
   2   -138.4700463 -0.962291E-05  0.604E-02    3.14       1.0  T
   3   -138.4700370  0.931573E-05  0.156E-02    3.13       1.0  T
   4   -138.4700501 -0.130565E-04  0.342E-03    3.14       3.7  T
   5   -138.4700503 -0.228212E-06  0.181E-03    3.14       7.0  T
   6   -138.4700503 -0.393212E-07  0.909E-04    3.14      14.0  T
   7   -138.4700504 -0.368535E-07  0.229E-04    3.14      55.4  T
     SCC iter.                  ...        0 min,  0.143 sec
     gradient                   ...        0 min,  0.133 sec
 * total energy  :  -136.8561663 Eh     change        0.6616947E-05 Eh
   gradient norm :     0.0079156 Eh/α   predicted    -0.3242677E-04 (-590.06%)
   displ. norm   :     0.0512327 α      lambda       -0.7686220E-04
   maximum displ.:     0.0242601 α      in ANC's #3, #17, #7, ...

........................................................................
.............................. CYCLE   49 ..............................
........................................................................
   1   -138.4716361 -0.138472E+03  0.264E-02    3.14       0.0  T
   2   -138.4716366 -0.557745E-06  0.149E-02    3.14       1.0  T
   3   -138.4716358  0.854672E-06  0.460E-03    3.14       2.8  T
   4   -138.4716369 -0.113427E-05  0.764E-04    3.14      16.6  T
   5   -138.4716369 -0.919613E-08  0.425E-04    3.14      29.9  T
   6   -138.4716369 -0.152002E-08  0.208E-04    3.14      61.1  T
     SCC iter.                  ...        0 min,  0.119 sec
     gradient                   ...        0 min,  0.155 sec
 * total energy  :  -136.8562200 Eh     change       -0.5369534E-04 Eh
   gradient norm :     0.0036117 Eh/α   predicted    -0.3853341E-04 ( -28.24%)
   displ. norm   :     0.0697018 α      lambda       -0.4393180E-04
   maximum displ.:     0.0449074 α      in ANC's #3, #6, #17, ...

........................................................................
.............................. CYCLE   50 ..............................
........................................................................
   1   -138.4728211 -0.138473E+03  0.200E-02    3.14       0.0  T
   2   -138.4728216 -0.489992E-06  0.117E-02    3.14       1.1  T
   3   -138.4728205  0.105973E-05  0.514E-03    3.14       2.5  T
   4   -138.4728219 -0.133090E-05  0.771E-04    3.14      16.5  T
   5   -138.4728219 -0.164929E-07  0.366E-04    3.14      34.7  T
   6   -138.4728219 -0.977593E-09  0.197E-04    3.14      64.5  T
     SCC iter.                  ...        0 min,  0.118 sec
     gradient                   ...        0 min,  0.139 sec
 * total energy  :  -136.8562496 Eh     change       -0.2953593E-04 Eh
   gradient norm :     0.0013593 Eh/α   predicted    -0.2207364E-04 ( -25.27%)
   displ. norm   :     0.2069494 α      lambda       -0.2979274E-04
   maximum displ.:     0.1414029 α      in ANC's #3, #9, #6, ...

........................................................................
.............................. CYCLE   51 ..............................
........................................................................
   1   -138.4736026 -0.138474E+03  0.539E-02    3.13       0.0  T
   2   -138.4736044 -0.184803E-05  0.310E-02    3.13       1.0  T
   3   -138.4736008  0.365761E-05  0.836E-03    3.13       1.5  T
   4   -138.4736054 -0.461486E-05  0.153E-03    3.13       8.3  T
   5   -138.4736054 -0.223988E-07  0.815E-04    3.13      15.6  T
   6   -138.4736054 -0.137986E-07  0.264E-04    3.13      48.1  T
     SCC iter.                  ...        0 min,  0.119 sec
     gradient                   ...        0 min,  0.139 sec
 * total energy  :  -136.8562829 Eh     change       -0.3332858E-04 Eh
   gradient norm :     0.0028085 Eh/α   predicted    -0.1518058E-04 ( -54.45%)
   displ. norm   :     0.2765495 α      lambda       -0.5054528E-04
   maximum displ.:     0.1948020 α      in ANC's #3, #9, #6, ...

........................................................................
.............................. CYCLE   52 ..............................
........................................................................
   1   -138.4731029 -0.138473E+03  0.793E-02    3.13       0.0  T
   2   -138.4731070 -0.413088E-05  0.451E-02    3.13       1.0  T
   3   -138.4731019  0.514520E-05  0.997E-03    3.13       1.3  T
   4   -138.4731089 -0.698180E-05  0.224E-03    3.13       5.7  T
   5   -138.4731089 -0.416611E-07  0.121E-03    3.13      10.5  T
   6   -138.4731089 -0.370901E-07  0.474E-04    3.13      26.8  T
   7   -138.4731089 -0.703258E-08  0.190E-04    3.13      66.8  T
     SCC iter.                  ...        0 min,  0.143 sec
     gradient                   ...        0 min,  0.133 sec
 * total energy  :  -136.8563250 Eh     change       -0.4206136E-04 Eh
   gradient norm :     0.0028461 Eh/α   predicted    -0.2720752E-04 ( -35.31%)
   displ. norm   :     0.4395344 α      lambda       -0.7044909E-04
   maximum displ.:     0.3118439 α      in ANC's #3, #9, #6, ...

........................................................................
.............................. CYCLE   53 ..............................
........................................................................
   1   -138.4718094 -0.138472E+03  0.127E-01    3.12       0.0  T
   2   -138.4718203 -0.108781E-04  0.719E-02    3.12       1.0  T
   3   -138.4718092  0.110519E-04  0.148E-02    3.12       1.0  T
   4   -138.4718248 -0.155580E-04  0.357E-03    3.12       3.6  T
   5   -138.4718249 -0.117638E-06  0.192E-03    3.12       6.6  T
   6   -138.4718250 -0.967318E-07  0.803E-04    3.12      15.8  T
   7   -138.4718250 -0.201570E-07  0.303E-04    3.12      41.9  T
     SCC iter.                  ...        0 min,  0.147 sec
     gradient                   ...        0 min,  0.113 sec
 * total energy  :  -136.8563687 Eh     change       -0.4371366E-04 Eh
   gradient norm :     0.0034455 Eh/α   predicted    -0.4203130E-04 (  -3.85%)
   displ. norm   :     0.4395395 α      lambda        0.2960870E-04
   maximum displ.:     0.3118446 α      in ANC's #3, #9, #6, ...

........................................................................
.............................. CYCLE   54 ..............................
........................................................................
   1   -138.4681996 -0.138468E+03  0.126E-01    3.12       0.0  T
   2   -138.4682114 -0.117628E-04  0.717E-02    3.11       1.0  T
   3   -138.4681990  0.124155E-04  0.154E-02    3.11       1.0  T
   4   -138.4682159 -0.168897E-04  0.404E-03    3.11       3.1  T
   5   -138.4682161 -0.268696E-06  0.233E-03    3.11       5.5  T
   6   -138.4682163 -0.162008E-06  0.925E-04    3.11      13.7  T
   7   -138.4682163 -0.220492E-07  0.291E-04    3.11      43.7  T
     SCC iter.                  ...        0 min,  0.139 sec
     gradient                   ...        0 min,  0.140 sec
 * total energy  :  -136.8563295 Eh     change        0.3917029E-04 Eh
   gradient norm :     0.0094986 Eh/α   predicted     0.1766453E-04 ( -54.90%)
   displ. norm   :     0.2458096 α      lambda       -0.1117012E-03
   maximum displ.:     0.1716349 α      in ANC's #3, #9, #6, ...

........................................................................
.............................. CYCLE   55 ..............................
........................................................................
   1   -138.4727841 -0.138473E+03  0.738E-02    3.11       0.0  T
   2   -138.4727891 -0.494221E-05  0.421E-02    3.11       1.0  T
   3   -138.4727807  0.841179E-05  0.125E-02    3.11       1.0  T
   4   -138.4727910 -0.103659E-04  0.299E-03    3.12       4.2  T
   5   -138.4727913 -0.257048E-06  0.145E-03    3.11       8.7  T
   6   -138.4727913 -0.547581E-07  0.619E-04    3.11      20.5  T
   7   -138.4727913 -0.830386E-08  0.180E-04    3.11      70.5  T
     SCC iter.                  ...        0 min,  0.143 sec
     gradient                   ...        0 min,  0.136 sec
 * total energy  :  -136.8563881 Eh     change       -0.5857434E-04 Eh
   gradient norm :     0.0020919 Eh/α   predicted    -0.5922787E-04 (   1.12%)
   displ. norm   :     0.0350152 α      lambda       -0.1802661E-04
   maximum displ.:     0.0177861 α      in ANC's #9, #14, #5, ...

........................................................................
.............................. CYCLE   56 ..............................
........................................................................
   1   -138.4731918 -0.138473E+03  0.129E-02    3.11       0.0  T
   2   -138.4731921 -0.331072E-06  0.749E-03    3.11       1.7  T
   3   -138.4731918  0.288637E-06  0.264E-03    3.11       4.8  T
   4   -138.4731922 -0.360803E-06  0.576E-04    3.11      22.1  T
   5   -138.4731922 -0.130547E-07  0.224E-04    3.11      56.6  T
     SCC iter.                  ...        0 min,  0.100 sec
     gradient                   ...        0 min,  0.116 sec
 * total energy  :  -136.8564005 Eh     change       -0.1242138E-04 Eh
   gradient norm :     0.0012176 Eh/α   predicted    -0.9024617E-05 ( -27.35%)
   displ. norm   :     0.1559442 α      lambda       -0.2146676E-04
   maximum displ.:     0.1143274 α      in ANC's #3, #13, #14, ...

........................................................................
.............................. CYCLE   57 ..............................
........................................................................
   1   -138.4743426 -0.138474E+03  0.447E-02    3.11       0.0  T
   2   -138.4743440 -0.142642E-05  0.255E-02    3.11       1.0  T
   3   -138.4743423  0.175973E-05  0.626E-03    3.11       2.0  T
   4   -138.4743446 -0.236310E-05  0.146E-03    3.11       8.7  T
   5   -138.4743447 -0.184554E-07  0.834E-04    3.11      15.2  T
   6   -138.4743447 -0.201382E-07  0.328E-04    3.11      38.7  T
     SCC iter.                  ...        0 min,  0.119 sec
     gradient                   ...        0 min,  0.137 sec
 * total energy  :  -136.8564221 Eh     change       -0.2158596E-04 Eh
   gradient norm :     0.0020603 Eh/α   predicted    -0.1085090E-04 ( -49.73%)
   displ. norm   :     0.2058109 α      lambda       -0.2335921E-04
   maximum displ.:     0.1576569 α      in ANC's #3, #13, #2, ...

........................................................................
.............................. CYCLE   58 ..............................
........................................................................
   1   -138.4736702 -0.138474E+03  0.617E-02    3.11       0.0  T
   2   -138.4736725 -0.236112E-05  0.349E-02    3.11       1.0  T
   3   -138.4736718  0.709909E-06  0.515E-03    3.11       2.5  T
   4   -138.4736734 -0.156041E-05  0.189E-03    3.11       6.7  T
   5   -138.4736734 -0.455329E-07  0.101E-03    3.11      12.6  T
   6   -138.4736735 -0.318487E-07  0.332E-04    3.11      38.3  T
   7   -138.4736735 -0.346949E-08  0.120E-04    3.11     106.1  T
     SCC iter.                  ...        0 min,  0.143 sec
     gradient                   ...        0 min,  0.151 sec
 * total energy  :  -136.8564413 Eh     change       -0.1924063E-04 Eh
   gradient norm :     0.0020274 Eh/α   predicted    -0.1217922E-04 ( -36.70%)
   displ. norm   :     0.3601603 α      lambda       -0.3447588E-04
   maximum displ.:     0.2740237 α      in ANC's #3, #13, #2, ...

........................................................................
.............................. CYCLE   59 ..............................
........................................................................
   1   -138.4719194 -0.138472E+03  0.104E-01    3.12       0.0  T
   2   -138.4719268 -0.748214E-05  0.592E-02    3.11       1.0  T
   3   -138.4719239  0.288702E-05  0.965E-03    3.11       1.3  T
   4   -138.4719293 -0.531684E-05  0.346E-03    3.11       3.7  T
   5   -138.4719295 -0.241300E-06  0.179E-03    3.11       7.1  T
   6   -138.4719296 -0.821010E-07  0.693E-04    3.11      18.3  T
   7   -138.4719296 -0.135892E-07  0.213E-04    3.11      59.6  T
     SCC iter.                  ...        0 min,  0.140 sec
     gradient                   ...        0 min,  0.147 sec
 * total energy  :  -136.8564582 Eh     change       -0.1685625E-04 Eh
   gradient norm :     0.0033244 Eh/α   predicted    -0.1947916E-04 (  15.56%)
   displ. norm   :     0.0443907 α      lambda       -0.1587215E-04
   maximum displ.:     0.0216995 α      in ANC's #5, #9, #6, ...

........................................................................
.............................. CYCLE   60 ..............................
........................................................................
   1   -138.4728450 -0.138473E+03  0.116E-02    3.11       0.0  T
   2   -138.4728452 -0.204552E-06  0.678E-03    3.11       1.9  T
   3   -138.4728448  0.396317E-06  0.304E-03    3.11       4.2  T
   4   -138.4728453 -0.479742E-06  0.643E-04    3.11      19.7  T
   5   -138.4728453 -0.154449E-07  0.267E-04    3.11      47.6  T
     SCC iter.                  ...        0 min,  0.104 sec
     gradient                   ...        0 min,  0.132 sec
 * total energy  :  -136.8564705 Eh     change       -0.1231687E-04 Eh
   gradient norm :     0.0019309 Eh/α   predicted    -0.7953750E-05 ( -35.42%)
   displ. norm   :     0.2302280 α      lambda       -0.2740868E-04
   maximum displ.:     0.1399772 α      in ANC's #3, #5, #2, ...

........................................................................
.............................. CYCLE   61 ..............................
........................................................................
   1   -138.4738931 -0.138474E+03  0.698E-02    3.12       0.0  T
   2   -138.4738972 -0.418605E-05  0.397E-02    3.12       1.0  T
   3   -138.4738960  0.120931E-05  0.676E-03    3.12       1.9  T
[...]
                  HL-Gap            0.1151223 Eh            3.1326 eV
             Fermi-level           -0.3657478 Eh           -9.9525 eV

 SCC (total)                   0 d,  0 h,  0 min,  0.338 sec
 SCC setup                      ...        0 min,  0.014 sec (  4.189%)
 Dispersion                     ...        0 min,  0.014 sec (  4.168%)
 classical contributions        ...        0 min,  0.008 sec (  2.390%)
 integral evaluation            ...        0 min,  0.102 sec ( 30.071%)
 iterations                     ...        0 min,  0.064 sec ( 18.948%)
 molecular gradient             ...        0 min,  0.133 sec ( 39.465%)
 printout                       ...        0 min,  0.003 sec (  0.741%)

         :::::::::::::::::::::::::::::::::::::::::::::::::::::
         ::                     SUMMARY                     ::
         :::::::::::::::::::::::::::::::::::::::::::::::::::::
         :: total energy            -136.856537116378 Eh    ::
         :: gradient norm              0.000974422404 Eh/a0 ::
         :: HOMO-LUMO gap              3.132637787486 eV    ::
         ::.................................................::
         :: SCC energy              -138.473214129450 Eh    ::
         :: -> isotropic ES            0.227346316381 Eh    ::
         :: -> anisotropic ES         -0.001673598556 Eh    ::
         :: -> anisotropic XC          0.017621523836 Eh    ::
         :: -> dispersion             -0.094001728400 Eh    ::
         :: repulsion energy           1.613729229199 Eh    ::
         :: add. restraining           0.000000000000 Eh    ::
         :: total charge              -0.000000000000 e     ::
         :::::::::::::::::::::::::::::::::::::::::::::::::::::

           -------------------------------------------------
          |                Property Printout                |
           -------------------------------------------------

    * Orbital Energies and Occupations

         #    Occupation            Energy/Eh            Energy/eV
      -------------------------------------------------------------
         1        2.0000           -0.8947092             -24.3463
       ...           ...                  ...                  ...
       105        2.0000           -0.4622464             -12.5784
       106        2.0000           -0.4579616             -12.4618
       107        2.0000           -0.4548251             -12.3764
       108        2.0000           -0.4525031             -12.3132
       109        2.0000           -0.4486867             -12.2094
       110        2.0000           -0.4478600             -12.1869
       111        2.0000           -0.4438248             -12.0771
       112        2.0000           -0.4390335             -11.9467
       113        2.0000           -0.4356469             -11.8546
       114        2.0000           -0.4315391             -11.7428
       115        2.0000           -0.4282737             -11.6539
       116        2.0000           -0.4273388             -11.6285
       117        2.0000           -0.4233090             -11.5188 (HOMO)
       118                         -0.3081866              -8.3862 (LUMO)
       119                         -0.2960762              -8.0566
       120                         -0.2858928              -7.7795
       121                         -0.2807125              -7.6386
       122                         -0.2755352              -7.4977
       123                         -0.2704653              -7.3597
       124                         -0.2649097              -7.2086
       125                         -0.2597326              -7.0677
       126                         -0.2538572              -6.9078
       127                         -0.2377713              -6.4701
       128                         -0.2332936              -6.3482
       ...                                ...                  ...
       200                          1.1649986              31.7012
      -------------------------------------------------------------
                  HL-Gap            0.1151223 Eh            3.1326 eV
             Fermi-level           -0.3657478 Eh           -9.9525 eV

     #   Z          covCN         q      C6AA      α(0)
     1   6 C        2.974    -0.028    28.688     8.786
     2   6 C        3.338     0.486    17.260     6.575
     3   9 F        0.791    -0.215    11.395     3.987
     4   9 F        0.793    -0.198    11.210     3.955
     5   9 F        0.791    -0.215    11.388     3.986
     6   6 C        2.928    -0.021    28.519     8.758
     7   6 C        2.919    -0.020    28.501     8.755
     8   6 C        2.918    -0.016    28.400     8.739
     9   6 C        2.932    -0.021    28.532     8.760
    10   6 C        2.963     0.023    27.478     8.598
    11   6 C        3.830     0.043    19.824     6.335
    12   6 C        3.856     0.040    19.866     6.339
    13   6 C        2.966     0.027    27.393     8.585
    14   6 C        2.976    -0.024    28.607     8.773
    15   6 C        3.336     0.486    17.283     6.584
    16   9 F        0.791    -0.212    11.362     3.982
    17   9 F        0.792    -0.201    11.248     3.962
    18   9 F        0.791    -0.208    11.318     3.974
    19   6 C        2.926    -0.018    28.458     8.748
    20   6 C        2.919    -0.021    28.519     8.757
    21   6 C        2.919    -0.016    28.417     8.742
    22   6 C        2.925    -0.028    28.699     8.785
    23   7 N        2.772    -0.120    23.615     7.217
    24   6 C        2.754     0.275    22.345     7.741
    25   6 C        3.130     0.089    25.828     8.320
    26   6 C        3.017    -0.044    29.081     8.846
    27   6 C        3.015    -0.045    29.099     8.849
    28   6 C        3.125     0.141    24.770     8.150
    29   6 C        1.894     0.117    28.228     8.581
    30   7 N        0.911    -0.183    24.957     7.225
    31   8 O        1.728    -0.163    16.761     5.528
    32   8 O        0.858    -0.394    21.564     6.226
    33   6 C        3.775     0.087    19.173     6.239
    34   6 C        2.688     0.357    20.948     7.490
    35   8 O        1.660    -0.362    20.132     6.057
    36   8 O        0.856    -0.386    21.410     6.204
    37   7 N        2.780    -0.114    23.490     7.198
    38   6 C        2.753     0.272    22.410     7.752
    39   6 C        3.127     0.088    25.853     8.325
    40   6 C        3.016    -0.057    29.401     8.894
    41   6 C        3.018    -0.040    28.965     8.828
    42   6 C        3.121     0.129    25.019     8.192
    43   6 C        1.894     0.114    28.294     8.591
    44   7 N        0.911    -0.197    25.272     7.271
    45   8 O        1.728    -0.166    16.806     5.535
    46   8 O        0.859    -0.395    21.590     6.230
    47   1 H        0.926     0.070     2.083     2.257
    48   1 H        0.926     0.062     2.176     2.307
    49   1 H        0.926     0.062     2.179     2.308
    50   1 H        0.926     0.057     2.240     2.340
    51   1 H        0.923     0.067     2.116     2.275
    52   1 H        0.924     0.086     1.920     2.167
    53   1 H        0.926     0.071     2.080     2.255
    54   1 H        0.926     0.061     2.188     2.313
    55   1 H        0.926     0.058     2.219     2.329
    56   1 H        0.926     0.054     2.275     2.358
    57   1 H        0.926     0.070     2.083     2.257
    58   1 H        0.926     0.068     2.110     2.272
    59   1 H        0.923     0.088     1.896     2.153
    60   1 H        0.804     0.351     0.586     1.202
    61   1 H        0.926     0.063     2.164     2.300
    62   1 H        0.926     0.068     2.108     2.271

 Mol. C6AA /au·bohr⁶  :      57614.861495
 Mol. C8AA /au·bohr⁸  :    1408424.363904
 Mol. α(0) /au        :        369.319716


Wiberg/Mayer (AO) data.
largest (>0.10) Wiberg bond orders for each atom

 ---------------------------------------------------------------------------
     #   Z sym  total        # sym  WBO       # sym  WBO       # sym  WBO
 ---------------------------------------------------------------------------
     1   6 C    3.969 --     6 C    1.407    10 C    1.388     2 C    0.950
                             8 C    0.105
     2   6 C    3.819 --     4 F    0.958     1 C    0.950     3 F    0.940
                             5 F    0.932
     3   9 F    1.066 --     2 C    0.940
     4   9 F    1.082 --     2 C    0.958
     5   9 F    1.065 --     2 C    0.932
     6   6 C    3.987 --     7 C    1.447     1 C    1.407    47 H    0.965
                             9 C    0.108
     7   6 C    3.988 --     6 C    1.447     8 C    1.429    48 H    0.968
                            10 C    0.108
     8   6 C    3.989 --     9 C    1.452     7 C    1.429    49 H    0.968
                             1 C    0.105
     9   6 C    3.988 --     8 C    1.452    10 C    1.402    50 H    0.963
                             6 C    0.108
    10   6 C    3.986 --     9 C    1.402     1 C    1.388    11 C    0.998
                             7 C    0.108
    11   6 C    3.961 --    10 C    0.998    12 C    0.958    51 H    0.948
                            37 N    0.948
    12   6 C    3.963 --    13 C    1.000    11 C    0.958    23 N    0.952
                            52 H    0.937
    13   6 C    3.985 --    22 C    1.419    14 C    1.373    12 C    1.000
                            20 C    0.108
    14   6 C    3.970 --    19 C    1.423    13 C    1.373    15 C    0.950
                            21 C    0.107
    15   6 C    3.822 --    17 F    0.953    14 C    0.950    18 F    0.945
                            16 F    0.936
    16   9 F    1.069 --    15 C    0.936
    17   9 F    1.076 --    15 C    0.953
    18   9 F    1.073 --    15 C    0.945
    19   6 C    3.987 --    20 C    1.435    14 C    1.423    53 H    0.965
                            22 C    0.107
    20   6 C    3.989 --    21 C    1.441    19 C    1.435    54 H    0.968
                            13 C    0.108
    21   6 C    3.990 --    20 C    1.441    22 C    1.438    55 H    0.969
                            14 C    0.107
    22   6 C    3.989 --    21 C    1.438    13 C    1.419    56 H    0.962
                            19 C    0.107
    23   7 N    3.412 --    24 C    1.162    33 C    0.985    12 C    0.952
                            32 O    0.176
    24   6 C    3.953 --    32 O    1.698    23 N    1.162    25 C    1.004
    25   6 C    3.912 --    26 C    1.491    31 O    1.125    24 C    1.004
                            28 C    0.121
    26   6 C    3.982 --    25 C    1.491    27 C    1.360    57 H    0.970
    27   6 C    3.984 --    28 C    1.461    26 C    1.360    58 H    0.972
    28   6 C    3.911 --    27 C    1.461    31 O    1.117    29 C    1.102
                            25 C    0.121
    29   6 C    3.956 --    30 N    2.807    28 C    1.102
    30   7 N    3.005 --    29 C    2.807
    31   8 O    2.465 --    25 C    1.125    28 C    1.117
    32   8 O    2.041 --    24 C    1.698    23 N    0.176
    33   6 C    3.963 --    23 N    0.985    37 N    0.962    59 H    0.945
                            34 C    0.918
    34   6 C    3.923 --    36 O    1.774    35 O    1.155    33 C    0.918
    35   8 O    2.219 --    34 C    1.155    60 H    0.852    36 O    0.182
    36   8 O    2.063 --    34 C    1.774    35 O    0.182
    37   7 N    3.467 --    38 C    1.222    33 C    0.962    11 C    0.948
                            46 O    0.203
    38   6 C    3.955 --    46 O    1.700    37 N    1.222    39 C    0.950
    39   6 C    3.915 --    40 C    1.525    45 O    1.143    38 C    0.950
                            42 C    0.129
    40   6 C    3.982 --    39 C    1.525    41 C    1.338    61 H    0.971
    41   6 C    3.985 --    42 C    1.481    40 C    1.338    62 H    0.972
    42   6 C    3.906 --    41 C    1.481    43 C    1.108    45 O    1.092
                            39 C    0.129
    43   6 C    3.955 --    44 N    2.799    42 C    1.108
    44   7 N    3.007 --    43 C    2.799
    45   8 O    2.456 --    39 C    1.143    42 C    1.092
    46   8 O    2.043 --    38 C    1.700    37 N    0.203
    47   1 H    0.995 --     6 C    0.965
    48   1 H    0.995 --     7 C    0.968
    49   1 H    0.995 --     8 C    0.968
    50   1 H    0.996 --     9 C    0.963
    51   1 H    0.995 --    11 C    0.948
    52   1 H    0.991 --    12 C    0.937
    53   1 H    0.994 --    19 C    0.965
    54   1 H    0.995 --    20 C    0.968
    55   1 H    0.996 --    21 C    0.969
    56   1 H    0.997 --    22 C    0.962
    57   1 H    0.994 --    26 C    0.970
    58   1 H    0.995 --    27 C    0.972
    59   1 H    0.992 --    33 C    0.945
    60   1 H    0.877 --    35 O    0.852
    61   1 H    0.995 --    40 C    0.971
    62   1 H    0.995 --    41 C    0.972
 ---------------------------------------------------------------------------

Topologies differ in total number of bonds
Writing topology from bond orders to xtbtopo.mol

molecular dipole:
                 x           y           z       tot (Debye)
 q only:       -1.402      -2.048      -2.147
   full:       -1.596      -2.287      -2.253       9.113
molecular quadrupole (traceless):
                xx          xy          yy          xz          yz          zz
 q only:       -7.075      -7.323      17.024      16.354       8.526      -9.949
  q+dip:       -6.873     -19.072       8.131      20.286       2.050      -1.259
   full:       -2.950     -20.172       8.142      17.843       0.359      -5.192

           -------------------------------------------------
          |                Geometry Summary                 |
           -------------------------------------------------

      molecular mass/u    :      642.4627903
   center of mass at/Å    :        0.1006383       0.2100546       0.3077626
  moments of inertia/u·Å² :        0.5575670E+04   0.6725631E+04   0.9789034E+04
rotational constants/cm⁻¹ :        0.3023427E-02   0.2506476E-02   0.1722094E-02

 * 57 selected distances

     #   Z          #   Z                                           value/Å
     2   6 C        3   9 F                                       1.3446085
     2   6 C        4   9 F                                       1.3381972
     2   6 C        5   9 F                                       1.3531689
     1   6 C        6   6 C                                       1.3936509
     6   6 C        7   6 C                                       1.3799439
     7   6 C        8   6 C                                       1.3828340
     8   6 C        9   6 C                                       1.3799344
     1   6 C       10   6 C                                       1.3990877
     9   6 C       10   6 C                                       1.3945617
    11   6 C       12   6 C                                       1.5405500 (max)
    13   6 C       14   6 C                                       1.4020032
    15   6 C       16   9 F                                       1.3489457
    15   6 C       17   9 F                                       1.3411366
    15   6 C       18   9 F                                       1.3434996
    14   6 C       19   6 C                                       1.3893511
    19   6 C       20   6 C                                       1.3822152
    20   6 C       21   6 C                                       1.3815298
    13   6 C       22   6 C                                       1.3883701
    21   6 C       22   6 C                                       1.3833763
    12   6 C       23   7 N                                       1.4646017
    23   7 N       24   6 C                                       1.3728151
    25   6 C       26   6 C                                       1.3767397
    26   6 C       27   6 C                                       1.4031716
    27   6 C       28   6 C                                       1.3799539
    29   6 C       30   7 N                                       1.1459472
    25   6 C       31   8 O                                       1.3448413
    28   6 C       31   8 O                                       1.3435193
    24   6 C       32   8 O                                       1.2104453
    23   7 N       33   6 C                                       1.4468336
    34   6 C       35   8 O                                       1.3306652
    34   6 C       36   8 O                                       1.1982667
    11   6 C       37   7 N                                       1.4628338
    33   6 C       37   7 N                                       1.4618343
    37   7 N       38   6 C                                       1.3540484
    39   6 C       40   6 C                                       1.3714509
    40   6 C       41   6 C                                       1.4066535
    41   6 C       42   6 C                                       1.3761011
    43   6 C       44   7 N                                       1.1466778
    39   6 C       45   8 O                                       1.3409543
    42   6 C       45   8 O                                       1.3519703
    38   6 C       46   8 O                                       1.2097948
     6   6 C       47   1 H                                       1.0788420
     7   6 C       48   1 H                                       1.0782834
     8   6 C       49   1 H                                       1.0789154
     9   6 C       50   1 H                                       1.0799707
    11   6 C       51   1 H                                       1.1001589
    12   6 C       52   1 H                                       1.0936801
    19   6 C       53   1 H                                       1.0788600
    20   6 C       54   1 H                                       1.0784324
    21   6 C       55   1 H                                       1.0792188
    22   6 C       56   1 H                                       1.0764306
    26   6 C       57   1 H                                       1.0705370
    27   6 C       58   1 H                                       1.0708134
    33   6 C       59   1 H                                       1.0999089
    35   8 O       60   1 H                                       0.9717343 (min)
    40   6 C       61   1 H                                       1.0705325
    41   6 C       62   1 H                                       1.0705055

 * 6 distinct bonds (by element types)

   Z      Z             #   av. dist./Å        max./Å        min./Å
   1 H    6 C          15     1.0803393     1.1001589     1.0705055
   6 C    6 C          19     1.3953410     1.5405500     1.3714509
   6 C    7 N           8     1.3569490     1.4646017     1.1459472
   1 H    8 O           1     0.9717343     0.9717343     0.9717343
   6 C    8 O           8     1.2913072     1.3519703     1.1982667
   6 C    9 F           6     1.3449261     1.3531689     1.3381972


optimized geometry written to: xtbopt.xyz


           -------------------------------------------------
          | TOTAL ENERGY             -136.856537116378 Eh   |
          | GRADIENT NORM               0.000974422404 Eh/α |
          | HOMO-LUMO GAP               3.132637787486 eV   |
           -------------------------------------------------

------------------------------------------------------------------------
 * finished run on 2022/03/17 at 01:38:58.797     
------------------------------------------------------------------------
 total:
 * wall-time:     0 d,  0 h,  0 min, 33.562 sec
 *  cpu-time:     0 d,  0 h, 12 min,  1.932 sec
 * ratio c/w:    21.511 speedup
 SCF:
 * wall-time:     0 d,  0 h,  0 min,  0.543 sec
 *  cpu-time:     0 d,  0 h,  0 min,  9.266 sec
 * ratio c/w:    17.056 speedup
 ANC optimizer:
 * wall-time:     0 d,  0 h,  0 min, 32.881 sec
 *  cpu-time:     0 d,  0 h, 11 min, 48.440 sec
 * ratio c/w:    21.546 speedup

