      -----------------------------------------------------------      
     |                   =====================                   |     
     |                           x T B                           |     
     |                   =====================                   |     
     |                         S. Grimme                         |     
     |          Mulliken Center for Theoretical Chemistry        |     
     |                    University of Bonn                     |     
      -----------------------------------------------------------      

   * xtb version 6.3.3 (4ae9cef) compiled by 'conda@95abc7406d43' on 2020-10-14

   xtb is free software: you can redistribute it and/or modify it under
   the terms of the GNU Lesser General Public License as published by
   the Free Software Foundation, either version 3 of the License, or
   (at your option) any later version.
   
   xtb is distributed in the hope that it will be useful,
   but WITHOUT ANY WARRANTY; without even the implied warranty of
   MERCHANTABILITY or FITNESS FOR A PARTICULAR PURPOSE.  See the
   GNU Lesser General Public License for more details.
   
   Cite this work as:
   * C. Bannwarth, E. Caldeweyher, S. Ehlert, A. Hansen, P. Pracht,
     J. Seibert, S. Spicher, S. Grimme, WIREs Comput. Mol. Sci., 2020,
     e01493. DOI: 10.1002/wcms.1493
   
   for GFN2-xTB:
   * S. Grimme, C. Bannwarth, P. Shushkov, J. Chem. Theory Comput., 2017,
     13, 1989-2009. DOI: 10.1021/acs.jctc.7b00118
   for GFN1-xTB:
   * C. Bannwarth, S. Ehlert and S. Grimme., J. Chem. Theory Comput., 2019,
     15, 1652-1671. DOI: 10.1021/acs.jctc.8b01176
   for GFN0-xTB:
   * P. Pracht, E. Caldeweyher, S. Ehlert, S. Grimme, ChemRxiv, 2019, preprint.
     DOI: 10.26434/chemrxiv.8326202.v1
   for GFN-FF:
   * S. Spicher and S. Grimme, Angew. Chem. Int. Ed., 2020, 59, 15665-15673.
     DOI: 10.1002/anie.202004239
   
   for DFT-D4:
   * E. Caldeweyher, C. Bannwarth and S. Grimme, J. Chem. Phys., 2017,
     147, 034112. DOI: 10.1063/1.4993215
   * E. Caldeweyher, S. Ehlert, A. Hansen, H. Neugebauer, S. Spicher,
     C. Bannwarth and S. Grimme, J. Chem. Phys., 2019, 150, 154122.
     DOI: 10.1063/1.5090222
   * E. Caldeweyher, J.-M. Mewes, S. Ehlert and S. Grimme, Phys. Chem. Chem. Phys.
     2020, 22, 8499-8512. DOI: 10.1039/D0CP00502A
   
   for sTDA-xTB:
   * S. Grimme and C. Bannwarth, J. Chem. Phys., 2016, 145, 054103.
     DOI: 10.1063/1.4959605
   
   in the mass-spec context:
   * V. Asgeirsson, C. Bauer and S. Grimme, Chem. Sci., 2017, 8, 4879.
     DOI: 10.1039/c7sc00601b
   * J. Koopman and S. Grimme, ACS Omega 2019, 4, 12, 15120-15133.
     DOI: 10.1021/acsomega.9b02011
   
   for metadynamics refer to:
   * S. Grimme, J. Chem. Theory Comput., 2019, 155, 2847-2862
     DOI: 10.1021/acs.jctc.9b00143
   
   with help from (in alphabetical order)
   C. Bannwarth, F. Bohle, G. Brandenburg, E. Caldeweyher, M. Checinski,
   S. Dohm, S. Ehlert, S. Ehrlich, F. März, H. Neugebauer, J. Pisarek,
   P. Pracht, P. Shushkov, and S. Spicher.
   
 * started run on 2022/03/17 at 02:19:11.291     

           -------------------------------------------------
          |                Calculation Setup                |
           -------------------------------------------------

          program call               : xtb alk_1.xyz --opt --chrg 0 --uhf 0 --gfn 2
          coordinate file            : alk_1.xyz
          omp threads                :                    64
          number of atoms            :                    19
          number of electrons        :                    52
          charge                     :                     0
          spin                       :                   0.0
          first test random number   :      0.44387699827375

   ID    Z sym.   atoms
    1    6 C      1-7, 9, 10
    2    9 F      8
    3    1 H      11-19

           -------------------------------------------------
          |                 G F N 2 - x T B                 |
           -------------------------------------------------

        Reference                      10.1021/acs.jctc.8b01176
      * Hamiltonian:
        H0-scaling (s, p, d)           1.850000    2.230000    2.230000
        zeta-weighting                 0.500000
      * Dispersion:
        s8                             2.700000
        a1                             0.520000
        a2                             5.000000
        s9                             5.000000
      * Repulsion:
        kExp                           1.500000    1.000000
        rExp                           1.000000
      * Coulomb:
        alpha                          2.000000
        third order                    shell-resolved
        anisotropic                    true
        a3                             3.000000
        a5                             4.000000
        cn-shift                       1.200000
        cn-exp                         4.000000
        max-rad                        5.000000


          ...................................................
          :                      SETUP                      :
          :.................................................:
          :  # basis functions                  49          :
          :  # atomic orbitals                  49          :
          :  # shells                           29          :
          :  # electrons                        52          :
          :  max. iterations                   250          :
          :  Hamiltonian                  GFN2-xTB          :
          :  restarted?                      false          :
          :  GBSA solvation                  false          :
          :  PC potential                    false          :
          :  electronic temp.          300.0000000     K    :
          :  accuracy                    1.0000000          :
          :  -> integral cutoff          0.2500000E+02      :
          :  -> integral neglect         0.1000000E-07      :
          :  -> SCF convergence          0.1000000E-05 Eh   :
          :  -> wf. convergence          0.1000000E-03 e    :
          :  Broyden damping             0.4000000          :
          ...................................................

 iter      E             dE          RMSdq      gap      omega  full diag
   1    -28.9488452 -0.289488E+02  0.412E+00    4.15       0.0  T
   2    -28.9771980 -0.283528E-01  0.251E+00    4.42       1.0  T
   3    -28.9690302  0.816783E-02  0.118E+00    4.18       1.0  T
   4    -28.9816717 -0.126415E-01  0.379E-01    4.33       1.0  T
   5    -28.9826867 -0.101499E-02  0.166E-01    4.35       1.0  T
   6    -28.9831089 -0.422238E-03  0.497E-02    4.34       1.0  T
   7    -28.9831185 -0.955538E-05  0.249E-02    4.33       1.0  T
   8    -28.9831229 -0.449044E-05  0.958E-03    4.34       2.4  T
   9    -28.9831232 -0.235680E-06  0.155E-03    4.33      14.8  T
  10    -28.9831232 -0.237568E-07  0.588E-04    4.34      39.0  T
  11    -28.9831232 -0.211988E-08  0.331E-04    4.34      69.3  T

   *** convergence criteria satisfied after 11 iterations ***

         #    Occupation            Energy/Eh            Energy/eV
      -------------------------------------------------------------
         1        2.0000           -0.8144994             -22.1637
       ...           ...                  ...                  ...
        20        2.0000           -0.4619529             -12.5704
        21        2.0000           -0.4445600             -12.0971
        22        2.0000           -0.4408031             -11.9949
        23        2.0000           -0.4303476             -11.7104
        24        2.0000           -0.4161654             -11.3244
        25        2.0000           -0.4054359             -11.0325
        26        2.0000           -0.3990068             -10.8575 (HOMO)
        27                         -0.2396935              -6.5224 (LUMO)
        28                         -0.2346982              -6.3865
        29                         -0.2115139              -5.7556
        30                         -0.1107608              -3.0140
        31                          0.0602985               1.6408
       ...                                ...                  ...
        49                          0.6208201              16.8934
      -------------------------------------------------------------
                  HL-Gap            0.1593132 Eh            4.3351 eV
             Fermi-level           -0.3193501 Eh           -8.6900 eV

 SCC (total)                   0 d,  0 h,  0 min,  0.212 sec
 SCC setup                      ...        0 min,  0.012 sec (  5.568%)
 Dispersion                     ...        0 min,  0.014 sec (  6.403%)
 classical contributions        ...        0 min,  0.020 sec (  9.392%)
 integral evaluation            ...        0 min,  0.026 sec ( 12.215%)
 iterations                     ...        0 min,  0.008 sec (  3.708%)
 molecular gradient             ...        0 min,  0.133 sec ( 62.617%)
 printout                       ...        0 min,  0.000 sec (  0.062%)

         :::::::::::::::::::::::::::::::::::::::::::::::::::::
         ::                     SUMMARY                     ::
         :::::::::::::::::::::::::::::::::::::::::::::::::::::
         :: total energy             -28.548749895391 Eh    ::
         :: gradient norm              0.042967572963 Eh/a0 ::
         :: HOMO-LUMO gap              4.335134098574 eV    ::
         ::.................................................::
         :: SCC energy               -28.983123206176 Eh    ::
         :: -> isotropic ES            0.013410833723 Eh    ::
         :: -> anisotropic ES          0.002330978920 Eh    ::
         :: -> anisotropic XC          0.013450539682 Eh    ::
         :: -> dispersion             -0.014884063945 Eh    ::
         :: repulsion energy           0.434338840970 Eh    ::
         :: add. restraining           0.000000000000 Eh    ::
         :: total charge              -0.000000000000 e     ::
         :::::::::::::::::::::::::::::::::::::::::::::::::::::

      ----------------------------------------------------------- 
     |                   =====================                   |
     |                        A N C O P T                        |
     |                   =====================                   |
     |               Approximate Normal Coordinate               |
     |                Rational Function Optimizer                |
      ----------------------------------------------------------- 

          ...................................................
          :                      SETUP                      :
          :.................................................:
          :   optimization level            normal          :
          :   max. optcycles                   200          :
          :   ANC micro-cycles                  20          :
          :   degrees of freedom                51          :
          :.................................................:
          :   RF solver                   davidson          :
          :   write xtbopt.log                true          :
          :   linear?                        false          :
          :   energy convergence         0.5000000E-05 Eh   :
          :   grad. convergence          0.1000000E-02 Eh/α :
          :   maximium RF displ.         1.0000000          :
          :   Hlow (freq-cutoff)         0.1000000E-01      :
          :   Hmax (freq-cutoff)         5.0000000          :
          :   S6 in model hess.         20.0000000          :
          ...................................................

generating ANC from model Hessian ...
Using Lindh-Hessian (1995)
 Shifting diagonal of input Hessian by    8.2418163610257240E-003
 Lowest  eigenvalues of input Hessian
    0.000000    0.000000    0.000000    0.000000    0.000000    0.000000
    0.010000    0.010228    0.011643    0.016801    0.022332    0.023168
    0.025972    0.031237    0.031779    0.033169    0.047039    0.051899
 Highest eigenvalues
    1.553185    1.694669    1.831442    1.858680    1.965206    2.068804


........................................................................
.............................. CYCLE    1 ..............................
........................................................................
   1    -28.9831232 -0.289831E+02  0.638E-05    4.34       0.0  T
   2    -28.9831232 -0.247766E-10  0.418E-05    4.34     548.6  T
   3    -28.9831232 -0.131166E-10  0.234E-05    4.34     978.7  T
     SCC iter.                  ...        0 min,  0.004 sec
     gradient                   ...        0 min,  0.141 sec
 * total energy  :   -28.5487499 Eh     change       -0.5789964E-09 Eh
   gradient norm :     0.0429653 Eh/α   predicted     0.0000000E+00 (-100.00%)
   displ. norm   :     0.1548815 α      lambda       -0.3485641E-02
   maximum displ.:     0.0539368 α      in ANC's #10, #16, #30, ...

........................................................................
.............................. CYCLE    2 ..............................
........................................................................
   1    -29.0090020 -0.290090E+02  0.142E-01    4.42       0.0  T
   2    -29.0090123 -0.102851E-04  0.868E-02    4.42       1.0  T
   3    -29.0089890  0.232444E-04  0.411E-02    4.42       1.0  T
   4    -29.0090164 -0.273538E-04  0.755E-03    4.42       3.0  T
   5    -29.0090171 -0.721304E-06  0.362E-03    4.42       6.3  T
   6    -29.0090172 -0.123347E-06  0.122E-03    4.42      18.9  T
   7    -29.0090172 -0.604918E-08  0.492E-04    4.42      46.6  T
   8    -29.0090172 -0.554941E-09  0.176E-04    4.42     130.4  T
     SCC iter.                  ...        0 min,  0.005 sec
     gradient                   ...        0 min,  0.131 sec
 * total energy  :   -28.5508605 Eh     change       -0.2110565E-02 Eh
   gradient norm :     0.0118743 Eh/α   predicted    -0.1784673E-02 ( -15.44%)
   displ. norm   :     0.0986249 α      lambda       -0.3598701E-03
   maximum displ.:     0.0572626 α      in ANC's #1, #4, #2, ...

........................................................................
.............................. CYCLE    3 ..............................
........................................................................
   1    -29.0157464 -0.290157E+02  0.759E-02    4.45       0.0  T
   2    -29.0157500 -0.357592E-05  0.463E-02    4.44       1.0  T
   3    -29.0157454  0.454290E-05  0.196E-02    4.44       1.2  T
   4    -29.0157511 -0.569073E-05  0.414E-03    4.44       5.5  T
   5    -29.0157513 -0.197496E-06  0.191E-03    4.44      12.0  T
   6    -29.0157514 -0.415706E-07  0.560E-04    4.44      41.0  T
   7    -29.0157514 -0.184213E-08  0.229E-04    4.44     100.0  T
     SCC iter.                  ...        0 min,  0.005 sec
     gradient                   ...        0 min,  0.159 sec
 * total energy  :   -28.5510529 Eh     change       -0.1924569E-03 Eh
   gradient norm :     0.0043916 Eh/α   predicted    -0.1817006E-03 (  -5.59%)
   displ. norm   :     0.0766777 α      lambda       -0.1114177E-03
   maximum displ.:     0.0490807 α      in ANC's #1, #3, #11, ...

........................................................................
.............................. CYCLE    4 ..............................
........................................................................
   1    -29.0165843 -0.290166E+02  0.521E-02    4.44       0.0  T
   2    -29.0165854 -0.113910E-05  0.313E-02    4.44       1.0  T
   3    -29.0165836  0.182703E-05  0.126E-02    4.44       1.8  T
   4    -29.0165859 -0.229775E-05  0.202E-03    4.44      11.4  T
   5    -29.0165859 -0.319374E-07  0.112E-03    4.44      20.4  T
   6    -29.0165859 -0.153674E-07  0.304E-04    4.44      75.6  T
   7    -29.0165859 -0.522142E-09  0.140E-04    4.44     163.5  T
     SCC iter.                  ...        0 min,  0.009 sec
     gradient                   ...        0 min,  0.132 sec
 * total energy  :   -28.5511062 Eh     change       -0.5328808E-04 Eh
   gradient norm :     0.0027912 Eh/α   predicted    -0.5603719E-04 (   5.16%)
   displ. norm   :     0.0587388 α      lambda       -0.4710118E-04
   maximum displ.:     0.0467569 α      in ANC's #1, #3, #2, ...

........................................................................
.............................. CYCLE    5 ..............................
........................................................................
   1    -29.0151874 -0.290152E+02  0.366E-02    4.43       0.0  T
   2    -29.0151876 -0.145213E-06  0.217E-02    4.43       1.1  T
   3    -29.0151873  0.254433E-06  0.459E-03    4.43       5.0  T
   4    -29.0151876 -0.313621E-06  0.712E-04    4.43      32.2  T
   5    -29.0151876 -0.165943E-08  0.310E-04    4.43      74.0  T
     SCC iter.                  ...        0 min,  0.006 sec
     gradient                   ...        0 min,  0.065 sec
 * total energy  :   -28.5511392 Eh     change       -0.3296197E-04 Eh
   gradient norm :     0.0014406 Eh/α   predicted    -0.2363484E-04 ( -28.30%)
   displ. norm   :     0.0744095 α      lambda       -0.1818050E-04
   maximum displ.:     0.0609737 α      in ANC's #1, #3, #2, ...

........................................................................
.............................. CYCLE    6 ..............................
........................................................................
   1    -29.0139755 -0.290140E+02  0.421E-02    4.42       0.0  T
   2    -29.0139755 -0.552329E-07  0.249E-02    4.42       1.0  T
   3    -29.0139755  0.949555E-08  0.157E-03    4.42      14.6  T
   4    -29.0139755 -0.358867E-07  0.590E-04    4.42      38.9  T
   5    -29.0139755 -0.333987E-09  0.298E-04    4.42      76.9  T
     SCC iter.                  ...        0 min,  0.004 sec
     gradient                   ...        0 min,  0.136 sec
 * total energy  :   -28.5511555 Eh     change       -0.1634422E-04 Eh
   gradient norm :     0.0013555 Eh/α   predicted    -0.9112981E-05 ( -44.24%)
   displ. norm   :     0.0377730 α      lambda       -0.6830992E-05
   maximum displ.:     0.0313794 α      in ANC's #1, #3, #2, ...

........................................................................
.............................. CYCLE    7 ..............................
........................................................................
   1    -29.0144297 -0.290144E+02  0.175E-02    4.42       0.0  T
   2    -29.0144297 -0.210463E-07  0.103E-02    4.42       2.2  T
   3    -29.0144295  0.154494E-06  0.321E-03    4.42       7.1  T
   4    -29.0144297 -0.175374E-06  0.388E-04    4.42      59.1  T
   5    -29.0144297 -0.900414E-09  0.216E-04    4.42     106.4  T
     SCC iter.                  ...        0 min,  0.008 sec
     gradient                   ...        0 min,  0.128 sec
 * total energy  :   -28.5511637 Eh     change       -0.8203014E-05 Eh
   gradient norm :     0.0007735 Eh/α   predicted    -0.3419286E-05 ( -58.32%)
   displ. norm   :     0.0427786 α      lambda       -0.5738882E-05
   maximum displ.:     0.0355126 α      in ANC's #1, #2, #3, ...

........................................................................
.............................. CYCLE    8 ..............................
........................................................................
   1    -29.0149142 -0.290149E+02  0.222E-02    4.43       0.0  T
   2    -29.0149142 -0.479807E-07  0.131E-02    4.43       1.8  T
   3    -29.0149141  0.170044E-06  0.345E-03    4.43       6.7  T
   4    -29.0149143 -0.195076E-06  0.604E-04    4.43      38.0  T
   5    -29.0149143 -0.353030E-08  0.274E-04    4.43      83.7  T
     SCC iter.                  ...        0 min,  0.004 sec
     gradient                   ...        0 min,  0.137 sec
 * total energy  :   -28.5511695 Eh     change       -0.5752443E-05 Eh
   gradient norm :     0.0003375 Eh/α   predicted    -0.2873039E-05 ( -50.06%)
   displ. norm   :     0.0291192 α      lambda       -0.2266244E-05
   maximum displ.:     0.0247085 α      in ANC's #1, #2, #9, ...

........................................................................
.............................. CYCLE    9 ..............................
........................................................................
   1    -29.0149972 -0.290150E+02  0.143E-02    4.43       0.0  T
   2    -29.0149972 -0.101321E-07  0.842E-03    4.43       2.7  T
   3    -29.0149972  0.382302E-07  0.154E-03    4.43      14.9  T
   4    -29.0149973 -0.449450E-07  0.255E-04    4.43      89.8  T
   5    -29.0149973 -0.369290E-09  0.151E-04    4.43     151.6  T
     SCC iter.                  ...        0 min,  0.004 sec
     gradient                   ...        0 min,  0.142 sec
 * total energy  :   -28.5511718 Eh     change       -0.2361751E-05 Eh
   gradient norm :     0.0003678 Eh/α   predicted    -0.1137676E-05 ( -51.83%)
   displ. norm   :     0.0213535 α      lambda       -0.1297222E-05
   maximum displ.:     0.0169844 α      in ANC's #1, #2, #3, ...

   *** GEOMETRY OPTIMIZATION CONVERGED AFTER 9 ITERATIONS ***

------------------------------------------------------------------------
 total energy gain   :        -0.0024219 Eh       -1.5198 kcal/mol
 total RMSD          :         0.1065697 a0        0.0564 Å
 total power (kW/mol):        -0.7065320 (step)   -3.2950 (real)
------------------------------------------------------------------------

 ANCopt (total)                0 d,  0 h,  0 min,  1.930 sec
 optimizer setup                ...        0 min,  0.000 sec (  0.003%)
 model hessian                  ...        0 min,  0.003 sec (  0.132%)
 ANC generation                 ...        0 min,  0.001 sec (  0.029%)
 coordinate transformation      ...        0 min,  0.000 sec (  0.003%)
 single point calculation       ...        0 min,  1.822 sec ( 94.404%)
 optimization log               ...        0 min,  0.001 sec (  0.026%)
 hessian update                 ...        0 min,  0.103 sec (  5.352%)
 rational function              ...        0 min,  0.001 sec (  0.026%)

================
 final structure:
================
19
 xtb: 6.3.3 (4ae9cef)
C        -2.98240849437795    1.16231642348187   -0.52329208952859
C        -2.15637787754359    0.48866527431887    0.25348003777004
C        -1.39972832718187   -0.73604122454339   -0.17157797052008
C         0.07904638742796   -0.49602770754899   -0.02267380470562
C         0.76695404037759    0.22510072409233   -0.99164677560562
C         2.11800454058552    0.48546630814333   -0.85839334000929
C         2.77626197923983    0.01729484975706    0.26403596647792
F         4.09736925724694    0.26520030298094    0.40246029794644
C         2.11968415901225   -0.69736248842290    1.24776159378394
C         0.76745204268810   -0.94761770648872    1.09577033975107
H        -3.50342598089283    2.03869299093734   -0.17786102823487
H        -3.18119932338099    0.85978910050945   -1.53860174020914
H        -1.96857660214309    0.81236702364314    1.26895428308844
H        -1.64028008371268   -0.97385018716144   -1.20913972920508
H        -1.69846201261441   -1.57764228990337    0.45869320401069
H         0.23730754962831    0.58658812407233   -1.86047059653186
H         2.66122916452052    1.04113410897228   -1.60634115195643
H         2.66326867456465   -1.04781988411709    2.11094333296129
H         0.24388290655573   -1.50625374272304    1.85789717071678

 Bond Distances (Angstroems)
 ---------------------------
C1-C2=1.3189         C1-H11=1.0765        C1-H12=1.0779        C2-C1=1.3189         C2-C3=1.5010         C2-H13=1.0822        
C3-C2=1.5010         C3-C4=1.5055         C3-H14=1.0913        C3-H15=1.0931        C4-C3=1.5055         C4-C5=1.3900         
C4-C10=1.3888        C5-C4=1.3900         C5-C6=1.3823         C5-H16=1.0798        C6-C5=1.3823         C6-C7=1.3829         
C6-H17=1.0786        C7-C6=1.3829         C7-F8=1.3513         C7-C9=1.3819         F8-C7=1.3513         C9-C7=1.3819         
C9-C10=1.3836        C9-H18=1.0786        C10-C4=1.3888        C10-C9=1.3836        C10-H19=1.0803       H11-C1=1.0765        
H12-C1=1.0779        H13-C2=1.0822        H14-C3=1.0913        H15-C3=1.0931        H16-C5=1.0798        H17-C6=1.0786        
H18-C9=1.0786        H19-C10=1.0803       
 C  H  Rav=1.0820 sigma=0.0056  Rmin=1.0765  Rmax=1.0931     9
 C  C  Rav=1.4039 sigma=0.0570  Rmin=1.3189  Rmax=1.5055     9
 F  C  Rav=1.3513 sigma=0.0000  Rmin=1.3513  Rmax=1.3513     1

 selected bond angles (degree)
 --------------------
H11-C1-C2=122.00               H12-C1-C2=121.80               H12-C1-H11=116.20              C3-C2-C1=124.45                
H13-C2-C1=120.57               H13-C2-C3=114.98               C4-C3-C2=109.70                H14-C3-C2=109.63               
H14-C3-C4=110.20               H15-C3-C2=109.10               H15-C3-C4=109.52               H15-C3-H14=108.67              
C5-C4-C3=119.99                C10-C4-C3=120.98               C10-C4-C5=119.00               C6-C5-C4=120.94                
H16-C5-C4=119.46               H16-C5-C6=119.60               C7-C6-C5=118.67                H17-C6-C5=121.50               
H17-C6-C7=119.84               F8-C7-C6=119.11                C9-C7-C6=121.78                C9-C7-F8=119.11                
C10-C9-C7=118.67               H18-C9-C7=119.89               H18-C9-C10=121.45              C9-C10-C4=120.94               
H19-C10-C4=119.74              H19-C10-C9=119.32              

 selected dihedral angles (degree)
 ---------------------------------
C3-C2-C1-H11=180.18           C3-C2-C1-H12=  0.78           H13-C2-C1-H11=359.17          H13-C2-C1-H12=179.78          
C4-C3-C2-C1=121.13            C4-C3-C2-H13=302.08           H14-C3-C2-C1=  0.00           H14-C3-C2-H13=180.95          
H15-C3-C2-C1=241.10           H15-C3-C2-H13= 62.05          C5-C4-C3-C2=280.24            C5-C4-C3-H14= 41.03           
C5-C4-C3-H15=160.53           C10-C4-C3-C2= 98.09           C10-C4-C3-H14=218.88          C10-C4-C3-H15=338.38          
C6-C5-C4-C3=178.39            C6-C5-C4-C10=  0.48           H16-C5-C4-C3=358.39           H16-C5-C4-C10=180.49          
C7-C6-C5-C4=359.79            C7-C6-C5-H16=179.79           H17-C6-C5-C4=179.79           H17-C6-C5-H16=359.79          
F8-C7-C6-C5=179.91            F8-C7-C6-H17=359.91           C9-C7-C6-C5=359.92            C9-C7-C6-H17=179.92           
C10-C9-C7-C6=  0.08           C10-C9-C7-F8=180.09           H18-C9-C7-C6=180.02           H18-C9-C7-F8=  0.03           
C9-C10-C4-C3=181.64           C9-C10-C4-C5=359.52           H19-C10-C4-C3=  1.91          H19-C10-C4-C5=179.79          
C4-C10-C9-C7=  0.20           C4-C10-C9-H18=180.26          H19-C10-C9-C7=179.93          H19-C10-C9-H18=  0.00         
           -------------------------------------------------
          |                Final Singlepoint                |
           -------------------------------------------------

          ...................................................
          :                      SETUP                      :
          :.................................................:
          :  # basis functions                  49          :
          :  # atomic orbitals                  49          :
          :  # shells                           29          :
          :  # electrons                        52          :
          :  max. iterations                   250          :
          :  Hamiltonian                  GFN2-xTB          :
          :  restarted?                      false          :
          :  GBSA solvation                  false          :
          :  PC potential                    false          :
          :  electronic temp.          300.0000000     K    :
          :  accuracy                    1.0000000          :
          :  -> integral cutoff          0.2500000E+02      :
          :  -> integral neglect         0.1000000E-07      :
          :  -> SCF convergence          0.1000000E-05 Eh   :
          :  -> wf. convergence          0.1000000E-03 e    :
          :  Broyden damping             0.4000000          :
          ...................................................

 iter      E             dE          RMSdq      gap      omega  full diag
   1    -29.0149973 -0.290150E+02  0.458E-05    4.43       0.0  T
   2    -29.0149973 -0.646239E-11  0.292E-05    4.43     786.5  T
   3    -29.0149973 -0.387601E-11  0.185E-05    4.43    1238.5  T

   *** convergence criteria satisfied after 3 iterations ***

         #    Occupation            Energy/Eh            Energy/eV
      -------------------------------------------------------------
         1        2.0000           -0.8110291             -22.0692
       ...           ...                  ...                  ...
        20        2.0000           -0.4628284             -12.5942
        21        2.0000           -0.4464717             -12.1491
        22        2.0000           -0.4399660             -11.9721
        23        2.0000           -0.4307868             -11.7223
        24        2.0000           -0.4189347             -11.3998
        25        2.0000           -0.4089824             -11.1290
        26        2.0000           -0.4001761             -10.8893 (HOMO)
        27                         -0.2375299              -6.4635 (LUMO)
        28                         -0.2331237              -6.3436
        29                         -0.2057754              -5.5994
        30                         -0.1046613              -2.8480
        31                          0.0555976               1.5129
       ...                                ...                  ...
        49                          0.6521346              17.7455
      -------------------------------------------------------------
                  HL-Gap            0.1626462 Eh            4.4258 eV
             Fermi-level           -0.3188530 Eh           -8.6764 eV

 SCC (total)                   0 d,  0 h,  0 min,  0.236 sec
 SCC setup                      ...        0 min,  0.013 sec (  5.674%)
 Dispersion                     ...        0 min,  0.019 sec (  8.104%)
 classical contributions        ...        0 min,  0.013 sec (  5.491%)
 integral evaluation            ...        0 min,  0.043 sec ( 18.444%)
 iterations                     ...        0 min,  0.003 sec (  1.079%)
 molecular gradient             ...        0 min,  0.144 sec ( 61.131%)
 printout                       ...        0 min,  0.000 sec (  0.050%)

         :::::::::::::::::::::::::::::::::::::::::::::::::::::
         ::                     SUMMARY                     ::
         :::::::::::::::::::::::::::::::::::::::::::::::::::::
         :: total energy             -28.551171829765 Eh    ::
         :: gradient norm              0.000367221572 Eh/a0 ::
         :: HOMO-LUMO gap              4.425828530260 eV    ::
         ::.................................................::
         :: SCC energy               -29.014997255626 Eh    ::
         :: -> isotropic ES            0.014067889199 Eh    ::
         :: -> anisotropic ES          0.001816800539 Eh    ::
         :: -> anisotropic XC          0.012833443594 Eh    ::
         :: -> dispersion             -0.015059310369 Eh    ::
         :: repulsion energy           0.463787553576 Eh    ::
         :: add. restraining           0.000000000000 Eh    ::
         :: total charge              -0.000000000000 e     ::
         :::::::::::::::::::::::::::::::::::::::::::::::::::::

           -------------------------------------------------
          |                Property Printout                |
           -------------------------------------------------

    * Orbital Energies and Occupations

         #    Occupation            Energy/Eh            Energy/eV
      -------------------------------------------------------------
         1        2.0000           -0.8110291             -22.0692
       ...           ...                  ...                  ...
        14        2.0000           -0.5083018             -13.8316
        15        2.0000           -0.4978939             -13.5484
        16        2.0000           -0.4953340             -13.4787
        17        2.0000           -0.4902994             -13.3417
        18        2.0000           -0.4791156             -13.0374
        19        2.0000           -0.4698527             -12.7853
        20        2.0000           -0.4628284             -12.5942
        21        2.0000           -0.4464717             -12.1491
        22        2.0000           -0.4399660             -11.9721
        23        2.0000           -0.4307868             -11.7223
        24        2.0000           -0.4189347             -11.3998
        25        2.0000           -0.4089824             -11.1290
        26        2.0000           -0.4001761             -10.8893 (HOMO)
        27                         -0.2375299              -6.4635 (LUMO)
        28                         -0.2331237              -6.3436
        29                         -0.2057754              -5.5994
        30                         -0.1046613              -2.8480
        31                          0.0555976               1.5129
        32                          0.0909889               2.4759
        33                          0.1178220               3.2061
        34                          0.1279406               3.4814
        35                          0.1405178               3.8237
        36                          0.1518041               4.1308
        37                          0.1656424               4.5074
       ...                                ...                  ...
        49                          0.6521346              17.7455
      -------------------------------------------------------------
                  HL-Gap            0.1626462 Eh            4.4258 eV
             Fermi-level           -0.3188530 Eh           -8.6764 eV

     #   Z          covCN         q      C6AA      α(0)
     1   6 C        2.837    -0.094    30.343     9.027
     2   6 C        2.890    -0.023    28.573     8.764
     3   6 C        3.812    -0.065    21.730     6.635
     4   6 C        2.973     0.014    27.690     8.631
     5   6 C        2.930    -0.037    28.914     8.818
     6   6 C        2.916    -0.050    29.233     8.866
     7   6 C        2.788     0.166    24.413     8.093
     8   9 F        0.787    -0.231    11.557     4.016
     9   6 C        2.916    -0.050    29.245     8.868
    10   6 C        2.929    -0.037    28.930     8.821
    11   1 H        0.926     0.038     2.477     2.461
    12   1 H        0.926     0.038     2.472     2.459
    13   1 H        0.925     0.033     2.540     2.492
    14   1 H        0.924     0.049     2.336     2.390
    15   1 H        0.924     0.049     2.335     2.390
    16   1 H        0.926     0.045     2.387     2.416
    17   1 H        0.926     0.056     2.250     2.345
    18   1 H        0.926     0.056     2.252     2.347
    19   1 H        0.926     0.043     2.414     2.429

 Mol. C6AA /au·bohr⁶  :       4150.926380
 Mol. C8AA /au·bohr⁸  :      99870.398842
 Mol. α(0) /au        :        102.269166


Wiberg/Mayer (AO) data.
largest (>0.10) Wiberg bond orders for each atom

 ---------------------------------------------------------------------------
     #   Z sym  total        # sym  WBO       # sym  WBO       # sym  WBO
 ---------------------------------------------------------------------------
     1   6 C    3.990 --     2 C    1.979    11 H    0.976    12 H    0.975
     2   6 C    3.990 --     1 C    1.979     3 C    1.007    13 H    0.967
     3   6 C    3.997 --     2 C    1.007     4 C    0.998    14 H    0.968
                            15 H    0.959
     4   6 C    3.988 --    10 C    1.414     5 C    1.407     3 C    0.998
     5   6 C    3.991 --     6 C    1.449     4 C    1.407    16 H    0.969
                             9 C    0.111
     6   6 C    3.990 --     5 C    1.449     7 C    1.394    17 H    0.967
                            10 C    0.109
     7   6 C    3.884 --     9 C    1.399     6 C    1.394     8 F    0.954
     8   9 F    1.082 --     7 C    0.954
     9   6 C    3.989 --    10 C    1.442     7 C    1.399    18 H    0.967
                             5 C    0.111
    10   6 C    3.990 --     9 C    1.442     4 C    1.414    19 H    0.968
                             6 C    0.109
    11   1 H    0.998 --     1 C    0.976
    12   1 H    0.999 --     1 C    0.975
    13   1 H    0.999 --     2 C    0.967
    14   1 H    0.997 --     3 C    0.968
    15   1 H    0.997 --     3 C    0.959
    16   1 H    0.998 --     5 C    0.969
    17   1 H    0.997 --     6 C    0.967
    18   1 H    0.997 --     9 C    0.967
    19   1 H    0.998 --    10 C    0.968
 ---------------------------------------------------------------------------

Topologies differ in total number of bonds
Writing topology from bond orders to xtbtopo.mol

molecular dipole:
                 x           y           z       tot (Debye)
 q only:       -0.942      -0.237      -0.105
   full:       -0.947      -0.238      -0.093       2.493
molecular quadrupole (traceless):
                xx          xy          yy          xz          yz          zz
 q only:       -9.351      -0.789       3.841      -1.040      -1.385       5.510
  q+dip:      -11.144      -1.167       2.657      -0.151      -3.616       8.487
   full:      -11.177      -1.153       4.018      -0.949      -1.991       7.159

           -------------------------------------------------
          |                Geometry Summary                 |
           -------------------------------------------------

      molecular mass/u    :      136.1664930
   center of mass at/Å    :        0.7101393      -0.0052184       0.0768865
  moments of inertia/u·Å² :        0.1352814E+03   0.7380633E+03   0.8118312E+03
rotational constants/cm⁻¹ :        0.1246116E+00   0.2284036E-01   0.2076495E-01

 * 16 selected distances

     #   Z          #   Z                                           value/Å
     1   6 C        2   6 C                                       1.3189039
     4   6 C        5   6 C                                       1.3900186 (max)
     5   6 C        6   6 C                                       1.3823473
     6   6 C        7   6 C                                       1.3828720
     7   6 C        9   6 C                                       1.3818631
     4   6 C       10   6 C                                       1.3887956
     9   6 C       10   6 C                                       1.3835681
     1   6 C       11   1 H                                       1.0764840 (min)
     1   6 C       12   1 H                                       1.0779120
     2   6 C       13   1 H                                       1.0822385
     3   6 C       14   1 H                                       1.0913078
     3   6 C       15   1 H                                       1.0930581
     5   6 C       16   1 H                                       1.0798395
     6   6 C       17   1 H                                       1.0785572
     9   6 C       18   1 H                                       1.0786043
    10   6 C       19   1 H                                       1.0802945

 * 2 distinct bonds (by element types)

   Z      Z             #   av. dist./Å        max./Å        min./Å
   1 H    6 C           9     1.0820329     1.0930581     1.0764840
   6 C    6 C           7     1.3754812     1.3900186     1.3189039


optimized geometry written to: xtbopt.xyz


           -------------------------------------------------
          | TOTAL ENERGY              -28.551171829765 Eh   |
          | GRADIENT NORM               0.000367221572 Eh/α |
          | HOMO-LUMO GAP               4.425828530260 eV   |
           -------------------------------------------------

------------------------------------------------------------------------
 * finished run on 2022/03/17 at 02:19:13.820     
------------------------------------------------------------------------
 total:
 * wall-time:     0 d,  0 h,  0 min,  2.529 sec
 *  cpu-time:     0 d,  0 h,  1 min, 21.491 sec
 * ratio c/w:    32.226 speedup
 SCF:
 * wall-time:     0 d,  0 h,  0 min,  0.212 sec
 *  cpu-time:     0 d,  0 h,  0 min,  6.999 sec
 * ratio c/w:    33.027 speedup
 ANC optimizer:
 * wall-time:     0 d,  0 h,  0 min,  2.166 sec
 *  cpu-time:     0 d,  0 h,  1 min, 10.775 sec
 * ratio c/w:    32.673 speedup

