19
 energy: -28.548749895970 gnorm: 0.042965336819 xtb: 6.3.3 (4ae9cef)
C        -3.05364800000000    1.15497900000000   -0.53347800000000
C        -2.20363800000000    0.49358600000000    0.26319900000000
C        -1.39745100000000   -0.70095600000000   -0.16176400000000
C         0.08894600000000   -0.46924800000000   -0.01795500000000
C         0.79277100000000    0.24469000000000   -1.00164000000000
C         2.16269600000000    0.47225500000000   -0.86452600000000
C         2.82795900000000   -0.00851500000000    0.25650100000000
F         4.14293600000000    0.21081800000000    0.38791600000000
C         2.14941500000000   -0.71082100000000    1.24516600000000
C         0.77913000000000   -0.93960200000000    1.11066500000000
H        -3.60747000000000    2.01219300000000   -0.16252800000000
H        -3.21503900000000    0.86289000000000   -1.56640100000000
H        -2.07954800000000    0.82663700000000    1.29184600000000
H        -1.61585800000000   -0.97986900000000   -1.20058900000000
H        -1.69793400000000   -1.56288800000000    0.44697600000000
H         0.27228800000000    0.62946400000000   -1.87614200000000
H         2.71219300000000    1.02258000000000   -1.62111800000000
H         2.68999100000000   -1.07293900000000    2.11352800000000
H         0.25226300000000   -1.48525400000000    1.89034200000000
19
 energy: -28.550860461306 gnorm: 0.011874340234 xtb: 6.3.3 (4ae9cef)
C        -3.02979700209481    1.14956567078067   -0.53076476894333
C        -2.19000636340969    0.49379296060126    0.25251927132858
C        -1.39297646632997   -0.70460968291622   -0.16584128988197
C         0.08812727935061   -0.46249816224455   -0.01214253417204
C         0.78727509290697    0.24461897756962   -0.98685628958992
C         2.14736665310081    0.47297809964350   -0.85935082261480
C         2.80928048610253   -0.00748384257826    0.25685282559617
F         4.13049247480724    0.20807088042762    0.38482422865085
C         2.13708766067252   -0.70623538834174    1.24356171640011
C         0.77661758256502   -0.92832199642115    1.10454231178893
H        -3.59233231219305    1.99389000908091   -0.16518610029166
H        -3.20230648977100    0.85687691975823   -1.55442673548148
H        -2.05255000533745    0.81756021834106    1.27710713296190
H        -1.62045931353777   -0.95540119701222   -1.20672154765765
H        -1.68615017866159   -1.55754141321525    0.45674949990128
H         0.26663205759220    0.61737592389511   -1.85790744005675
H         2.69533968482113    1.01633371854114   -1.61580512489995
H         2.67713744244437   -1.07096475150079    2.10563495158834
H         0.25122371697194   -1.47800694440894    1.87320871537340
19
 energy: -28.551052918180 gnorm: 0.004391650120 xtb: 6.3.3 (4ae9cef)
C        -3.02325600798902    1.14342716398252   -0.52531611025755
C        -2.18457360344796    0.48884871271758    0.25359461141211
C        -1.39220282968997   -0.71183251383371   -0.16834611058896
C         0.08616762331636   -0.46681767851588   -0.01350739939936
C         0.78206930055179    0.24245120510922   -0.98428799407272
C         2.13833364532527    0.47705355069765   -0.85842947784669
C         2.79759644940681   -0.00308322580870    0.25801976981803
F         4.12298929410670    0.21225818980235    0.38465896338127
C         2.13007167258834   -0.70265214232703    1.24527645235562
C         0.77333801671992   -0.92793292927721    1.10142424114399
H        -3.56711091046768    2.00327354663228   -0.17431401941612
H        -3.19419071238275    0.85526377135242   -1.54912967032172
H        -2.02630884824733    0.81278176828690    1.27430790998446
H        -1.62240917300929   -0.95150214046635   -1.20882513454801
H        -1.68206579960945   -1.56107305837477    0.45735837147814
H         0.25812040996549    0.61328569541959   -1.85201714617415
H         2.68610664842995    1.01951388463550   -1.61310202731050
H         2.67079936821996   -1.06626931003049    2.10513505790094
H         0.24652745621285   -1.47699449000186    1.86749771246121
19
 energy: -28.551106206256 gnorm: 0.002791249567 xtb: 6.3.3 (4ae9cef)
C        -3.00667952940391    1.15126409315680   -0.52587446287057
C        -2.17324960275001    0.49126418765191    0.25327723008899
C        -1.39296046554129   -0.71823111973648   -0.17060947969406
C         0.08425480211020   -0.47332728000263   -0.01573499328860
C         0.77803612569002    0.23939400811095   -0.98510885452796
C         2.13281908987306    0.47975374435168   -0.85867127010663
C         2.79030279579041    0.00003464779689    0.25889462133643
F         4.11738154870798    0.21959048048261    0.38669452410963
C         2.12618835204755   -0.70090017477440    1.24719530136858
C         0.77067007836659   -0.93055931269026    1.10051409914966
H        -3.55661740528697    2.00747791921129   -0.17662909321380
H        -3.19540015022829    0.84957479179369   -1.54330797930817
H        -2.00700258837146    0.80967829646385    1.27425271545033
H        -1.62481546520213   -0.95262149723492   -1.21070659134507
H        -1.68506588887786   -1.56522764064468    0.45528905675707
H         0.25125807543797    0.60906194203471   -1.85155151529989
H         2.68038612230246    1.02471797163374   -1.61079080408621
H         2.66770067473021   -1.06090887015832    2.10726968770896
H         0.24279543060548   -1.48003618744642    1.86559580777130
19
 energy: -28.551139168231 gnorm: 0.001440644802 xtb: 6.3.3 (4ae9cef)
C        -3.00256645369992    1.15202480064633   -0.52368845586791
C        -2.16936477183669    0.48986039341898    0.25493907017171
C        -1.39468223423591   -0.72336466413395   -0.17178184551008
C         0.08255326653594   -0.47852097725314   -0.01770338723382
C         0.77504492479525    0.23717244017666   -0.98707558625354
C         2.12954100727583    0.48176092024617   -0.85909464960086
C         2.78635115148779    0.00304619181429    0.25960468550945
F         4.11326838074056    0.22799238794676    0.38938797225488
C         2.12443254762742   -0.69985544530550    1.24820616292642
C         0.76902934198587   -0.93379716826733    1.10024872308018
H        -3.54303013876293    2.01696076092363   -0.17896264880745
H        -3.19160730584455    0.84989372160132   -1.54129564310046
H        -1.99340362606333    0.81013052911687    1.27387302345594
H        -1.62842160759192   -0.95732382239503   -1.21136969689292
H        -1.68846935795280   -1.56991622493355    0.45356383856612
H         0.24668841555111    0.60534823918722   -1.85384666224047
H         2.67686441132160    1.02985407704551   -1.60925882357382
H         2.66669310731063   -1.05644804433174    2.10935590257651
H         0.24108094135604   -1.48481811550348    1.86489602054013
19
 energy: -28.551155512455 gnorm: 0.001355517720 xtb: 6.3.3 (4ae9cef)
C        -2.99616646088707    1.15497879040984   -0.52201661111215
C        -2.16385009368893    0.48970794255132    0.25564251463449
C        -1.39688451514837   -0.72846111008990   -0.17254604700490
C         0.08124778855230   -0.48624187268634   -0.02049781128429
C         0.77192640003410    0.23254499956612   -0.99001208152166
C         2.12547645635206    0.48366288833616   -0.85902202545039
C         2.78197849661242    0.00862836580075    0.26156356020180
F         4.10733533255717    0.24170008417933    0.39440930412496
C         2.12260385113500   -0.69878618200676    1.24867547644853
C         0.76792117137170   -0.93972351599970    1.09898559745462
H        -3.52620799765696    2.02796137010105   -0.17972500139013
H        -3.18858689166441    0.85022263013424   -1.53843895817383
H        -1.97983168321344    0.81211748860772    1.27218073653908
H        -1.63383930962493   -0.96375981323330   -1.21147982760210
H        -1.69394200054074   -1.57443747833183    0.45265266302470
H         0.24229991287025    0.59889441135383   -1.85727770998899
H         2.67202214146075    1.03570940533991   -1.60735016488656
H         2.66577337782109   -1.05187678781089    2.11112166055031
H         0.24072602365798   -1.49284161622153    1.86313272543654
19
 energy: -28.551163715468 gnorm: 0.000773536098 xtb: 6.3.3 (4ae9cef)
C        -2.99161722236738    1.15742377430546   -0.52206261672221
C        -2.16069499644834    0.48982989851854    0.25492752321243
C        -1.39778357351057   -0.73075285250465   -0.17247873162967
C         0.08063242567731   -0.48966805552330   -0.02136432482490
C         0.77027438794639    0.22989987371277   -0.99070615209891
C         2.12290631668539    0.48416223223281   -0.85873314677339
C         2.77982012362147    0.01147815532142    0.26251538059949
F         4.10366357328915    0.25005539780276    0.39757454908649
C         2.12140138300944   -0.69836961784045    1.24838902185410
C         0.76757808414028   -0.94248881235495    1.09790678866077
H        -3.51885125730223    2.03119313780396   -0.17875561006913
H        -3.18659396765786    0.85236857644875   -1.53766582577265
H        -1.97406357401277    0.81326178065162    1.27054273877401
H        -1.63620153156110   -0.96665364539089   -1.21109650780791
H        -1.69586368941434   -1.57562871920525    0.45401328590262
H         0.24066594002954    0.59413738554291   -1.85865618454830
H         2.66850275903753    1.03768925964025   -1.60666531386733
H         2.66473054027769   -1.05027467558690    2.11122823625119
H         0.24149627856040   -1.49766309357483    1.86108488977330
19
 energy: -28.551169467911 gnorm: 0.000337495570 xtb: 6.3.3 (4ae9cef)
C        -2.98649717570692    1.16029072940214   -0.52264955469310
C        -2.15779691347244    0.48947981009516    0.25379026435461
C        -1.39876144327449   -0.73344803040521   -0.17212976927681
C         0.07995626483022   -0.49374696622690   -0.02237246927090
C         0.76858807129544    0.22657258151591   -0.99144924542226
C         2.12008918191841    0.48491301266876   -0.85835287526742
C         2.77772612012798    0.01551672805884    0.26389565600446
F         4.09982323738547    0.25955558958879    0.40098935219901
C         2.12030941414116   -0.69773191985771    1.24804255545485
C         0.76761035599119   -0.94593323817814    1.09633858211896
H        -3.50895032831282    2.03628819947107   -0.17809562121732
H        -3.18537917704724    0.85542144092587   -1.53742110600197
H        -1.97076229225131    0.81289627402852    1.26932883869470
H        -1.63852462020710   -0.97040514120757   -1.21015184921915
H        -1.69750054343033   -1.57630205613017    0.45665266863228
H         0.23904233465772    0.58932913135187   -1.85979064553359
H         2.66431828026699    1.03941368426179   -1.60645643609781
H         2.66374158626378   -1.04916471130527    2.11093777576808
H         0.24296964682429   -1.50294511805774    1.85889187877339
19
 energy: -28.551171829662 gnorm: 0.000367798612 xtb: 6.3.3 (4ae9cef)
C        -2.98240849437795    1.16231642348187   -0.52329208952859
C        -2.15637787754359    0.48866527431887    0.25348003777004
C        -1.39972832718187   -0.73604122454339   -0.17157797052008
C         0.07904638742796   -0.49602770754899   -0.02267380470562
C         0.76695404037759    0.22510072409233   -0.99164677560562
C         2.11800454058552    0.48546630814333   -0.85839334000929
C         2.77626197923983    0.01729484975706    0.26403596647792
F         4.09736925724694    0.26520030298094    0.40246029794644
C         2.11968415901225   -0.69736248842290    1.24776159378394
C         0.76745204268810   -0.94761770648872    1.09577033975107
H        -3.50342598089283    2.03869299093734   -0.17786102823487
H        -3.18119932338099    0.85978910050945   -1.53860174020914
H        -1.96857660214309    0.81236702364314    1.26895428308844
H        -1.64028008371268   -0.97385018716144   -1.20913972920508
H        -1.69846201261441   -1.57764228990337    0.45869320401069
H         0.23730754962831    0.58658812407233   -1.86047059653186
H         2.66122916452052    1.04113410897228   -1.60634115195643
H         2.66326867456465   -1.04781988411709    2.11094333296129
H         0.24388290655573   -1.50625374272304    1.85789717071678
