78
 energy: -124.112090696151 gnorm: 0.136719559470 xtb: 6.3.3 (4ae9cef)
O        -2.60896700000000   -0.71925800000000    1.75557900000000
C        -2.27255500000000    0.26695100000000    1.11210900000000
C        -2.80535200000000    1.57914000000000    1.52948500000000
C        -3.85266900000000    2.17262700000000    0.82420500000000
C        -4.28085900000000    3.44947100000000    1.18293700000000
C        -3.67592800000000    4.11688400000000    2.24844200000000
C        -2.62010600000000    3.52609800000000    2.95880800000000
C        -1.98224800000000    4.25017000000000    4.11020000000000
C        -2.19809700000000    2.23963100000000    2.60604100000000
N        -1.38124100000000    0.24636700000000    0.05805400000000
C        -0.71270700000000    1.41316000000000   -0.49952100000000
C        -1.40996200000000    1.86466100000000   -1.82632700000000
O        -2.66888200000000    1.40520200000000   -1.99428300000000
O        -0.94079600000000    2.60010000000000   -2.68329600000000
N         0.64099900000000    0.95681300000000   -0.76402500000000
C         1.69389400000000    1.77279500000000   -1.12925400000000
C         1.82119300000000    3.06568800000000   -0.41791600000000
C         2.69361200000000    3.10628500000000    0.67945800000000
C         2.86394800000000    4.29352900000000    1.40407100000000
C         3.80159100000000    4.33134600000000    2.57781900000000
C         2.12440300000000    5.42732000000000    1.03334000000000
C         1.26986800000000    5.38980300000000   -0.07394000000000
C         1.13112400000000    4.21248000000000   -0.81320500000000
O         2.61077500000000    1.41803800000000   -1.86423100000000
C         0.64834900000000   -0.49067700000000   -0.99544400000000
C         1.83861500000000   -1.22297700000000   -0.39373100000000
C         2.48510100000000   -2.21683700000000   -1.14850300000000
C         3.54446200000000   -2.96677000000000   -0.61494100000000
C         3.97053400000000   -2.72171500000000    0.70916700000000
C         5.02926200000000   -3.47734800000000    1.24194800000000
C         5.65836400000000   -4.45839500000000    0.47285100000000
C         5.23737400000000   -4.70008800000000   -0.83212200000000
C         4.18420500000000   -3.95917200000000   -1.37195900000000
C         3.32344200000000   -1.73123300000000    1.46359600000000
C         2.26725600000000   -0.99198300000000    0.92121000000000
C        -0.67835700000000   -0.98143100000000   -0.32578500000000
C        -1.49960100000000   -1.92286500000000   -1.19241200000000
C        -2.01320600000000   -3.09931100000000   -0.61743800000000
C        -2.69205500000000   -4.06341900000000   -1.38351100000000
C        -2.88192000000000   -3.83995900000000   -2.76341900000000
C        -3.53319700000000   -4.81570100000000   -3.53729300000000
C        -3.98981300000000   -6.00111600000000   -2.95516000000000
C        -3.81297100000000   -6.21577200000000   -1.59124000000000
C        -3.16905000000000   -5.25389800000000   -0.80869000000000
C        -2.40682000000000   -2.64842200000000   -3.33130000000000
C        -1.73329300000000   -1.70024100000000   -2.55382000000000
H        -4.32678200000000    1.65393400000000   -0.00416700000000
H        -5.06916400000000    3.94023100000000    0.62769500000000
H        -4.02015800000000    5.11454900000000    2.51701700000000
H        -0.90050300000000    4.08297300000000    4.11869400000000
H        -2.40513500000000    3.90437100000000    5.06078700000000
H        -2.14640000000000    5.33460100000000    4.03061000000000
H        -1.38268300000000    1.76381700000000    3.15212800000000
H        -0.71595200000000    2.26431800000000    0.18450800000000
H        -2.94941300000000    1.74203900000000   -2.87086200000000
H         3.25825500000000    2.21431800000000    0.94520200000000
H         4.12304900000000    5.35477300000000    2.79372500000000
H         4.70423700000000    3.74690600000000    2.36510500000000
H         3.31256000000000    3.91673300000000    3.46714800000000
H         2.22851500000000    6.35543300000000    1.59102100000000
H         0.72105300000000    6.28886900000000   -0.35965100000000
H         0.48973100000000    4.21321100000000   -1.68942900000000
H         0.65955000000000   -0.62065900000000   -2.08336700000000
H         2.15998500000000   -2.41511500000000   -2.17171600000000
H         5.37249700000000   -3.30546400000000    2.25989400000000
H         6.48648500000000   -5.02912400000000    0.89125300000000
H         5.72559200000000   -5.46511000000000   -1.43217300000000
H         3.86939100000000   -4.16258200000000   -2.39327300000000
H         3.63261400000000   -1.53234900000000    2.48965200000000
H         1.77562100000000   -0.24140600000000    1.53465400000000
H        -0.45272300000000   -1.50848600000000    0.61107000000000
H        -1.86993800000000   -3.27582000000000    0.44839900000000
H        -3.67934900000000   -4.66636900000000   -4.60409500000000
H        -4.48693200000000   -6.74970400000000   -3.56825200000000
H        -4.17366300000000   -7.13714600000000   -1.13728600000000
H        -3.03775200000000   -5.43994900000000    0.25422600000000
H        -2.54289700000000   -2.44927600000000   -4.39161200000000
H        -1.37741200000000   -0.79849400000000   -3.04346100000000
78
 energy: -124.128917595555 gnorm: 0.054393725631 xtb: 6.3.3 (4ae9cef)
O        -2.58397313738580   -0.73627484731604    1.71542963696737
C        -2.24847206227458    0.26396574080011    1.10917950525980
C        -2.77425387220247    1.60173006116795    1.50286212148279
C        -3.83153651412051    2.18670510790433    0.81594756224330
C        -4.27363515660564    3.44668420812155    1.18943236873062
C        -3.67033437850642    4.11283751317297    2.24494695626184
C        -2.62993507260340    3.52499692396979    2.95990892572294
C        -1.98397025422184    4.24894189969474    4.10403725685285
C        -2.19383122177668    2.25739637822601    2.58645661679493
N        -1.37635353706328    0.24433361392609    0.05355865617164
C        -0.71379911735921    1.40255014805798   -0.50194998650666
C        -1.39864171729883    1.86473748878853   -1.81719527085382
O        -2.64458251767445    1.39821411683223   -1.98193490896936
O        -0.90395344278388    2.58231692905371   -2.64869899072608
N         0.63939768489463    0.94709494411883   -0.74740410249633
C         1.69556397114981    1.75274964334289   -1.10820110178545
C         1.79766842387893    3.06444582110416   -0.40211418722604
C         2.67801074533013    3.11617309592053    0.67800831408883
C         2.85595911782416    4.29418148444546    1.39736405770945
C         3.79754746450743    4.33210525650455    2.56658347977357
C         2.12664103511348    5.42033916074193    1.02487991364143
C         1.27833810784506    5.38327453352683   -0.07250620637342
C         1.11936765791909    4.21046562610622   -0.79779252574041
O         2.59465727756128    1.37259531225337   -1.83271182977247
C         0.64260418122044   -0.49914117131218   -0.99708709093189
C         1.83822869695162   -1.22466333828787   -0.40562271822586
C         2.47443924444059   -2.20343923500787   -1.14941426065225
C         3.53632583609599   -2.96139562556058   -0.62073688673958
C         3.96589887032278   -2.71586140222503    0.70978822425954
C         5.02837330133816   -3.47558950071349    1.23722039596744
C         5.64726824290026   -4.44258889090758    0.47555967886275
C         5.22372507783574   -4.68630849605540   -0.83269740542614
C         4.18479400234157   -3.95923760940745   -1.37197954163530
C         3.30839429228520   -1.71969299735488    1.45406263004742
C         2.26795185300684   -0.99433093472103    0.91135657703541
C        -0.67881506833351   -0.98744202220168   -0.33137410664051
C        -1.49818233461660   -1.93433280406483   -1.18956614780489
C        -2.00105897309130   -3.09227866374157   -0.61806774062784
C        -2.68930477116919   -4.05783874559272   -1.37751368059363
C        -2.87996131048859   -3.83497974839680   -2.76602067423029
C        -3.53232614792501   -4.81707526506852   -3.53564781117499
C        -3.98329285375553   -5.98213034447826   -2.95435002242899
C        -3.80422669868863   -6.19846821881704   -1.58617592063741
C        -3.17037485581495   -5.25326931278466   -0.80910152799202
C        -2.40075172399125   -2.63691368733053   -3.32438941482405
C        -1.73131012336236   -1.70928405825469   -2.55416789768849
H        -4.30765279992149    1.66062357559349    0.00018170654624
H        -5.07395271664469    3.92628332704535    0.64384421251337
H        -4.01240275306027    5.10381441011887    2.51528363922909
H        -0.90816418255523    4.07399997108777    4.11944815155496
H        -2.39964325578572    3.90281826791116    5.05132017287781
H        -2.15420719358308    5.32428171059204    4.03135583027065
H        -1.39176975110989    1.77862858738427    3.13571947566641
H        -0.72544207101920    2.26057525660767    0.18163595578514
H        -2.95630300433907    1.73174945396096   -2.84532809626785
H         3.23851642924570    2.22830159841328    0.94488966896671
H         4.10880723715348    5.35223279613191    2.78904668166224
H         4.69082867938503    3.74070452361470    2.36302355126066
H         3.31578423404637    3.92089130656289    3.45541375964434
H         2.23230817756093    6.34091462277134    1.58490737169899
H         0.73459030999860    6.27534642814411   -0.35860451583466
H         0.48412596642089    4.20144979433549   -1.67206515115729
H         0.64041850421917   -0.66327930973885   -2.08164613300381
H         2.15176637537683   -2.40106733669686   -2.16418663504435
H         5.36577519387694   -3.30102330018534    2.25079429384678
H         6.46714475996396   -5.01585753780516    0.89181403954206
H         5.71278740243367   -5.44898313521707   -1.42582964542619
H         3.86847508610377   -4.15859780196459   -2.38735283942712
H         3.62012919947343   -1.52365176734211    2.47297738946632
H         1.77756801186670   -0.24184839642626    1.51637651929940
H        -0.44610318868279   -1.51637090727123    0.60251190677341
H        -1.86084172012479   -3.26606131358560    0.44102785489512
H        -3.67828210945365   -4.66204622228320   -4.59664480807448
H        -4.47778364295247   -6.73053569955671   -3.56109688736657
H        -4.16387381816714   -7.11597114660507   -1.13658663156069
H        -3.03682357050892   -5.43534403310047    0.24867421612088
H        -2.54369578340863   -2.44213155573445   -4.37934027908835
H        -1.37636422745770   -0.80615025494238   -3.03372769453893
78
 energy: -124.133801690264 gnorm: 0.013222528821 xtb: 6.3.3 (4ae9cef)
O        -2.56380148840856   -0.75773785725593    1.68641730452461
C        -2.23860791187143    0.25349285193997    1.10382783711218
C        -2.75034786270925    1.61126446523847    1.48528646688191
C        -3.81300576095656    2.19195533011179    0.80678980628496
C        -4.26298635699327    3.44353948816676    1.18789800958540
C        -3.66195493966762    4.11198344290352    2.23848147290585
C        -2.62099656355176    3.53045327452746    2.94855924720549
C        -1.98370652560551    4.24585815950725    4.10051255795296
C        -2.17894078234018    2.27072661947536    2.56594813867601
N        -1.37418800952906    0.23812798058580    0.05191335506030
C        -0.71289426964955    1.38757271427018   -0.50123221647948
C        -1.37334489711688    1.84858904688681   -1.82003690190599
O        -2.61748395668304    1.39471348108798   -1.96505527050783
O        -0.85254052473797    2.56555316333636   -2.62627948597689
N         0.63931355823628    0.93522960273532   -0.73152199080564
C         1.70189224015578    1.72851056475783   -1.09105081871566
C         1.77911269454382    3.05535199725068   -0.39145826880764
C         2.65939118240887    3.11415461877730    0.68341851039508
C         2.84429687738305    4.28941340789643    1.39738496978278
C         3.79134494037075    4.33005748662905    2.55965085100294
C         2.12384564089205    5.41396023023388    1.01977119574699
C         1.27418430037280    5.37274869521015   -0.06995641711480
C         1.10486190042692    4.20093460345689   -0.78801499214233
O         2.60176390323813    1.31279327331977   -1.78509874205731
C         0.63438471918883   -0.50521702975998   -0.99983223527407
C         1.83162991318754   -1.22557091256347   -0.41983065468093
C         2.46301306665902   -2.19267616933949   -1.15594573523939
C         3.52791222464103   -2.95161395268356   -0.62804967864210
C         3.95692347424195   -2.70389840704299    0.70491609201910
C         5.02034106606588   -3.46644047954251    1.23268011314101
C         5.63343431213434   -4.42714372340857    0.47919514610953
C         5.21012819445068   -4.67290428003141   -0.83473926780242
C         4.18179821258203   -3.95404767442964   -1.37505060752614
C         3.29249176983371   -1.70186854913241    1.44215382317314
C         2.26144817997765   -0.98787698605636    0.89988689275121
C        -0.67549515232965   -0.99367283716994   -0.32806483652952
C        -1.49394300689486   -1.93900990784015   -1.18219221448342
C        -1.98937679144727   -3.08514930032175   -0.61538689016632
C        -2.68308011896926   -4.05009215904944   -1.37319523995531
C        -2.87574622785762   -3.82536745898560   -2.76428390843931
C        -3.53131821654465   -4.81004342615615   -3.53240497222924
C        -3.97776501389873   -5.96391281487338   -2.95373257766918
C        -3.79743836805002   -6.18260799516198   -1.58014004711633
C        -3.16799869350424   -5.24848862191304   -0.80766252627967
C        -2.39306914254713   -2.62201994512708   -3.31668777100326
C        -1.72637007105886   -1.70751508554496   -2.55129257629149
H        -4.28284472535906    1.66340457243894   -0.00749661571198
H        -5.08221264985963    3.90743102210370    0.65684200825120
H        -4.01153086872255    5.09504466197205    2.51763680115031
H        -0.91141280957072    4.06560356601295    4.12074081091669
H        -2.40051067962856    3.89216911342034    5.04295257760569
H        -2.15961330850980    5.31598651148801    4.03367687693567
H        -1.38020706387287    1.79335685165672    3.11457845120703
H        -0.73302799941181    2.25139779502136    0.18184192831545
H        -2.97204739434305    1.72368140501750   -2.81196903295344
H         3.21815839805169    2.22908812737219    0.95276088587904
H         4.09547750226567    5.35030285647275    2.77940781033737
H         4.67781591412309    3.73434168099022    2.35554582627967
H         3.31279974321725    3.92115151054086    3.44953654213698
H         2.24175435576218    6.33448745074013    1.57328022877931
H         0.74323928413574    6.26428497055756   -0.36710696419614
H         0.46540724256597    4.17963488444348   -1.65576165163692
H         0.61857525595809   -0.68810265960288   -2.08205054023818
H         2.14556014685369   -2.39307658786986   -2.16794067352481
H         5.34942587401306   -3.28295448580596    2.24517659971967
H         6.44934707177779   -5.00216685498915    0.89249915852468
H         5.70283080958349   -5.43566171324328   -1.41982160292281
H         3.85911274417745   -4.14813450507247   -2.38689797580403
H         3.60887831637859   -1.51030577666860    2.45738732473618
H         1.76781185950388   -0.23100876151085    1.49359023274869
H        -0.44206200650026   -1.52345992234249    0.60521482501965
H        -1.84874860491104   -3.26394033795440    0.43942716878818
H        -3.67287991383902   -4.64489897248236   -4.59059314440041
H        -4.47232236491703   -6.71395491549980   -3.55370763717240
H        -4.15809477260545   -7.09880502610922   -1.13601337781287
H        -3.03047368593838   -5.42197537240255    0.24891593161238
H        -2.54747580977058   -2.43332786505874   -4.36929714556201
H        -1.36784357867602   -0.80170814855139   -3.01885257347748
78
 energy: -124.134987066239 gnorm: 0.011080067842 xtb: 6.3.3 (4ae9cef)
O        -2.56144076715650   -0.77042322664560    1.67570757109355
C        -2.23440660310191    0.24652925415439    1.10483869451365
C        -2.73920287022021    1.60961294472161    1.48126618171626
C        -3.80083922435329    2.18938051133306    0.79976212718548
C        -4.25667506145619    3.43800883761679    1.18329718050971
C        -3.65870403321960    4.10860873811705    2.23474100171042
C        -2.61057581846256    3.53249348574350    2.93951013620712
C        -1.97981302406134    4.24289312210583    4.09752429401663
C        -2.16406589877138    2.27467169775984    2.55554087350633
N        -1.37176772170675    0.23518545758583    0.05330323187244
C        -0.70874736528144    1.38141724701493   -0.49782320604892
C        -1.36205041954387    1.84787506105089   -1.81705099197708
O        -2.60422989284955    1.39655185010546   -1.95652811407063
O        -0.81599986484713    2.54037606572370   -2.62950127484801
N         0.64112893939729    0.92629900734300   -0.72214983771024
C         1.71256807794308    1.70866159437795   -1.07395405814892
C         1.77427552075402    3.04257259495269   -0.38478323270659
C         2.65016041379309    3.10572920451356    0.69260422058600
C         2.83558002978627    4.28401608365594    1.40078108447567
C         3.78434445020645    4.32810606649160    2.56009337843262
C         2.12096420902986    5.40964010443651    1.01336471746134
C         1.26766926307151    5.36120138648212   -0.07358931461579
C         1.09376643880099    4.18439096604980   -0.78295537444324
O         2.62320249772654    1.27103239540004   -1.74093898016104
C         0.62813501653370   -0.50809352075794   -1.00339146448660
C         1.82513800940162   -1.22511454786651   -0.43147036373180
C         2.45713893467104   -2.18960725888435   -1.16649077263022
C         3.52284685231499   -2.94380124577474   -0.63447310194000
C         3.94847414843129   -2.69138655849696    0.69742998610610
C         5.01091315568963   -3.45214613803852    1.22984180105839
C         5.62464400410697   -4.41508012986823    0.48108369120428
C         5.20388914700493   -4.66463393474902   -0.83522042240656
C         4.17774079084476   -3.94770602495833   -1.37927774322557
C         3.28331485569864   -1.68669483710221    1.43273297899979
C         2.25239139221715   -0.97774638595423    0.88865187237999
C        -0.67304502163549   -0.99591032786099   -0.32405762888103
C        -1.49011969089224   -1.93835872171284   -1.17635941977820
C        -1.98248788910878   -3.08423541571433   -0.61108986780062
C        -2.67902727349606   -4.04488842149871   -1.37102946004710
C        -2.87382893041466   -3.81572210178977   -2.75980231620188
C        -3.53087577861599   -4.79851980360226   -3.52972057761895
C        -3.97737411216224   -5.95234919114627   -2.95270762118441
C        -3.79616256240108   -6.17427036127775   -1.57755865133822
C        -3.16453112397627   -5.24318063204890   -0.80509315935045
C        -2.39213750876972   -2.61022224242071   -3.31132693234422
C        -1.72362562323119   -1.69939849152867   -2.54586900703202
H        -4.26668256921441    1.65904744652163   -0.01555700598536
H        -5.08434388322654    3.89343342702172    0.65837516004931
H        -4.01491627164706    5.08812620626916    2.51867470491389
H        -0.90757566242926    4.06324432757063    4.12212265297630
H        -2.40140676904317    3.88015208641414    5.03486430550756
H        -2.15950988089209    5.31273368994450    4.03743298595534
H        -1.35901417437590    1.80286877219903    3.09995269993606
H        -0.73054879063031    2.24602567006093    0.18494138715363
H        -2.97699813439597    1.70999396747634   -2.79993663367338
H         3.20622712839816    2.22098898694271    0.96834544581390
H         4.08772721617142    5.34941800377131    2.77444755322380
H         4.66896225510528    3.73081685880017    2.35367927407136
H         3.30724245539612    3.92123069180767    3.45198727230134
H         2.24673402442630    6.33429771651319    1.55841236587376
H         0.73919804799669    6.25194648057065   -0.37810840591991
H         0.44967314885782    4.15527807995502   -1.64686748575623
H         0.60353420028059   -0.68994317605927   -2.08515331827469
H         2.14195848478680   -2.39361583958655   -2.17911215999748
H         5.33325432781923   -3.26135208748712    2.24359675982268
H         6.43791524450101   -4.99229263966269    0.89560189563861
H         5.69953597006695   -5.42986012833482   -1.41422229889663
H         3.85178752229030   -4.13906287931078   -2.39100781604298
H         3.60371344140438   -1.49345539954177    2.44661615633464
H         1.75386978402949   -0.21648870552912    1.47277587644235
H        -0.43764435810515   -1.52504713269640    0.60912801625429
H        -1.83837257389348   -3.26886641473139    0.44262448349923
H        -3.67065220642656   -4.62525503512890   -4.58724062442303
H        -4.47348042320793   -6.70304539877234   -3.55000549214054
H        -4.15891153978830   -7.09104127696314   -1.13707139340603
H        -3.02289486525178   -5.41181342929736    0.25213611757483
H        -2.55256610518086   -2.42352022394516   -4.36377642125725
H        -1.36236911151013   -0.79071280183026   -3.00552018587653
78
 energy: -124.135713922685 gnorm: 0.008033681488 xtb: 6.3.3 (4ae9cef)
O        -2.56196427205075   -0.77991042875037    1.66841835111957
C        -2.23259253362816    0.24018259540412    1.10479269410948
C        -2.72978711690747    1.60460452446037    1.47997571377501
C        -3.79173021376879    2.18190112802030    0.79589231317251
C        -4.25057821005160    3.42979704859360    1.17814220533511
C        -3.65504320108812    4.10275109673646    2.23061224413481
C        -2.59780503812422    3.53321990271296    2.92928283464634
C        -1.97288748740448    4.23974296757056    4.09257988123576
C        -2.14589191051421    2.27690468674791    2.54498553639157
N        -1.36850634172345    0.23274773765591    0.05399695856731
C        -0.70314271166077    1.37723049456681   -0.49636482689847
C        -1.34569822725345    1.82898312319204   -1.82777668031805
O        -2.59774357617468    1.40624365576075   -1.94659294418342
O        -0.78176066843558    2.49969258851074   -2.64705854144419
N         0.64386954860691    0.91845571211478   -0.71549548759457
C         1.72826851255229    1.68745532209002   -1.05062747525838
C         1.77561573486591    3.02643529689862   -0.37590667538928
C         2.64522630083523    3.09578202908914    0.70621181794980
C         2.82741809377740    4.27940489129599    1.40662299942441
C         3.77500147115138    4.32864441931919    2.56571223572719
C         2.11621487203807    5.40394753332378    1.00598483730888
C         1.25832628163871    5.34432328184632   -0.07806112698771
C         1.08498373777367    4.16124535891610   -0.77757458361480
O         2.65578845427230    1.22864048032625   -1.68144931551888
C         0.62326517614852   -0.50957984548010   -1.00820439099464
C         1.82000148964372   -1.22494794163636   -0.44578786460222
C         2.45291036661058   -2.18908313630322   -1.18052172083718
C         3.51949493911228   -2.93568842077963   -0.64224672145353
C         3.94067283471711   -2.67565213801638    0.68746055009267
C         5.00080665909512   -3.43325512044656    1.22721455782723
C         5.61591828450272   -4.40134210870210    0.48437979341201
C         5.19988392203146   -4.65650642761490   -0.83325241993708
C         4.17511318119794   -3.94096233125144   -1.38365311029482
C         3.27679325589897   -1.66828783212184    1.42098542115718
C         2.24347601955986   -0.96553066769303    0.87353764279751
C        -0.66999470395589   -0.99759704340908   -0.32095152223428
C        -1.48783256358572   -1.93722105358685   -1.16968435978519
C        -1.97595646716041   -3.08615163009292   -0.60577310216154
C        -2.67578315196062   -4.04069678633023   -1.36898643037179
C        -2.87447030150354   -3.80441415894708   -2.75371471877097
C        -3.53375838315203   -4.78301110269129   -3.52654256290230
C        -3.98055710134806   -5.93916865285860   -2.95185218520850
C        -3.79753545914185   -6.16635621264326   -1.57693981072664
C        -3.16097972323215   -5.23859871644304   -0.80289925700069
C        -2.39602392465695   -2.59693747148235   -3.30482878362669
C        -1.72570639535438   -1.68861509430165   -2.53736515858694
H        -4.25410141328560    1.64926807039043   -0.02034109089336
H        -5.08142891682873    3.87953737284452    0.65488286886914
H        -4.01897162372829    5.07852660740111    2.51925104298332
H        -0.90000650989629    4.06305191287283    4.12188389097537
H        -2.39982502952916    3.86689034682515    5.02427482235363
H        -2.15602463335687    5.31007503108463    4.04081728296485
H        -1.33184940290196    1.81258145184960    3.08413249982322
H        -0.72770284100429    2.24335318258079    0.18439768637878
H        -2.99035670458461    1.70576815247074   -2.78489943437364
H         3.19881652853635    2.21181960251609    0.99082300501185
H         4.07854247596854    5.35105775424243    2.77503616328852
H         4.65956361186341    3.73091250079576    2.35848541155359
H         3.29899809282115    3.92349377783428    3.45935306486761
H         2.24880392432144    6.33526897602078    1.53859956575389
H         0.72830222065651    6.23224130131674   -0.39056925635475
H         0.43747943953774    4.12365731831580   -1.63883921561096
H         0.58912304445549   -0.68345796395574   -2.09038211095753
H         2.13822148474637   -2.39692573594245   -2.19352134170227
H         5.31662903100743   -3.23402590387006    2.24202331903829
H         6.42701787091854   -4.97940239652866    0.90216379481053
H         5.69905685722904   -5.42503499601090   -1.40521982957453
H         3.84756431655251   -4.13143522721922   -2.39569971060249
H         3.60059354697124   -1.47005686359973    2.43342291107989
H         1.73788892550767   -0.20000373514523    1.44640662319241
H        -0.43081426080573   -1.52410665507091    0.61281083151169
H        -1.82557145897926   -3.27689629836877    0.44671986667221
H        -3.67323167134134   -4.60149361772220   -4.58324990402510
H        -4.47909797406695   -6.68925410691211   -3.54796909936014
H        -4.16307046720464   -7.08420306326223   -1.14058635266572
H        -3.01418766802741   -5.40465729973452    0.25459672902552
H        -2.56189894392156   -2.40940860598311   -4.35678621221856
H        -1.36378330382349   -0.77596844360633   -2.98869663329629
78
 energy: -124.136061134201 gnorm: 0.007638550856 xtb: 6.3.3 (4ae9cef)
O        -2.56297338289012   -0.78231663657827    1.66579219224731
C        -2.23092545032660    0.23813198262281    1.10444300579550
C        -2.72496950560469    1.60074737143396    1.48079246721095
C        -3.78931329616389    2.17471202018937    0.79738897761484
C        -4.24747550859791    3.42384558857493    1.17621972694568
C        -3.65171495967670    4.09834063371169    2.22809735443892
C        -2.58969700874091    3.53288179652228    2.92353863223762
C        -1.96613718388459    4.23870185588977    4.08786226586741
C        -2.13437801861143    2.27755353533434    2.53932087052411
N        -1.36599357096691    0.23214019012143    0.05321885338060
C        -0.69922987457578    1.37593268480487   -0.49990123362286
C        -1.34253595856388    1.82280496369763   -1.83458267351737
O        -2.60048729461682    1.41706112782827   -1.94073135222203
O        -0.76465200263508    2.45948524997027   -2.67298042422800
N         0.64623414132807    0.91412975995938   -0.71692346754153
C         1.74254858477771    1.67351702826943   -1.03035314707467
C         1.78231537858250    3.01445798281795   -0.36641965330904
C         2.64812816077564    3.09121353503935    0.71857344565196
C         2.82422418330566    4.27944790628876    1.41291225768851
C         3.76802784388204    4.33427664353730    2.57467713016528
C         2.11122411231369    5.39978687269299    1.00261889478595
C         1.25188598457189    5.33020056961935   -0.08035277571608
C         1.08348127230221    4.14231284024806   -0.77284446944967
O         2.68157690970446    1.20633890981832   -1.63653952877595
C         0.62152573605740   -0.51096529269612   -1.01417721798905
C         1.81857121498767   -1.22652232325338   -0.45650090529405
C         2.45200718851259   -2.19147640433429   -1.19034997978008
C         3.51987653999338   -2.93203417654253   -0.64756675781078
C         3.93874423948428   -2.66496235619083    0.68044882205579
C         4.99742998721394   -3.41954203915275    1.22587067432793
C         5.61336263215083   -4.39193339445856    0.48803597144806
C         5.20101377890624   -4.65233500195389   -0.82927853807103
C         4.17680531112025   -3.93861683358297   -1.38505166436041
C         3.27603020272138   -1.65578476745334    1.41186744541492
C         2.24008521366343   -0.95871820239440    0.86137449726862
C        -0.66853248728037   -0.99839706441076   -0.32131982997041
C        -1.48893421973413   -1.93708213213756   -1.16623852964823
C        -1.97265147359818   -3.08923977007783   -0.60330521634423
C        -2.67568689040232   -4.03955538847877   -1.36821351564188
C        -2.87920390706486   -3.79715614075842   -2.75008620129734
C        -3.54102141079600   -4.77199812394109   -3.52480285177805
C        -3.98726713408493   -5.93027440658958   -2.95219202799672
C        -3.80118646964795   -6.16240166344512   -1.57891252067819
C        -3.15994075962206   -5.23798655846808   -0.80330244619307
C        -2.40473524050262   -2.58803108719452   -3.30038527911480
C        -1.73325397912305   -1.68147780167836   -2.53098531088537
H        -4.25237805045205    1.63886496406895   -0.01659879957126
H        -5.07802938829199    3.87210289845092    0.65186941288720
H        -4.01916894219238    5.07233150033960    2.51829021898482
H        -0.89275515370856    4.06444608753148    4.11828646600650
H        -2.39437567083778    3.86135704149740    5.01731679341609