80
 energy: -132.281984163635 gnorm: 0.000418849083 xtb: 6.3.3 (4ae9cef)
C        -2.58588696768916   -1.16056565489272   -2.06469093348655
C        -3.08287519875360   -0.84230165951892   -3.31569739781669
C        -2.45929188680821    0.12564456343627   -4.08425957218035
C        -1.32983532789453    0.76531260534847   -3.60222974898375
C        -0.83038663133115    0.44917420907832   -2.35186740237283
C        -1.46434187998597   -0.50882329378365   -1.57021936421572
C        -0.93586386494391   -0.84757019603021   -0.19874785213450
C         0.42450238256677   -1.56724965080742   -0.26479445200282
C         0.51271560338163   -2.79566356684637    0.61024966990166
C         1.17054448393051   -3.92492721541237    0.14037771782247
C         1.29512292061070   -5.04659655930059    0.94105269497298
C         0.76337745198772   -5.05107917105743    2.21925705290465
C         0.11403128658722   -3.92539367285992    2.69655529476237
C        -0.00680667912870   -2.80118151015429    1.89936200660636
N         1.38061592168453   -0.56050980114797    0.18285776704904
C         2.68093868102791   -0.63002921182942   -0.20280705072880
C         3.56178713142959    0.36144608122676    0.45127349245270
C         4.18864493661148    1.47807267374801   -0.06004398574206
C         4.12348371922362    2.12449775941831   -1.35557804718871
C         4.73695672285798    3.36728542470649   -1.53590116504993
C         4.66167355992750    4.01624814111000   -2.75231664144662
C         3.97133274233266    3.44204802847896   -3.80774991085198
C         3.36306734596475    2.20831054333603   -3.63911378249691
C         3.43690088798890    1.54980151145987   -2.42702717253856
O         4.91384584246474    2.06633575639162    0.92061691796407
C         4.77541311411431    1.34095362705136    2.04427567400627
C         5.46842949215688    1.79970278718081    3.27430877501391
C         3.95501659067596    0.27730199711003    1.81295762994391
O         3.06561850772214   -1.48219146134282   -0.97871387895277
C         0.73486931924450    0.42244293123519    1.01119034562100
C         1.27680377606690    1.85939475479288    0.84945197075535
O         1.18374141135816    2.27782159042857   -0.41416052524358
O         1.79922130665224    2.47667029345035    1.73266569803549
N        -0.65162105360677    0.34375522773876    0.58750740295795
C        -1.44433635042460    1.43405724933811    0.71412216695766
C        -2.82870288276265    1.26311503122486    0.23208606219927
C        -3.76548454203965    0.33995225869577    0.64091661605245
C        -3.71437346879926   -0.66230694333876    1.68826634576858
C        -4.51295672508440   -1.80416540756060    1.60990476310507
C        -4.44070547269819   -2.77420660520880    2.59071886252173
C        -3.57920539519787   -2.61789740563605    3.66434556546019
C        -2.79774114944163   -1.47732063448577    3.76039190271746
C        -2.86242737031551   -0.50265919336258    2.78297786497811
O        -4.88310620712162    0.47010376123846   -0.10894930497555
C        -4.68250083415109    1.47583700589238   -0.98574167900005
C        -5.77159035754748    1.81050000026807   -1.93797389472847
C        -3.43908366265874    2.00625544359243   -0.81191822136055
O        -1.00980620843918    2.46633177460440    1.19520628128261
H        -3.07395116681118   -1.91341572112253   -1.46184631983951
H        -3.95994454326113   -1.34963206048254   -3.68983957624684
H        -2.85145528822577    0.37861494581604   -5.05807016455192
H        -0.83520618445434    1.51572510944376   -4.20075989588216
H         0.04398595589600    0.95879923360568   -1.97643115243489
H        -1.66563482371645   -1.47799657609103    0.32383072953307
H         0.68479602223145   -1.84059194508772   -1.29333349361459
H         1.59767724334892   -3.91530479587252   -0.85070026828909
H         1.80873055437275   -5.91886288825539    0.56542830779678
H         0.85728084444173   -5.92749935376886    2.84319205727797
H        -0.30019546860192   -3.91874626791733    3.69397584092240
H        -0.51463148722191   -1.93078203097812    2.28771356027548
H         5.27072190260415    3.81382143784590   -0.71080918271354
H         5.14294155514050    4.97515887980816   -2.87874772204352
H         3.91230382778418    3.95145589263368   -4.75822124634262
H         2.83139825926911    1.75227021892446   -4.46120578209584
H         2.97661103089272    0.58289592635534   -2.31409194036777
H         4.96340795885795    2.67685873400526    3.67822988171289
H         6.49740883667518    2.07314317852347    3.04866165427674
H         5.45628140927242    1.01146850550502    4.02064505923176
H         3.66333466602544   -0.48034226607162    2.51124901883271
H         0.82379968767851    0.17599268828626    2.08590317923800
H         1.49924012817678    3.19202352286360   -0.48799963183370
H        -5.18252840987420   -1.91999402870244    0.77084168286301
H        -5.05849611747426   -3.65705257460421    2.51839089084223
H        -3.52460910602702   -3.37781319947814    4.42928922740756
H        -2.13971264239821   -1.34318490789326    4.60658261737893
H        -2.27038984694807    0.39615860000632    2.86995402778472
H        -5.97543009042729    0.96217132079635   -2.59033649820769
H        -6.68785123107882    2.04891658200520   -1.39969481461625
H        -5.47836779866444    2.66212625349927   -2.54329141889902
H        -2.99124169914752    2.80788436939042   -1.36090218571748
