68
 energy: -116.932886511299 gnorm: 0.103608915364 xtb: 6.3.3 (4ae9cef)
C         0.26705500000000   -2.97085000000000   -0.44408200000000
O        -1.02522200000000   -3.07639800000000   -0.89724600000000
C        -1.54405700000000   -4.38476000000000   -1.10499900000000
C         1.10533000000000   -4.05772400000000   -0.16647700000000
C         2.41804500000000   -3.85338000000000    0.26308800000000
C         2.90561400000000   -2.56382500000000    0.43455300000000
C         2.07674400000000   -1.47551500000000    0.17073800000000
C         0.75448300000000   -1.65898300000000   -0.28111600000000
C        -0.13609400000000   -0.45441400000000   -0.55958900000000
C        -0.55249800000000    0.22609700000000    0.77341800000000
C        -1.93234700000000   -0.17240000000000    1.26556300000000
C        -3.10428600000000    0.31749600000000    0.66734300000000
C        -4.36653900000000   -0.06006900000000    1.13885900000000
C        -4.48566900000000   -0.94200200000000    2.20800700000000
C        -3.33662900000000   -1.44643400000000    2.81164300000000
C        -2.07278500000000   -1.05679100000000    2.34823100000000
O        -0.95440900000000   -1.60319000000000    2.91807900000000
C        -0.76564800000000   -1.11786500000000    4.25230900000000
N        -0.41892200000000    1.67117800000000    0.53990400000000
C        -0.18407800000000    2.49834500000000    1.63059700000000
C        -0.10828200000000    3.92593300000000    1.37330700000000
C         0.89828400000000    4.75213100000000    1.84019300000000
C         2.12687700000000    4.50908400000000    2.62762500000000
O         0.66529200000000    6.03882900000000    1.46524600000000
C        -0.50619100000000    6.04858900000000    0.78083700000000
C        -1.02850600000000    4.78175500000000    0.70341700000000
O        -0.02853700000000    2.06877800000000    2.77288800000000
C         0.20148600000000    1.93003400000000   -0.75461500000000
C        -0.81342500000000    2.57556500000000   -1.73552800000000
O        -0.41944500000000    3.77681100000000   -2.21305300000000
O        -1.87032900000000    2.08666800000000   -2.11083700000000
N         0.54011600000000    0.62662000000000   -1.29624600000000
C         1.27808300000000    0.56584900000000   -2.45805200000000
C         1.29758900000000   -0.68382900000000   -3.19387100000000
C         2.43776800000000   -1.40615400000000   -3.50733500000000
C         3.87523000000000   -1.22516400000000   -3.21789800000000
O         2.10958600000000   -2.53737500000000   -4.19619400000000
C         0.76122700000000   -2.52191600000000   -4.36797700000000
C         0.21213000000000   -1.41100200000000   -3.76962500000000
O         1.90652800000000    1.54254100000000   -2.85873600000000
H        -2.55497300000000   -4.27900700000000   -1.52360900000000
H        -0.94327700000000   -4.93827800000000   -1.83362100000000
H        -1.62726800000000   -4.93299400000000   -0.15726200000000
H         0.76958900000000   -5.08470300000000   -0.28244200000000
H         3.06039400000000   -4.70498000000000    0.46689400000000
H         3.92560900000000   -2.39120200000000    0.75467100000000
H         2.47681500000000   -0.47253200000000    0.31868700000000
H        -1.00987000000000   -0.71722500000000   -1.16263000000000
H         0.18590300000000   -0.00480900000000    1.55151800000000
H        -3.05450300000000    0.99960500000000   -0.17597100000000
H        -5.26185500000000    0.32286300000000    0.65402800000000
H        -5.46424700000000   -1.24685100000000    2.56692400000000
H        -3.42880200000000   -2.16332500000000    3.62247800000000
H        -0.95122000000000   -0.03946200000000    4.33135400000000
H         0.27472000000000   -1.30706400000000    4.53429900000000
H        -1.40623400000000   -1.66501200000000    4.95410100000000
H         1.89630600000000    4.39511500000000    3.68977600000000
H         2.62086100000000    3.59519800000000    2.28247500000000
H         2.83628200000000    5.33508100000000    2.50651500000000
H        -0.83256900000000    7.01784900000000    0.44036400000000
H        -1.97044000000000    4.51005000000000    0.24683900000000
H         1.10193500000000    2.54674500000000   -0.66243900000000
H        -1.08671100000000    4.01304900000000   -2.89175800000000
H         4.42163500000000   -0.97791500000000   -4.12881800000000
H         4.29745600000000   -2.14386700000000   -2.79044300000000
H         4.03355500000000   -0.42083100000000   -2.49621600000000
H         0.34615100000000   -3.35637700000000   -4.91449600000000
H        -0.83881000000000   -1.15138500000000   -3.75358600000000
68
 energy: -116.946204721166 gnorm: 0.039820633412 xtb: 6.3.3 (4ae9cef)
C         0.26987286654999   -2.95898252555809   -0.45696884896763
O        -1.01818923696389   -3.07592113640725   -0.90203973284599
C        -1.53822906405696   -4.37616070697936   -1.10409421383012
C         1.10180590384662   -4.04090188881825   -0.17398671637839
C         2.40402851577397   -3.83663370389396    0.25515703822924
C         2.88859727766565   -2.55199181673538    0.42028905709169
C         2.06263318969303   -1.47079704581623    0.15379924408206
C         0.75709965114729   -1.65045341092152   -0.29728183600761
C        -0.13783438924443   -0.45412735322626   -0.55640968183403
C        -0.55199215657455    0.22235818999781    0.77637424320208
C        -1.93270266862210   -0.17321975667533    1.25636040292463
C        -3.09437184978946    0.31478402293473    0.66171461365503
C        -4.34793032115510   -0.05877103157819    1.12799980142718
C        -4.46711911939869   -0.93687577576770    2.19238231299199
C        -3.32525280047548   -1.44067065536492    2.79061881831238
C        -2.06492381147218   -1.06151181458291    2.33083726582830
O        -0.93580021837786   -1.57870902622791    2.92287548657150
C        -0.75623113454697   -1.11971628708200    4.25906852392102
N        -0.41851905483944    1.66641632637779    0.53946341377043
C        -0.17517186503480    2.48372073413929    1.62527740557100
C        -0.09304515815035    3.92545807975381    1.36252149020912
C         0.90177833192766    4.75306994583220    1.83537041673153
C         2.13131515675984    4.49884610358939    2.62267108675208
O         0.65390822608420    6.02780562847953    1.46323424294749
C        -0.51192190276549    6.03633169898488    0.78228749178185
C        -1.01387362466661    4.77620245400715    0.68447461616419
O        -0.06914270310660    2.04165825753835    2.75794386376162
C         0.18435622764764    1.92898306877225   -0.75390603589457
C        -0.81489556012789    2.57229677931759   -1.73242277987479
O        -0.41711190408552    3.75985932367631   -2.20578693515216
O        -1.85199799048526    2.07337179657772   -2.08782494934779
N         0.53800280645721    0.62573884829531   -1.28395259242055
C         1.27692671884004    0.56126387896811   -2.43502113167287
C         1.30329322107173   -0.71377519227339   -3.16085158026608
C         2.43602869780056   -1.42190450273717   -3.48959965038477
C         3.87547238963851   -1.22197469803036   -3.20615536329257
O         2.09891627954088   -2.52626669174231   -4.19764405157403
C         0.75627249299301   -2.51767998234355   -4.35062558109336
C         0.21434102816366   -1.43133834336264   -3.73761294991041
O         1.88183943300807    1.54228774139219   -2.83970967642659
H        -2.54376151241118   -4.24758310143435   -1.51287927059495
H        -0.93698059643812   -4.93658989373262   -1.82557556454118
H        -1.61098736056911   -4.92630647098128   -0.16071955058470
H         0.75806726433387   -5.06009043340990   -0.28320195228783
H         3.03990030201571   -4.68754197241476    0.46265865275097
H         3.90290123141505   -2.38487346790824    0.75464365429279
H         2.45089942542995   -0.47074296590610    0.29920654634896
H        -1.02437764360288   -0.75226766955599   -1.12690776910609
H         0.17241983166632   -0.04122479251590    1.56018439032469
H        -3.03192434288350    0.99601286256734   -0.17562266749469
H        -5.23835432655762    0.33132818001656    0.65240721860154
H        -5.44278431240583   -1.23546077752677    2.55431262248936
H        -3.41145188981075   -2.13999376222656    3.61184576117487
H        -0.94308568607173   -0.04495525298665    4.32731932585327
H         0.28296823982111   -1.31671332495023    4.52543631496088
H        -1.41129182770380   -1.65726399290325    4.95315584307159
H         1.89258231034970    4.38573243145815    3.68024215301842
H         2.62060393197124    3.58393666384622    2.28902758111693
H         2.82233675977127    5.33388706704401    2.50643110334831
H        -0.84784339569797    6.99617834551148    0.43963114908111
H        -1.94738818465574    4.49805906371989    0.23334441372339
H         1.07203056423264    2.57024020874402   -0.67971298132546
H        -1.07067426508011    4.03060994440152   -2.87830564121449
H         4.41300869308746   -0.97653021448279   -4.12211867567892
H         4.30079430310213   -2.13921454467896   -2.79418116361890
H         4.01962211371939   -0.41206678618254   -2.49434798661505
H         0.33659131212930   -3.33144622989475   -4.91181156165718
H        -0.82405181982671   -1.15718964612730   -3.73328747418980
68
 energy: -116.950849569715 gnorm: 0.014884962959 xtb: 6.3.3 (4ae9cef)
C         0.26812159306150   -2.94345462166283   -0.47210284859284
O        -1.01612078593381   -3.06787258126831   -0.91085658333951
C        -1.53600159756222   -4.36224277049931   -1.10557019977225
C         1.09705316438765   -4.02256478239644   -0.18682259152918
C         2.39417620320660   -3.81740177394092    0.24516787797809
C         2.87829784710249   -2.53472265414380    0.40667082202767
C         2.05330974603436   -1.45773360880859    0.13526185745574
C         0.75725491623185   -1.63776645287354   -0.31372890014172
C        -0.14183346499058   -0.45049115822641   -0.55977643832660
C        -0.54608527229005    0.21704700188606    0.77687830890230
C        -1.92605756646505   -0.17442089167276    1.24437334471036
C        -3.07830364320496    0.31343207561832    0.64576116723399
C        -4.32883780775122   -0.05420263187259    1.10886512844095
C        -4.44775756774892   -0.93097350915384    2.17236136961529
C        -3.31056515228736   -1.43124990861951    2.77464739418457
C        -2.05177284304559   -1.05749389501454    2.32021222513854
O        -0.91336722512641   -1.55412724915447    2.92246044596762
C        -0.74347995563965   -1.12041593146646    4.26231580362024
N        -0.41436922474660    1.65768721011815    0.54354218540859
C        -0.18373768040027    2.46591845373839    1.62974831986983
C        -0.07745650109660    3.91458988326604    1.35202075945622
C         0.90570552521531    4.74813313715914    1.82865463575768
C         2.13419294405880    4.48677568456175    2.61989480625514
O         0.64605177580783    6.01502609130506    1.46295849521566
C        -0.51097646517219    6.01655265932621    0.77613614558146
C        -1.00084851007020    4.75774029625627    0.66672865105159
O        -0.12277803963066    2.01666967707193    2.75816526351741
C         0.16791501422439    1.92833147051272   -0.75013949601243
C        -0.82998010392087    2.56353180830216   -1.72748281317499
O        -0.41802074161346    3.73874978163061   -2.19118030417897
O        -1.85942311297900    2.05241667118872   -2.06849394714565
N         0.53024506522050    0.62674217729182   -1.27616601862862
C         1.27132348459483    0.55985629912304   -2.41635426792513
C         1.30973487992596   -0.73967572122766   -3.12253031493693
C         2.43474743412467   -1.43973210147171   -3.47046199969552
C         3.87546957730585   -1.22112764778985   -3.19151981332514
O         2.09077171548781   -2.52869390276333   -4.18506469843759
C         0.75291131478071   -2.51469184678269   -4.33194387762050
C         0.21375988625826   -1.44675357728082   -3.69733547736521
O         1.85604599417695    1.54456613548056   -2.83061197670953
H        -2.53856212506677   -4.21811807196362   -1.50409929766381
H        -0.93843170564512   -4.92997442904039   -1.82508015582225
H        -1.59842146247761   -4.91470247981041   -0.16375184646102
H         0.74280433759010   -5.03549064855045   -0.29049218596947
H         3.02312072096225   -4.66890760504595    0.45971487753879
H         3.88841422181073   -2.37216600845539    0.75102038359004
H         2.43028054274408   -0.45595730152237    0.27350180436736
H        -1.03828442001728   -0.77386718275883   -1.10402253490648
H         0.16387165538940   -0.06869389181952    1.56724964408301
H        -2.99847250489871    0.99654632489542   -0.18624260857621
H        -5.21578350895245    0.34362265881254    0.63974728314255
H        -5.42196977082275   -1.22383109934386    2.53625318630782
H        -3.39148028122927   -2.12019247285972    3.60249877564120
H        -0.91772864390797   -0.04480614050474    4.33606879556441
H         0.29045296845655   -1.33854033957199    4.52128354576280
H        -1.41273950737459   -1.65017213143263    4.94810224984081
H         1.88515317925935    4.37284178679705    3.67426449417743
H         2.61812758095089    3.57139058197812    2.29138906590080
H         2.81577702519886    5.32607208923222    2.50893305741344
H        -0.86016082693937    6.96804275911605    0.42934096946093
H        -1.92478937982634    4.46697881022117    0.21266236373564
H         1.04780192592027    2.58680720505541   -0.68960694588745
H        -1.04926450169642    4.05532529928884   -2.86277733486813
H         4.40281428268706   -0.97640532258985   -4.11364168350256
H         4.31139041442944   -2.13067297134683   -2.78285781571044
H         4.00099272174939   -0.40203131654592   -2.49134281600575
H         0.32379190999542   -3.31338066181240   -4.90246179622651
H        -0.81801866781976   -1.16567573616864   -3.68033491545767
68
 energy: -116.952581356578 gnorm: 0.012871200796 xtb: 6.3.3 (4ae9cef)
C         0.26635732378296   -2.93173922195568   -0.48651961937256
O        -1.01686173817996   -3.05598103810318   -0.92215775851769
C        -1.54038137177287   -4.34728748977148   -1.10968724385278
C         1.09518459611647   -4.00945772580630   -0.19866905838124
C         2.39116341170864   -3.80191591234268    0.23674492098022
C         2.87694758692951   -2.51918046668075    0.39458572618771
C         2.05251868200399   -1.44375456641974    0.11774507986159
C         0.75759478771601   -1.62797743704053   -0.32920499619583
C        -0.14474943234697   -0.44543322415967   -0.56565761307207
C        -0.53848482863047    0.21251139719005    0.77573679826482
C        -1.91672212738841   -0.17428743514751    1.23807593672098
C        -3.06240679497743    0.31503584756974    0.63070435859587
C        -4.31445535134502   -0.04871910603767    1.09035982895591
C        -4.43465878104634   -0.92244479815160    2.15697630203152
C        -3.30106632779673   -1.42099208807486    2.76829072467240
C        -2.04101619929097   -1.05020898734141    2.31848659564768
O        -0.89863700712470   -1.53976339279233    2.91987156968890
C        -0.73004711828836   -1.12401707130015    4.26362664273362
N        -0.40444194281072    1.65009060688008    0.54980179478488
C        -0.19404096177952    2.45233990164193    1.63923793527637
C        -0.06823047323191    3.89990093029334    1.35013534071451
C         0.90608131778368    4.74045810937919    1.82835667484758
C         2.13375172340785    4.47696916387638    2.62243522660086
O         0.64266704090266    6.00286504618612    1.45669023746687
C        -0.51005993437794    5.99553257215398    0.76499003012989
C        -0.99250995981327    4.73351855185193    0.65437916665867
O        -0.18071011392152    2.00360311874339    2.77061767677984
C         0.15866195846890    1.92991656464682   -0.74678896758006
C        -0.84812217820952    2.56094967024953   -1.72031172275102
O        -0.42403797456555    3.72739489287098   -2.18214871903042
O        -1.87783770162182    2.04266965705495   -2.05257682844960
N         0.52266203507066    0.63071993806416   -1.27507857646461
C         1.26835768171412    0.56040079487651   -2.40733654239216
C         1.31500242590943   -0.75399120084104   -3.09187961190581
C         2.43497432391467   -1.45249842338854   -3.45445624284975
C         3.87558018666829   -1.22127880115570   -3.17863684456178
O         2.08561546560682   -2.53293730488317   -4.17589764086424
C         0.74657762764254   -2.52063722260325   -4.30398442247984
C         0.21144222682055   -1.45734678030255   -3.65712641631104
O         1.83899446549871    1.54678081389588   -2.83675899164618
H        -2.54488795267434   -4.19782826473551   -1.49839151434369
H        -0.95013300750810   -4.91975437442253   -1.83258306127889
H        -1.59424240094456   -4.89968039579140   -0.16656482507861
H         0.73566410696186   -5.02000150855440   -0.30065448548087
H         3.01658903498116   -4.65378929029535    0.45692583641520
H         3.88504088508366   -2.35766408728631    0.74307163151285
H         2.42232834192868   -0.43830909971506    0.24995188265296
H        -1.04618638595769   -0.77423155075852   -1.09720734627102
H         0.16651472674260   -0.08444229820944    1.56542450593163
H        -2.96867184984176    0.99330228610325   -0.20399319108549
H        -5.19900298357997    0.35033547926313    0.61895161002867
H        -5.40969075657225   -1.21400046241048    2.51749910630047
H        -3.38254088614489   -2.10441347335339    3.60014480027262
H        -0.88088455390967   -0.04453239152272    4.34875558895565
H         0.29762040800700   -1.36927827225855    4.52443897558442
H        -1.41474704171849   -1.64494652174835    4.94146263917503
H         1.87919090570994    4.36191618485437    3.67544310793801
H         2.61447886225988    3.56053858376850    2.29419188700054
H         2.81582484273111    5.31530330560276    2.51443786930269
H        -0.86961347064605    6.94047768257780    0.41036764712613
H        -1.90669433340744    4.42869054147649    0.18976735241841
H         1.03471359185259    2.59515607796216   -0.69552489067084
H        -1.03752171881269    4.07448332913833   -2.85442961155334
H         4.39670235489379   -0.97679210445717   -4.10430891129828
H         4.32350556385155   -2.12162593583468   -2.76393524676584
H         3.98769970504349   -0.39423964821692   -2.48633303311363
H         0.30740811805638   -3.30963432268664   -4.88066131772423
H        -0.81911965553210   -1.17484835161468   -3.61921675687276
68
 energy: -116.953701130002 gnorm: 0.009874582651 xtb: 6.3.3 (4ae9cef)
C         0.26611075671259   -2.92170234788614   -0.50214449820757
O        -1.01750899145674   -3.04117777252021   -0.93637027727226
C        -1.54884981430724   -4.32990746414051   -1.11573216649127
C         1.09608184742726   -3.99860074126345   -0.21259780420069
C         2.39181907272456   -3.78784229483951    0.22501908534081
C         2.87976838015127   -2.50461804562572    0.37906382353573
C         2.05584940185624   -1.43006186068018    0.09818523262416
C         0.75939533785712   -1.61959536842335   -0.34634520675579
C        -0.14539330716985   -0.43895746304899   -0.57388914409898
C        -0.52844308784054    0.20713523183302    0.77409238947106
C        -1.90553489436464   -0.17497133818364    1.23496615875711
C        -3.04515024207678    0.31407169478756    0.61467059800103
C        -4.30039957391288   -0.04506292695021    1.07020524176100
C        -4.42415915749258   -0.91145404123534    2.14323505204776
C        -3.29537697479144   -1.40775855432117    2.76768954252104
C        -2.03212576042059   -1.04147713345650    2.32228950586206
O        -0.88880793359534   -1.53087346934776    2.91829910381163
C        -0.71563903117965   -1.13203114608978    4.26586384656667
N        -0.38980362188613    1.64260860304929    0.55833894251357
C        -0.21225174155858    2.44157042445008    1.65166017094472
C        -0.06436876827077    3.88391916781146    1.35394345042456
C         0.90429560076855    4.73067267898073    1.82999551530725
C         2.13012889284354    4.46704257942079    2.62803864652551
O         0.64002843082375    5.98979802825622    1.44571706884980
C        -0.50755950624083    5.97197073406337    0.74521463215132
C        -0.98873345812094    4.70743585474147    0.64737154068174
O        -0.23943898545332    1.99665264389933    2.78398677906368
C         0.15230330877326    1.93420818695684   -0.74297682257022
C        -0.86682143335446    2.56439592052537   -1.71074346500974
O        -0.43256151836241    3.72245304113016   -2.17715644299990
O        -1.90071755416605    2.04498574869560   -2.03185946767682
N         0.51498157373875    0.63905177134073   -1.27935702625684
C         1.26697533152581    0.56390697962808   -2.40477036740561
C         1.32083090787831   -0.76107370409306   -3.06589423869263
C         2.43627126655243   -1.46092603349020   -3.44032821107777
C         3.87579704355256   -1.22006973574452   -3.16676575376360
O         2.07874624388374   -2.54413719619947   -4.15284968145289
C         0.73787418249581   -2.53121518063076   -4.26669348991704
C         0.20964380196594   -1.46543752212693   -3.61620800481007
O         1.82936971078692    1.54833982426864   -2.84980123158239
H        -2.55808700633160   -4.17782296805379   -1.49242744682765
H        -0.97014414415684   -4.90636355898951   -1.84562542839595
H        -1.59398347604064   -4.88071202605275   -0.17042810744243
H         0.73489648076384   -5.00870497363213   -0.31461108174582
H         3.01547944751679   -4.63948451197956    0.45089506972079
H         3.88718865889829   -2.34235436765860    0.72825592334675
H         2.42098469389368   -0.42111774499054    0.22372693694995
H        -1.05058436489146   -0.76434076236176   -1.09833188583980
H         0.17675384106583   -0.09805992511671    1.55895329814699
H        -2.93946385923020    0.98477054456272   -0.22520472526230
H        -5.18226931552542    0.35134131812256    0.59093863708546
H        -5.40169169116474   -1.20174394914434    2.49803805856462
H        -3.38275774254148   -2.08623981508182    3.60308445508192
H        -0.83075785638372   -0.04704619485745    4.36188559256894
H         0.30313094187483   -1.41413782095171    4.53192294045348
H        -1.42071166863801   -1.63751519823179    4.93547341542743
H         1.87240011915234    4.35137736135514    3.68039126551465
H         2.60909286961606    3.54924150395422    2.29911152986301
H         2.81700248421674    5.30200854503118    2.52243240243515
H        -0.87458189262784    6.90996463225210    0.37873579143641
H        -1.89449574983915    4.38897742788913    0.17392087108305
H         1.02522579686583    2.60307453137247   -0.70163689528590
H        -1.03128816567952    4.09161408756996   -2.84881020504502
H         4.39583048787150   -0.98319361371033   -4.09466891292440
H         4.33302440339852   -2.10867741422588   -2.73577122044219
H         3.97748857036573   -0.38239232271711   -2.48494856080924
H         0.28737056355429   -3.31683735009079   -4.83956452716316
H        -0.82167716230012   -1.18689420780450   -3.55109921701518
68
 energy: -116.954330063245 gnorm: 0.007794357110 xtb: 6.3.3 (4ae9cef)
C         0.26774438523756   -2.91493832150125   -0.51597675052467
O        -1.01730618800505   -3.02816816929866   -0.94928719639487
C        -1.55759327805564   -4.31490014434605   -1.12130508043721
C         1.09864773341684   -3.99195773212885   -0.22692477506717
C         2.39471778265801   -3.77921134827424    0.21029322263015
C         2.88459811607620   -2.49572449147163    0.36149684677148
C         2.06118471960962   -1.42120150520452    0.07973905479339
C         0.76252725831755   -1.61383410730540   -0.36165968363018
C        -0.14407037498867   -0.43311362113163   -0.58190938487775
C        -0.51929249978708    0.20256632688079    0.77222955075338
C        -1.89628894553489   -0.17692924282058    1.23447742727031
C        -3.03173236883384    0.30948877487304    0.60277343751887
C        -4.28988698759440   -0.04548349331915    1.05452039881138
C        -4.41823907279954   -0.90189841617323    2.13524099030162
C        -3.29384915270797   -1.39529415508062    2.77135324089710
C        -2.02708674107526   -1.03533669960588    2.32804962910422
O        -0.88519930395121   -1.52899482381020    2.91907520519657
C        -0.70517281614628   -1.14232969849685    4.26921531616930
N        -0.37489068473210    1.63774723173937    0.56564072078864
C        -0.22927110359928    2.43580184707043    1.66202142578087
C        -0.06785078738838    3.87329581656202    1.36242009453173
C         0.90035160294425    4.72290526652397    1.83231920782582
C         2.12368296281399    4.46015013991431    2.63432041063056
O         0.64096303521806    5.97914232291633    1.42943830400115
C        -0.50519560013722    5.95474004797606    0.72572634664371
C        -0.98954962486712    4.68938876211671    0.64461270198787
O        -0.28856348334644    1.99376009990147    2.79412636451662
C         0.15065995428997    1.94009052768422   -0.73950588687561
C        -0.87926787558684    2.57396122815301   -1.69917420779020
O        -0.43672718602819    3.72423987891370   -2.17664636867135
O        -1.92004060467761    2.06048330350009   -2.00906799254801
N         0.50931166764822    0.64934433490974   -1.28699943657241
C         1.26727647644240    0.56999581558055   -2.40812111352593
C         1.32468673408990   -0.76024066599057   -3.05145038699502
C         2.43723416944283   -1.46387606003006   -3.42897557126395
C         3.87571193660259   -1.21757999657503   -3.15834037124609
O         2.07362096616870   -2.55657758928733   -4.12524707314192
C         0.73030254281862   -2.54738694434755   -4.22400635081217
C         0.20871600127200   -1.47164972182441   -3.58426801358327
O         1.82982089878015    1.55005960463431   -2.86200115684051
H        -2.57171168852410   -4.16037688948200   -1.48660185457222
H        -0.99106197545149   -4.89399375317655   -1.85875142663781
H        -1.59527991795228   -4.86369413531201   -0.17440785523090
H         0.73859881044025   -5.00286689369196   -0.32988122542159
H         3.01879589561652   -4.63018445126085    0.43850070426468
H         3.89283538364707   -2.33230779009903    0.70827415027070
H         2.42535176577569   -0.41093600089163    0.20108432581991
H        -1.05208070671044   -0.75217556145083   -1.10386694362073
H         0.18946854896476   -0.10891274041265    1.55078467778743
H        -2.91996939197746    0.97201634808000   -0.24275926123950
H        -5.16924512050756    0.34521467652623    0.56488536676409
H        -5.39858187438143   -1.18942359098401    2.48580293018519
H        -3.38964702415466   -2.06799204836360    3.61091715267912
H        -0.78430143718673   -0.05351209801926    4.37081787213030
H         0.30341331501240   -1.45943503385910    4.54009468875017
H        -1.42920075376993   -1.62840920502245    4.93325676257867
H         1.86479593598099    4.34586726526018    3.68661654444595
H         2.60157460093586    3.54045142510768    2.30616268029895
H         2.81612846295818    5.29120309379537    2.52912562846964
H        -0.87250980960955    6.88744998498093    0.34627958980844
H        -1.89160538127876    4.36302207966019    0.16919417084917
H         1.02223451655053    2.60950652346441   -0.70529831845523
H        -1.02964365726796    4.10275325697444   -2.84552678092533
H         4.39898478356023   -0.99538305622077   -4.08789050641040
H         4.33548591356038   -2.09580257359365   -2.70715576044203
H         3.97326143266922   -0.36809235653503   -2.48951591823598
H         0.27219717042689   -3.33719457862686   -4.78494318315846
H        -0.82297106133084   -1.19732727867392   -3.50342030687914
68
 energy: -116.954797068033 gnorm: 0.007453895419 xtb: 6.3.3 (4ae9cef)
C         0.27042733888840   -2.90965475372504   -0.52939720318591
O        -1.01671254710626   -3.01693567699422   -0.96050425998627
C        -1.56568270018233   -4.30174210838043   -1.12608362634708
C         1.10164279462192   -3.98764144477694   -0.24376196326197
C         2.39887439020479   -3.77481268410337    0.19018636020789
C         2.89060275808656   -2.49155415271701    0.33992793835419
C         2.06749487829566   -1.41617434373124    0.06105940070740
C         0.76660201001515   -1.60917958899939   -0.37600628177985
C        -0.14178464897634   -0.42802112568872   -0.58909449185983
C        -0.51121172342571    0.19842127184516    0.77050324916567
C        -1.88878516899848   -0.18003267531160    1.23450455930904
C        -3.02154078723692    0.30151825841075    0.59349776194152
C        -4.28190281071370   -0.04964370803218    1.04225225692362
C        -4.41484543606714   -0.89401981113567    2.13171570878497
C        -3.29376665881951   -1.38344427756565    2.77694526620118
C        -2.02402812577944   -1.03132140745853    2.33353550690067
O        -0.88451554683414   -1.53075557849949    2.92154209275191
C        -0.69826927150853   -1.15346506129165    4.27358333493616
N        -0.36201371178019    1.63447734657703    0.57191161171784
C        -0.24805232802686    2.43336374042592    1.67015377620207
C        -0.07778339604546    3.86783398497545    1.37214119683363
C         0.89526540067112    4.71649500643286    1.83229075065820
C         2.11493607153221    4.45473929529057    2.63951964957543
O         0.64357384683653    5.97058526259900    1.41230978518314
C        -0.50157237587571    5.94349031701620    0.70628392323181
C        -0.99407093111040    4.67989803045495    0.64348795772049
O        -0.33123723133909    1.99214861178673    2.79996826487535
C         0.15185035125970    1.94645026639650   -0.73528503100186
C        -0.88494626170525    2.58734606496946   -1.68603417259032
O        -0.43402387355177    3.72988429438733   -2.17726409424049
O        -1.93578769823209    2.08668345678075   -1.98293164385918
N         0.50506420046743    0.66016023499570   -1.29540758274902