84
 energy: -130.457270048498 gnorm: 0.135838675835 xtb: 6.3.3 (4ae9cef)
C         1.78732900000000    1.62348300000000    3.28903100000000
C         3.00223000000000    2.20899800000000    3.65467700000000
C         3.99655700000000    2.45921100000000    2.69608800000000
C         5.22779300000000    3.02599700000000    3.05175600000000
C         6.21989500000000    3.24828000000000    2.09482900000000
C         5.97940700000000    2.92394500000000    0.76072500000000
C         4.75067400000000    2.37753900000000    0.38647300000000
C         3.75601900000000    2.12666200000000    1.34412100000000
C         2.52876600000000    1.53978300000000    0.98980800000000
C         1.53881300000000    1.27301100000000    1.95708900000000
C         0.23127500000000    0.58846800000000    1.58592700000000
C        -0.61163600000000    1.44937500000000    0.59596100000000
C        -1.81045900000000    2.09070400000000    1.28249100000000
C        -1.67086600000000    3.37947500000000    1.83184700000000
C        -2.71907700000000    4.00446900000000    2.53179400000000
C        -2.57140400000000    5.29444100000000    3.07293100000000
C        -3.61676800000000    5.89734300000000    3.76847800000000
C        -4.81728400000000    5.21179300000000    3.94924000000000
C        -4.98141200000000    3.93149600000000    3.41605900000000
C        -3.94321800000000    3.32015000000000    2.69816300000000
C        -4.09106000000000    2.04134600000000    2.14109100000000
C        -3.03981400000000    1.43827600000000    1.44234900000000
N        -0.94356100000000    0.53428000000000   -0.50267500000000
C        -1.26469900000000    1.02138000000000   -1.75138400000000
C        -1.53991900000000    0.04826400000000   -2.82230800000000
C        -2.86384300000000   -0.34950600000000   -3.03256900000000
C        -3.16542300000000   -1.29603100000000   -4.01504300000000
C        -4.57724600000000   -1.75405200000000   -4.22189000000000
C        -2.13115900000000   -1.77573000000000   -4.83177100000000
C        -0.79998100000000   -1.35725000000000   -4.64459800000000
C         0.27720400000000   -1.83572300000000   -5.57543800000000
C        -0.50485200000000   -0.43216000000000   -3.63022200000000
O        -1.35100100000000    2.21763300000000   -2.02076500000000
C        -0.54170600000000   -0.83072700000000   -0.18764300000000
C        -1.80728400000000   -1.64351100000000    0.26078300000000
O        -1.74147700000000   -2.15761400000000    1.50799800000000
O        -2.84228900000000   -1.80594800000000   -0.37215400000000
N         0.45113000000000   -0.67033700000000    0.86632700000000
C         1.13440300000000   -1.73738500000000    1.42444800000000
C         1.49202500000000   -2.84989800000000    0.51515300000000
C         2.36074200000000   -2.59673200000000   -0.55029000000000
C         2.70525000000000   -3.63454700000000   -1.42860300000000
C         3.63746500000000   -3.36056400000000   -2.57240400000000
C         2.16043600000000   -4.90915500000000   -1.22504600000000
C         1.29247200000000   -5.16955600000000   -0.14913500000000
C         0.76623000000000   -6.56074700000000    0.07306100000000
C         0.97679700000000   -4.13350200000000    0.74037600000000
O         1.47422900000000   -1.80662800000000    2.59900500000000
H         1.04813900000000    1.41268400000000    4.05915200000000
H         3.17467700000000    2.44455300000000    4.69958200000000
H         5.42544300000000    3.27951500000000    4.09001000000000
H         7.18099000000000    3.66304800000000    2.38832100000000
H         6.74914100000000    3.09301000000000    0.00856600000000
H         4.56874000000000    2.14886700000000   -0.65881300000000
H         2.35201100000000    1.27094300000000   -0.04973600000000
H        -0.33926100000000    0.34343200000000    2.49454900000000
H        -0.01799400000000    2.25434600000000    0.14516000000000
H        -0.72411500000000    3.90892000000000    1.71881400000000
H        -1.63237300000000    5.83569400000000    2.94983600000000
H        -3.49179800000000    6.90080700000000    4.17850000000000
H        -5.62195700000000    5.67144100000000    4.51271100000000
H        -5.92612300000000    3.41296000000000    3.56739200000000
H        -5.02796100000000    1.50043900000000    2.25388800000000
H        -3.21736500000000    0.45440800000000    1.01886000000000
H        -3.64933300000000    0.07717600000000   -2.41380800000000
H        -5.14864200000000   -1.68942200000000   -3.28995100000000
H        -5.06425200000000   -1.13383400000000   -4.97886700000000
H        -4.60955300000000   -2.80365300000000   -4.54436400000000
H        -2.36720500000000   -2.48928500000000   -5.62783100000000
H         0.35486400000000   -1.16238700000000   -6.43058600000000
H         0.06566300000000   -2.84813800000000   -5.94550900000000
H         1.24520700000000   -1.88435000000000   -5.06644500000000
H         0.51122800000000   -0.07346000000000   -3.48439600000000
H        -0.10008900000000   -1.34027300000000   -1.04519200000000
H        -2.61001100000000   -2.59269900000000    1.64362600000000
H         2.78146800000000   -1.59692800000000   -0.68172100000000
H         4.53841900000000   -2.84588900000000   -2.21310100000000
H         3.95566000000000   -4.28718500000000   -3.06229700000000
H         3.13775700000000   -2.72508900000000   -3.31103100000000
H         2.43367800000000   -5.72488100000000   -1.89813600000000
H        -0.02492300000000   -6.57990000000000    0.83675400000000
H         0.34274200000000   -6.95788000000000   -0.85627800000000
H         1.57590200000000   -7.23222900000000    0.39106100000000
H         0.33152100000000   -4.31326000000000    1.60713600000000
84
 energy: -130.474963694707 gnorm: 0.053677904354 xtb: 6.3.3 (4ae9cef)
C         1.79730609540829    1.61361953162251    3.28423063474677
C         2.98994015428978    2.19902941356559    3.65055652902351
C         3.99158649284286    2.45659027331831    2.69831684871049
C         5.23108020708257    3.02168150814944    3.04950480214648
C         6.20400278247926    3.23912313941238    2.09921382098934
C         5.95955892126436    2.91742024441834    0.76170302700466
C         4.74890836115281    2.37619394425487    0.38677534557944
C         3.74511777709834    2.12030649449651    1.34068108244288
C         2.51578909233427    1.52437647011121    0.99585560639023
C         1.54771946887617    1.25675967092936    1.95159339651175
C         0.23416654094796    0.59286639600821    1.58028103734160
C        -0.61550116067074    1.45143304998511    0.60051547823312
C        -1.80711005526888    2.09616743675559    1.28965872744566
C        -1.66367791120597    3.36585637165191    1.82788052729763
C        -2.70836330666541    3.99926910665689    2.52844739529821
C        -2.57016797649249    5.29206092685854    3.07206013343379
C        -3.60597086867871    5.88148779499061    3.76146063073516
C        -4.81136399767391    5.19739045908618    3.94197086507239
C        -4.97814883338882    3.93518773004916    3.41662427290666
C        -3.94032198677696    3.31439505887973    2.69643330075767
C        -4.07701422835303    2.03325163545707    2.13366575675168
C        -3.03744801097643    1.44186112964569    1.44589136137194
N        -0.94439777394331    0.53681444787990   -0.49719199671934
C        -1.25785647025003    1.02218888634342   -1.73882955985030
C        -1.53740121649675    0.02520631772300   -2.80715042711252
C        -2.85364984075585   -0.36633148194867   -3.02484412087077
C        -3.15669953297261   -1.29091110392139   -4.01726011053204
C        -4.56853437151999   -1.75237132922938   -4.22113592611128
C        -2.12609303771667   -1.76959272343863   -4.82181552571975
C        -0.80937022336732   -1.34891534242080   -4.64853196879065
C         0.27226041405134   -1.83776553057419   -5.56790935169343
C        -0.51768359687180   -0.44798842072245   -3.62676620358229
O        -1.34625480791297    2.21400340441346   -1.97211403742562
C        -0.54842202482191   -0.82200588374371   -0.18588341364090
C        -1.80138819285079   -1.62236043959185    0.26574283317874
O        -1.72209076923506   -2.14533087427848    1.49843635650483
O        -2.79821366046449   -1.78411630660473   -0.39232052699510
N         0.44354389719434   -0.66680515167513    0.85831738248560
C         1.11302844784450   -1.72993454569305    1.42427798078619
C         1.46069288423361   -2.84223377918202    0.49401677786589
C         2.33433054892568   -2.60210233797562   -0.56135557019237
C         2.69890803829722   -3.63695330446103   -1.42072590477046
C         3.63301430711302   -3.36440393789449   -2.56366311882373
C         2.16103376272782   -4.90169585225071   -1.21123628098555
C         1.30608221320046   -5.16431717727566   -0.14038948755605
C         0.76957307678948   -6.55093275922323    0.06974964422614
C         0.97511903000713   -4.12690307659429    0.72519011892397
O         1.47878870268052   -1.75219290727572    2.58386288205293
H         1.05217920629633    1.41521254251181    4.04358277790443
H         3.16380286459846    2.44449208534572    4.68934156255144
H         5.42468744087021    3.27936989107469    4.08265047941436
H         7.15906826023338    3.66029373720178    2.38696699530209
H         6.72654648145932    3.09119372898188    0.01628797523710
H         4.56951064433708    2.14204933446089   -0.65385562332493
H         2.33748875434030    1.26244541299222   -0.03977240437054
H        -0.33727130829226    0.37817217808816    2.49525783585158
H        -0.01016270109433    2.25627573836494    0.16495245467691
H        -0.72413340875757    3.89244259753199    1.71182659148236
H        -1.63751448304965    5.82805803505052    2.94673126191750
H        -3.48656701895834    6.87892124834163    4.16876911157474
H        -5.61518524936747    5.66145898113355    4.49821967583567
H        -5.91741989058404    3.41702835293272    3.56252528056288
H        -5.01295238304386    1.50069414372075    2.24319802797267
H        -3.20163194989836    0.46279409544186    1.01609653144930
H        -3.63713986417577    0.05418813173944   -2.40954076453076
H        -5.13736710067979   -1.67889534479842   -3.29443722383177
H        -5.06089753841592   -1.13743888239054   -4.97480271814443
H        -4.59870103755907   -2.79109506949622   -4.55460602143315
H        -2.35653128350774   -2.48139240813801   -5.60763780547085
H         0.35786637014670   -1.16804773175655   -6.42317457478327
H         0.05286259442383   -2.83904069666689   -5.94280299359507
H         1.23795325899803   -1.87174249279081   -5.06280653844136
H         0.49628670645807   -0.09666309853632   -3.48110252063899
H        -0.12361271540102   -1.33941220441769   -1.05440797634704
H        -2.57434909804749   -2.59527697413373    1.65983999353595
H         2.75881593659442   -1.61271697763424   -0.69003202996132
H         4.52586227808290   -2.84353922574686   -2.21366478944642
H         3.94551974439396   -4.28583195146028   -3.05358778669957
H         3.14365602435746   -2.73121605120219   -3.30520622814456
H         2.42292765154897   -5.70890426824869   -1.88646616119259
H        -0.01046882653784   -6.56604435803685    0.83183022256599
H         0.35197753896408   -6.95080846042560   -0.85566234081327
H         1.57036806938933   -7.22074333201935    0.38935193652843
H         0.33611667036671   -4.30465728370310    1.58234376196333
84
 energy: -130.479866281814 gnorm: 0.014038542927 xtb: 6.3.3 (4ae9cef)
C         1.79465608210278    1.60509282817099    3.28248304559535
C         2.97527239492169    2.18580381191976    3.64755275567119
C         3.98278861063968    2.44565054937153    2.69795053939502
C         5.22510536181607    3.01601894062166    3.04645431812773
C         6.18507247430859    3.23473392725927    2.10007043586420
C         5.93884008757117    2.91015919132334    0.75841387888490
C         4.74192114831680    2.36613630808132    0.38562999488875
C         3.73423732444931    2.10493244644172    1.33915995736854
C         2.50211771074291    1.50712429447397    0.99883049468299
C         1.54539233465066    1.24631110759308    1.94615732975394
C         0.23027042627149    0.59427274917286    1.58024614017991
C        -0.61084597868947    1.45490216689292    0.60123997008221
C        -1.79700386405893    2.09803172964326    1.29018036303145
C        -1.65202596033045    3.35396512909814    1.82281899741235
C        -2.69603093392424    3.98940195484611    2.52496815605813
C        -2.56329343982862    5.28459776654843    3.07023906435535
C        -3.59346944843942    5.86674424251243    3.75336666570650
C        -4.80479505124940    5.18236049306190    3.93107703350386
C        -4.97087309127948    3.93050138014501    3.41091396778512
C        -3.93087895461446    3.30380681622917    2.69178816011173
C        -4.06091278787159    2.02105922550598    2.12311815007353
C        -3.02858276720219    1.43700760379127    1.44284367254084
N        -0.94550101014001    0.54300057691018   -0.49208272653589
C        -1.25865235529853    1.03215249221394   -1.72666810363817
C        -1.53507458937587    0.01696167586826   -2.79304157349856
C        -2.84633762963043   -0.37828110198293   -3.01114123856245
C        -3.14891928941207   -1.29124587237776   -4.01066480382209
C        -4.56071976021717   -1.74852863618806   -4.22084527201650
C        -2.12127075222317   -1.76784095813030   -4.81168105829967
C        -0.81096757631001   -1.34941234053257   -4.63992231823061
C         0.26997843732591   -1.83691426336173   -5.55886625442177
C        -0.52243464754413   -0.45785453856399   -3.61551731729933
O        -1.34528355445522    2.22375086743663   -1.92918777549885
C        -0.55161617850196   -0.81047276993736   -0.18347636662701
C        -1.78814027398833   -1.62016924219215    0.26169142548633
O        -1.69386926952328   -2.12652665606621    1.49201907615810
O        -2.76699601050138   -1.76689259048255   -0.41373904746367
N         0.44153748624781   -0.65816586976316    0.85132439152827
C         1.11399611499797   -1.70961681684432    1.42219528126407
C         1.43604138574728   -2.83024493877739    0.48134266585889
C         2.30912277039546   -2.59754545952957   -0.57176688087406
C         2.68361315425163   -3.63159258099317   -1.42110181601203
C         3.62562177579343   -3.36436983884483   -2.55737051917718
C         2.15382273549415   -4.89345866471356   -1.20626520094902
C         1.30062654583884   -5.15399927198191   -0.14075671515770
C         0.77309700087644   -6.54104403934083    0.07252573171102
C         0.95978978516930   -4.11455464365581    0.71161177629424
O         1.49571259441638   -1.69396064667072    2.57153430575728
H         1.04449300228276    1.40657968360685    4.03262547166324
H         3.15332619043745    2.44551640075683    4.68100707630437
H         5.41217671419557    3.27229994417305    4.07914596675396
H         7.13831249257714    3.65839362386292    2.38157665929559
H         6.70500324316140    3.09117483911932    0.01858685961763
H         4.55861745123251    2.12680609298468   -0.65181062638414
H         2.32653025064578    1.24761289476219   -0.03599180067267
H        -0.33917940592943    0.39631854121378    2.49978693704765
H         0.00090321776693    2.26105899946540    0.17603593197143
H        -0.71673169888596    3.88189997762920    1.70793117347476
H        -1.63216706585558    5.81482660615909    2.93921842459570
H        -3.47953652619788    6.85972765071547    4.16266714519891
H        -5.60705071764689    5.65162616080197    4.48260957679347
H        -5.90618690558976    3.40741966703181    3.54745285713734
H        -5.00015482721301    1.49804122762499    2.23073795611483
H        -3.17567275622384    0.46091416809792    1.00489330243890
H        -3.63008856528742    0.02705992122352   -2.39076293361131
H        -5.12736910425875   -1.67005090393615   -3.29698451549863
H        -5.05149952522282   -1.13201337493977   -4.97382011928603
H        -4.58641200356585   -2.78026944235643   -4.56358017562773
H        -2.34929330643389   -2.47524065523352   -5.59611420247727
H         0.35800542845853   -1.16742355805312   -6.41495704662514
H         0.04325759240994   -2.83163872790776   -5.93447799744644
H         1.23294859297378   -1.86151889097410   -5.05428456655256
H         0.49282196598543   -0.11716707690986   -3.46688463376814
H        -0.14417397845626   -1.32681759573143   -1.06591669998059
H        -2.52625046476924   -2.59377758810641    1.69376774879137
H         2.72261068180667   -1.60950104944322   -0.71161443226174
H         4.51312717108136   -2.84257044504388   -2.20523783776129
H         3.93247001488992   -4.28795103632528   -3.04044475891296
H         3.14397380240546   -2.73227133077274   -3.30303604895955
H         2.42186088115810   -5.70050869521903   -1.87315482575650
H        -0.00124202760946   -6.55203095470137    0.83389871213850
H         0.36077232811634   -6.93983658375797   -0.85262225990412
H         1.57485513357968   -7.20615963034528    0.39070628586589
H         0.32280215624509   -4.29231739367393    1.56339163923606
84
 energy: -130.481148186148 gnorm: 0.012265386048 xtb: 6.3.3 (4ae9cef)
C         1.78646967286893    1.59660622123438    3.28564266234360
C         2.96552643148462    2.17782928238829    3.64855980541245
C         3.97367688121924    2.43456014231822    2.69690126787370
C         5.21491685659173    3.00901442314188    3.04459684035311
C         6.17150735531447    3.23170980490664    2.09688703133517
C         5.92509451079770    2.90417874516654    0.75380312576852
C         4.73262987677562    2.35185555384557    0.38386822133538
C         3.72700743624553    2.08991857169508    1.33997567597577
C         2.49537386061429    1.49204571873766    0.99982912473070
C         1.53996270130535    1.23751937664998    1.94745977291075
C         0.22569868818156    0.59416264604846    1.57893727621141
C        -0.60387696225913    1.45794526028737    0.59783398662644
C        -1.78711352662996    2.09886676218824    1.28428208094514
C        -1.64102840120243    3.35098306213632    1.81973692638079
C        -2.68695381072313    3.98195947031539    2.52215728112636
C        -2.55447155267156    5.27671498968460    3.06892529269012
C        -3.58525111529321    5.85682757893325    3.75005502670691
C        -4.79893463388493    5.17113725463085    3.92261342079674
C        -4.96319427812307    3.92049784489564    3.40086831243029
C        -3.92020822886314    3.29460154649919    2.68456891521845
C        -4.04956275702363    2.01180876171535    2.11290331208111
C        -3.01725116199823    1.43102017423393    1.43341452242823
N        -0.94384444308215    0.54875618328734   -0.49223132469083
C        -1.26120480809549    1.04349895698491   -1.72251270340685
C        -1.53419008714623    0.02230814061196   -2.78578420020874
C        -2.84362652906787   -0.38189554668227   -2.99841455831106
C        -3.14478724510379   -1.29208452069009   -4.00098312735048
C        -4.55630794705666   -1.74462825341566   -4.21900912575613
C        -2.11776535759574   -1.76545738124885   -4.80431443321498
C        -0.80722983899192   -1.34852137936509   -4.62861442526604
C         0.27301509135287   -1.83507746792245   -5.54775122350467
C        -0.52037200952127   -0.45651637451806   -3.60414151807701
O        -1.35233791813698    2.23678374489973   -1.91123087588104
C        -0.55091542804848   -0.80329613034529   -0.18692536093276
C        -1.78489068256304   -1.61085683638355    0.26698234906593
O        -1.66884346603162   -2.11732213783208    1.49239897838276
O        -2.75372320276608   -1.77603798894938   -0.42000357199162
N         0.44031995204098   -0.65166292145593    0.84565947568228
C         1.11913891637547   -1.69427684793002    1.41936884383405
C         1.42357699834326   -2.81970110175057    0.47776898566248
C         2.28621764935217   -2.58537659227695   -0.58339229176945
C         2.66698460065271   -3.62165872847138   -1.42684018495030
C         3.61603171395529   -3.35999628997010   -2.55747313443685
C         2.14767071726404   -4.88649210336719   -1.20354826757885
C         1.29189908706608   -5.14411375291239   -0.13960017252614
C         0.77188949337826   -6.53246052166278    0.07844891924293
C         0.94682913517279   -4.10308899274715    0.70903775509327
O         1.52537396022121   -1.65362587795338    2.56037400365916
H         1.03076930205018    1.39850642950232    4.03024652711835
H         3.14750909137716    2.44436311182721    4.67976927234143
H         5.39702603393408    3.26570578426198    4.07826083775149
H         7.12280805296223    3.66262491924998    2.37313912546352
H         6.69009119844881    3.09281102842385    0.01509733094991
H         4.54509383057768    2.10608219036507   -0.65177874458742
H         2.32118979705790    1.23085151317662   -0.03534075820162
H        -0.34696621527263    0.39814458444397    2.49601329833875
H         0.01258220371477    2.26282785511173    0.17716198001906
H        -0.70612573765154    3.88084230880151    1.70743348890435
H        -1.62117037285517    5.80329245826102    2.93591870781551
H        -3.47541487427027    6.84899582449502    4.16162225177678
H        -5.60195047729099    5.64356027223898    4.46970393126861
H        -5.89742290602630    3.39277931114345    3.52928592785783
H        -4.99113595180589    1.49216472411724    2.21946909424374
H        -3.15256863881105    0.45596068946550    0.98967768418503
H        -3.62854269330530    0.01181169291778   -2.37198099411396
H        -5.12558124244178   -1.66754587419051   -3.29721689449013
H        -5.04087504793940   -1.12223762737380   -4.97166904604115
H        -4.58107489256159   -2.77377393745989   -4.56885649895400
H        -2.34510258057275   -2.47092869102390   -5.59090858534739
H         0.35916746454515   -1.16514308428341   -6.40415682939738
H         0.04382165291573   -2.82900640033333   -5.92294395471672
H         1.23573247691526   -1.85733281133907   -5.04350678288809
H         0.49670439669311   -0.12253114575110   -3.45184534863730
H        -0.15031448587230   -1.31637058119535   -1.07573586044089
H        -2.48155849347202   -2.60749598488603    1.72014581311081
H         2.69082259661176   -1.59489726304546   -0.73277565034136
H         4.50128571955461   -2.83865319485413   -2.19942920617584
H         3.92322913753066   -4.28764867709681   -3.03224148909616
H         3.14061522982119   -2.73016540938725   -3.30917452729632
H         2.42355437547251   -5.69692273634859   -1.86318638499146
H        -0.00034079899786   -6.54422142795930    0.84164113850819
H         0.36149558008079   -6.93378539512522   -0.84640174787123
H         1.57897539119963   -7.19151117869178    0.39590045645202
H         0.30474368298864   -4.28011574704461    1.55757074503284
84
 energy: -130.481931458794 gnorm: 0.008331001886 xtb: 6.3.3 (4ae9cef)
C         1.77502155312289    1.58941975248625    3.29130881067568
C         2.95603898673270    2.16927718229579    3.65187243301168
C         3.96300868377642    2.42062371768500    2.69642171113953
C         5.20136951561943    3.00151546405955    3.04204712215654
C         6.15476635453614    3.23026407609597    2.09095501956945
C         5.90930947990859    2.89692829413089    0.74813203726854
C         4.72085745184116    2.33165178432821    0.38240719369627
C         3.71943644790318    2.07055642856752    1.34253808144426
C         2.48884244582414    1.47342226752648    1.00271536672805
C         1.53212813112996    1.22882360094715    1.95276192300023
C         0.22013565287236    0.59297265857642    1.57691206451356
C        -0.59551206198248    1.46132683817310    0.59258686410037
C        -1.77573279648208    2.10209757922455    1.27471546931981
C        -1.62825992507526    3.35160458681171    1.81614585779289
C        -2.67729695780025    3.97521691335952    2.51861639706889
C        -2.54434338696509    5.26774926686209    3.06923403469479
C        -3.57847521556703    5.84574225443456    3.74790495646511
C        -4.79331251581369    5.15808093976722    3.91182582327036
C        -4.95464410882380    3.90753352462765    3.38617106120700
C        -3.90773015558658    3.28508719890880    2.67362726355893
C        -4.03742297881015    2.00309342183566    2.09891463400429
C        -3.00298229967163    1.42677295666014    1.41876025884019
N        -0.94175028455188    0.55461459733190   -0.49404129880032
C        -1.26666736231387    1.05643923776811   -1.71979635616937
C        -1.53491171528123    0.03275686527036   -2.77932479243001
C        -2.84248537473701   -0.38158915683086   -2.98583243399086
C        -3.14071660292300   -1.29184905860854   -3.98944096103510
C        -4.55172797159279   -1.74026117330366   -4.21580009869486
C        -2.11257853236416   -1.76183475596128   -4.79438118601773
C        -0.80094275947094   -1.34647004387530   -4.61278692603706
C         0.28011296528808   -1.83301394586816   -5.53029974094583
C        -0.51707175142773   -0.45015234908452   -3.59048614220570
O        -1.36488687720594    2.25105918635684   -1.89786015772593
C        -0.54888889088846   -0.79794011786676   -0.19284265029375
C        -1.77225936407888   -1.62465102144547    0.26550100092298
O        -1.63982648892132   -2.10478837044778    1.49710237470743
O        -2.74229291137130   -1.79891913960339   -0.41719383840357
N         0.43984916954997   -0.64555271021667    0.83908897097428
C         1.13274954845833   -1.67638692370646    1.41179900251587
C         1.41412691463294   -2.80817203372935    0.47409324165321
C         2.26360633910473   -2.57116268689268   -0.59745975370973
C         2.64768530886687   -3.61004040075550   -1.43592975155955
C         3.60130597195223   -3.35317621678644   -2.56292921365329
C         2.13867572007077   -4.87800875490068   -1.20157146951559
C         1.27937522384508   -5.13176143800382   -0.13859545107184
C         0.76787278290786   -6.52178788725783    0.08750977002078
C         0.93257296999138   -4.08885771823703    0.70758551502297
O         1.56452514984016   -1.61518945254905    2.54219062168431
H         1.01403779005243    1.39116528811510    4.03085739699408
H         3.14206691123046    2.44102482262032    4.68115883484740
H         5.38004653050654    3.25918073708574    4.07642979005927
H         7.10381351581327    3.66993741123306    2.36144136705020
H         6.67264415898365    3.09270562325679    0.00925749101059
H         4.52914324790919    2.07689280434264   -0.65090787229921
H         2.31472649869120    1.20698928045648   -0.03175446605972
H        -0.36018295641328    0.39360945148292    2.48778971152917
H         0.02785183053994    2.26229920369422    0.17489194910033
H        -0.69250764141643    3.88212338486445    1.70781759911638
H        -1.60777586261010    5.79057342666812    2.93796167954554
H        -3.47297128363714    6.83679226590369    4.16417644389768
H        -5.59798278203696    5.63161946446353    4.45498776389239
H        -5.88811791818787    3.37526975733917    3.50569138998495
H        -4.97979046789499    1.48383227829166    2.20478201497005
H        -3.12593582528626    0.45277289604065    0.96882465685106
H        -3.62895880702296    0.00262782600110   -2.35499869176018
H        -5.12623299968083   -1.66733642698271   -3.29673629027253
H        -5.02819686791871   -1.10982095017799   -4.96747672806512
H        -4.57757388879910   -2.76711532940565   -4.57336471928271
H        -2.33868500759849   -2.46463667475207   -5.58465595091005
H         0.36382674698793   -1.16356458642102   -6.38751979147665
H         0.05169125076938   -2.82809682880771   -5.90397121608865
H         1.24307361723793   -1.85346218879574   -5.02617600723371
H         0.50065919144435   -0.11816561485805   -3.43626510501482
H        -0.15205788000162   -1.30497253814405   -1.08597305768961
H        -2.43324397453759   -2.60879538623451    1.75772058974004
H         2.65669513888276   -1.57691271884143   -0.75837186608978
H         4.48538261917402   -2.83317286479408   -2.19864515923120
H         3.91015710103226   -4.28449940628383   -3.03002831635758
H         3.13319981648138   -2.72504981651616   -3.32073319383721
H         2.42447483537464   -5.69361445094725   -1.85148857620268
H        -0.00165353454683   -6.53572605989936    0.85416774016688
H         0.35702117095237   -6.92933106339182   -0.83476478186322
H         1.58196618194521   -7.17313299599552    0.40463297099647
H         0.28873406551028   -4.26507525877108    1.55636674121405
84
 energy: -130.482210731036 gnorm: 0.005415678053 xtb: 6.3.3 (4ae9cef)
C         1.76862581205353    1.58796622828779    3.29625635583996
C         2.95231712918476    2.16524039424671    3.65557401715701
C         3.95775756537586    2.41297682203874    2.69769064861040
C         5.19394956141760    2.99892046279312    3.04032206113104
C         6.14499419322666    3.23050476856085    2.08638576534247
C         5.90077510343901    2.89120576587920    0.74524937512779
C         4.71468308332058    2.31728518082678    0.38288307676275
C         3.71607440032572    2.05828821486488    1.34565640081433
C         2.48611991039582    1.46151106359048    1.00728816777998
C         1.52767670778719    1.22512196460635    1.95900219962443
C         0.21750651108957    0.59224429264795    1.57614030258129
C        -0.59000144049071    1.46357961272366    0.58886978034247
C        -1.76910018148335    2.10665551860254    1.26777736149713
C        -1.62115367566051    3.35477344610022    1.81385591568572
C        -2.67257003259920    3.97361104539034    2.51609097499149
C        -2.53995413063601    5.26341803666401    3.07211911076296
C        -3.57744653448568    5.83919304377380    3.74903182555260
C        -4.79217031406559    5.15040249123355    3.90518339935801
C        -4.95125794603042    3.90052308734366    3.37535495330297
C        -3.90173531690576    3.28155202961361    2.66484398376963
C        -4.03131973912640    2.00086992125635    2.08779454201517