72
 energy: -124.391250396149 gnorm: 0.138508268809 xtb: 6.3.3 (4ae9cef)
C         2.11250400000000    0.72058400000000   -1.91709600000000
C         2.91906000000000    1.47989500000000   -2.76873100000000
C         3.47806700000000    2.69258500000000   -2.33881200000000
C         4.28771500000000    3.46885200000000   -3.18508800000000
C         4.83170700000000    4.67512600000000   -2.74232900000000
C         4.57251700000000    5.12147000000000   -1.45005900000000
C         3.77056600000000    4.36082800000000   -0.59647400000000
C         3.21733000000000    3.14411600000000   -1.02625200000000
C         2.40833600000000    2.36827200000000   -0.17863400000000
C         1.85175600000000    1.15199800000000   -0.60893300000000
C         0.93775600000000    0.37826200000000    0.33324000000000
C        -0.54578100000000    0.60095100000000   -0.07203400000000
C        -1.31701800000000    1.52430900000000    0.85785000000000
C        -2.02902000000000    2.60846300000000    0.31265700000000
C        -2.74910400000000    3.50318600000000    1.12391300000000
C        -3.45157900000000    4.58859000000000    0.57485900000000
C        -4.16124400000000    5.46878300000000    1.39393100000000
C        -4.18008000000000    5.27458200000000    2.77175600000000
C        -3.48902200000000    4.19915100000000    3.33288500000000
C        -2.76896200000000    3.30608100000000    2.52123700000000
C        -2.07077400000000    2.21944300000000    3.06632200000000
C        -1.35546700000000    1.34174700000000    2.24539200000000
N        -1.12625700000000   -0.74007200000000   -0.16799800000000
C        -2.30084600000000   -0.94586600000000   -0.86874300000000
C        -2.83092300000000   -2.31667700000000   -0.95865500000000
C        -3.72363000000000   -2.83644400000000   -0.01376400000000
I        -4.42657800000000   -1.73818800000000    1.62408700000000
C        -4.18874500000000   -4.14813700000000   -0.16104600000000
C        -3.78046300000000   -4.92093600000000   -1.25194800000000
C        -2.91784500000000   -4.38695400000000   -2.20894900000000
C        -2.44664100000000   -3.08267800000000   -2.06890500000000
O        -2.92059900000000   -0.06246600000000   -1.45355900000000
C        -0.15436800000000   -1.76898900000000    0.17433200000000
C        -0.54051500000000   -2.42001300000000    1.52611200000000
O        -0.74605600000000   -3.75365600000000    1.42010700000000
O        -0.65037000000000   -1.87869900000000    2.61428000000000
N         1.12271700000000   -1.07513300000000    0.28528500000000
C         2.34230200000000   -1.66161600000000    0.57730200000000
C         2.47732300000000   -3.12299600000000    0.40027300000000
C         2.44070100000000   -3.61324900000000   -0.91500600000000
C         2.59009200000000   -4.97816700000000   -1.15831300000000
C         2.79036000000000   -5.85493600000000   -0.09316500000000
C         2.84759600000000   -5.36941700000000    1.21552300000000
C         2.70100000000000   -3.99976000000000    1.46925400000000
I         2.79598500000000   -3.38548400000000    3.47081100000000
O         3.33421400000000   -1.03547100000000    0.93259300000000
H         1.68978800000000   -0.20947200000000   -2.28732600000000
H         3.10814200000000    1.11668800000000   -3.77584200000000
H         4.49969000000000    3.13730500000000   -4.19868100000000
H         5.45836100000000    5.26534500000000   -3.40599400000000
H         4.99632600000000    6.06087600000000   -1.10454600000000
H         3.58007000000000    4.72461800000000    0.41096800000000
H         2.20896300000000    2.71759300000000    0.83369700000000
H         1.14852500000000    0.67668300000000    1.36768700000000
H        -0.59734500000000    1.02115100000000   -1.08680700000000
H        -2.03279700000000    2.75272600000000   -0.76797500000000
H        -3.45253600000000    4.75412400000000   -0.50081400000000
H        -4.70187600000000    6.30206000000000    0.95326100000000
H        -4.73377400000000    5.95764100000000    3.41000900000000
H        -3.51737000000000    4.06130000000000    4.41165200000000
H        -2.07906700000000    2.04363300000000    4.14040400000000
H        -0.83138200000000    0.51490500000000    2.71761300000000
H        -4.88037000000000   -4.58103500000000    0.55999200000000
H        -4.15134300000000   -5.93873200000000   -1.36317900000000
H        -2.62532100000000   -4.98579600000000   -3.06806600000000
H        -1.79225500000000   -2.65982400000000   -2.82847400000000
H        -0.09845700000000   -2.52757100000000   -0.61000600000000
H        -0.97529300000000   -4.02683000000000    2.33505300000000
H         2.31942200000000   -2.92976600000000   -1.75154900000000
H         2.57171100000000   -5.35733100000000   -2.17698300000000
H         2.91583900000000   -6.91928500000000   -0.28212100000000
H         3.01463500000000   -6.07227800000000    2.02852100000000
72
 energy: -124.408701773041 gnorm: 0.053705478349 xtb: 6.3.3 (4ae9cef)
C         2.11746448361504    0.72502018050018   -1.90975574177862
C         2.91052236160087    1.46915104157860   -2.75695744850304
C         3.47547152212060    2.68711485269705   -2.33872087082636
C         4.28710824810026    3.46932067641249   -3.18260603706860
C         4.82164219352276    4.65924627322041   -2.74038119815563
C         4.56187778794504    5.10663082096852   -1.44318459937580
C         3.77046218130275    4.36126257669703   -0.59643273252314
C         3.21201614713080    3.14014264061310   -1.01931216196267
C         2.40409188692294    2.35534473366893   -0.17418541302163
C         1.85992161237791    1.15606510152416   -0.59916052614453
C         0.93544916551598    0.38627658005842    0.32900296921679
C        -0.54485058982583    0.61173436864439   -0.07088721343537
C        -1.32195628173531    1.53314092011181    0.85301571051572
C        -2.02124328872604    2.59938556016758    0.31046409828772
C        -2.74619027163114    3.49747778735999    1.11678440638285
C        -3.45232835328061    4.58797574988075    0.57391033213558
C        -4.15108629336025    5.45271911842288    1.38780835863996
C        -4.16948193327920    5.25849535982935    2.77080079981533
C        -3.48924688470133    4.19928572432502    3.33010110616036
C        -2.76644535541664    3.30021547654862    2.52224481806071
C        -2.06275349775333    2.20675662471053    3.05687551103079
C        -1.35741160893074    1.34486165326316    2.24315876800279
N        -1.11785079425851   -0.73594650520843   -0.16322462090036
C        -2.28261263040660   -0.93869208047436   -0.85612909984856
C        -2.79814301444342   -2.33465775951986   -0.94079946043483
C        -3.70034179992313   -2.85971659621378   -0.01910549537619
I        -4.37607415663708   -1.70022274407966    1.61594305934511
C        -4.18346038401424   -4.15321195231218   -0.17560195050461
C        -3.78026771926404   -4.91811533900267   -1.25763480167045
C        -2.92274986564798   -4.38464709386449   -2.20715773684928
C        -2.43972774253100   -3.09494575198677   -2.05314365690452
O        -2.89044248667198   -0.04278375798962   -1.41071625293824
C        -0.15558368953817   -1.76680190696943    0.17741267876517
C        -0.52612056907628   -2.41678077041077    1.52492881086776
O        -0.74583829511944   -3.73996298810399    1.41883257683790
O        -0.62910166699487   -1.85594050914184    2.58075605896588
N         1.11524464029633   -1.06927642945612    0.27298881316209
C         2.31865502715403   -1.65061713697714    0.58420922954861
C         2.43340518466402   -3.12792396582177    0.39765187248895
C         2.42277354481897   -3.62140091081836   -0.90783231045770
C         2.59716434271911   -4.97405838872014   -1.15502198404391
C         2.79342470195860   -5.84832961685473   -0.09748134633072
C         2.84642145131299   -5.36670066969022    1.19964101486034
C         2.67868450103448   -4.00916672538372    1.44849350313702
I         2.77684926154794   -3.33590602961166    3.44596361934018
O         3.29479174268001   -1.00905295224180    0.92063369399301
H         1.69141377017913   -0.20273344169635   -2.27190946892768
H         3.09941327741024    1.11153493110964   -3.76106852475979
H         4.49576437101829    3.13477347648432   -4.19053477682205
H         5.44546057731269    5.24965179095447   -3.39965516930883
H         4.98484873814797    6.04311571576198   -1.10242190386072
H         3.57899678953195    4.71973739003386    0.40629931659718
H         2.20498512201649    2.70466737466089    0.83068483058524
H         1.12676113474469    0.70684623641420    1.36052615604984
H        -0.59085844122022    1.03992869126819   -1.08242003913494
H        -2.02311766010512    2.74558234408929   -0.76238070716709
H        -3.44969547487631    4.74993503014618   -0.49609736644342
H        -4.68934541086009    6.28548664697388    0.95311829333464
H        -4.72153840856861    5.94134337622218    3.40424991625227
H        -3.51395544529079    4.05812204392983    4.40292137052668
H        -2.07384126015738    2.03496644223327    4.12524051981764
H        -0.84156210648545    0.51188598316841    2.70231729373626
H        -4.87106462871668   -4.57270172414525    0.54749984760427
H        -4.14807354078019   -5.92963293868025   -1.36401329986422
H        -2.62817925354456   -4.97699387792620   -3.06271679851896
H        -1.79144587769726   -2.66590387679116   -2.80630939220957
H        -0.11624485230832   -2.55181117589128   -0.58930602615672
H        -0.97636310182634   -4.04312562432056    2.31932167961718
H         2.30355286422613   -2.93471750464684   -1.73545014403494
H         2.57344386877793   -5.34877361377348   -2.16929757450139
H         2.91449193849181   -6.90733784414517   -0.28122502962617
H         3.01402319540569   -6.05661309178350    2.01643984670938
72
 energy: -124.413727980713 gnorm: 0.013479819064 xtb: 6.3.3 (4ae9cef)
C         2.11469841979804    0.72106399109734   -1.89869450030042
C         2.90075460343377    1.45378007933829   -2.74228819056622
C         3.47035319829989    2.67630351826913   -2.33191264066949
C         4.28192789625756    3.46197611234149   -3.17696313144380
C         4.81072644536334    4.64260887438233   -2.73779382567674
C         4.55085268659494    5.09285140766518   -1.43539750863367
C         3.76812305803158    4.35640916171045   -0.59213416000051
C         3.20774210202513    3.13087449906307   -1.01002154190251
C         2.39914589925494    2.34391454462362   -0.16442364646868
C         1.85894020840516    1.15787517268171   -0.58564650307185
C         0.92913027351618    0.39215077624505    0.33119859049778
C        -0.54300993912170    0.61836505595836   -0.07698215795760
C        -1.32351219502639    1.53473992207762    0.84279651400332
C        -2.01156810629805    2.59124593233424    0.30421818527484
C        -2.74052923052457    3.48871544338892    1.11007642908677
C        -3.44932054749122    4.58288531039194    0.57048876529189
C        -4.14091478728834    5.43780331857840    1.38086536375876
C        -4.15851117891550    5.24161356057598    2.76943699408780
C        -3.48465900364328    4.19156063497303    3.32557162613369
C        -2.76053663299173    3.28920881230772    2.51815444762331
C        -2.05510169273669    2.18848370222737    3.04540289361706
C        -1.35889662680497    1.33497483051957    2.23617639097765
N        -1.11165477722696   -0.73146121209229   -0.16365961682472
C        -2.27096410976745   -0.92501601273302   -0.84814091121133
C        -2.76827655242690   -2.34011361672616   -0.93575243700871
C        -3.67050607713425   -2.86575278366915   -0.02347631086942
I        -4.30679402515325   -1.69470522532320    1.61817388915492
C        -4.16564940238705   -4.14944679749135   -0.17227453822796
C        -3.77348782166557   -4.91307824006170   -1.25502248385801
C        -2.91207902503239   -4.38588614504108   -2.20115392661590
C        -2.41975333383404   -3.10385890161980   -2.04356121157725
O        -2.87470005123703   -0.01502930329723   -1.37056322420816
C        -0.15738707679031   -1.76129717158757    0.17598012930887
C        -0.51903016987950   -2.40261773530606    1.52826019296883
O        -0.74103082380000   -3.71853830861713    1.41517176493893
O        -0.59499109602894   -1.82078138227295    2.56764387057676
N         1.10751198065236   -1.06088148984761    0.25632060041761
C         2.30277464535500   -1.63122587674515    0.57575825081272
C         2.39914701201534   -3.11975380605546    0.38722787124177
C         2.39632649045103   -3.62016331900738   -0.91074478464508
C         2.58399246128508   -4.96753933484919   -1.15502403041502
C         2.78644610237074   -5.83701619965765   -0.09751981390393
C         2.83003677291039   -5.35250670012991    1.19531575068251
C         2.65147314147119   -3.99959140844602    1.43081571260435
I         2.73704668249125   -3.30544397417981    3.42278525153520
O         3.26465775235251   -0.97723553676209    0.90815800459013
H         1.68501192900326   -0.20787294136050   -2.24832084877226
H         3.09117190860804    1.10344515696213   -3.74661475675471
H         4.48412879916288    3.11935887094638   -4.18137147990399
H         5.43301945415010    5.23484383092484   -3.39301300882153
H         4.97554167882597    6.02809228254713   -1.10099866154832
H         3.57164083989338    4.70808970463527    0.40938069394982
H         2.20456618856715    2.69755408180387    0.83679124772987
H         1.10553848453169    0.72227662419185    1.36244623368078
H        -0.58731019238946    1.05096072619485   -1.08665408007661
H        -2.01316996589067    2.74463993795882   -0.76426531889382
H        -3.44093991883696    4.73788193192829   -0.49795091444610
H        -4.67947770215983    6.27143148367120    0.95369406457525
H        -4.71020772368226    5.92588584884857    3.39801558986001
H        -3.50248799531389    4.04238982522544    4.39517187128626
H        -2.07150295806920    2.02240657303422    4.11203178111175
H        -0.84651927487286    0.49486504634102    2.67968058301352
H        -4.86553115033693   -4.54826027013848    0.54636342398698
H        -4.15595270823521   -5.91551630089940   -1.36551700212421
H        -2.63034034532594   -4.97020439671423   -3.06295379424182
H        -1.76930235190255   -2.67451026483499   -2.79077028196570
H        -0.13379578700289   -2.56345424387453   -0.57998589461244
H        -0.96936206747618   -4.06369933687936    2.29890588240385
H         2.26904600681689   -2.93326917488026   -1.73405901647726
H         2.57799924884017   -5.33870633872743   -2.16787037081757
H         2.92403278093527   -6.89195876680776   -0.27686137748892
H         3.01526227303066   -6.02713606932882    2.01788104221853
72
 energy: -124.415207337095 gnorm: 0.011907222611 xtb: 6.3.3 (4ae9cef)
C         2.10973299405285    0.71214990209057   -1.88600301335313
C         2.89466601193118    1.44116483650131   -2.73065408748896
C         3.46516992100413    2.66527319008030   -2.32193041192811
C         4.27512249878930    3.44956552781503   -3.17046677043815
C         4.80367475970328    4.63044026714410   -2.73467430131525
C         4.54561154289394    5.08406137122710   -1.43066549072392
C         3.76556720821220    4.34948889178124   -0.58540363775955
C         3.20574089920070    3.12254953173501   -1.00160217488415
C         2.39755004479489    2.33934129060437   -0.15249085453776
C         1.85623863104218    1.15597086156566   -0.57318985305464
C         0.92206409085285    0.39334273925366    0.33453395613831
C        -0.54241573074288    0.61985374220930   -0.08567773876439
C        -1.32336514666175    1.53175073104717    0.83180660534920
C        -2.00586451218582    2.58994971844405    0.29545879836951
C        -2.73571884413395    3.48282440313666    1.10515198602196
C        -3.44444211119326    4.57791931648890    0.56631281824480
C        -4.13545093614976    5.42980661588418    1.37806049953526
C        -4.15143538060876    5.23001117074627    2.76841979976931
C        -3.47833258239899    4.17914569707261    3.32169445886022
C        -2.75571805372116    3.27784309654224    2.51116162534331
C        -2.05356111955377    2.17234071915822    3.03611276944350
C        -1.36056152549240    1.32061692290608    2.22537458246383
N        -1.10967033202406   -0.72873663183769   -0.16970110801296
C        -2.27003620251396   -0.91592972005965   -0.84777615061679
C        -2.75209593815198   -2.33805869389285   -0.93921473138184
C        -3.64423353641559   -2.86303959620793   -0.01823212858350
I        -4.23921195933829   -1.67956101780047    1.63900714264276
C        -4.15262381300777   -4.14197192819277   -0.16805963296351
C        -3.77109262287790   -4.90581128090556   -1.25609604683835
C        -2.90136582272587   -4.38585716973816   -2.19959001621853
C        -2.40163151866973   -3.10639957420967   -2.04300678450772
O        -2.88329223206189    0.00143622766395   -1.34606435012692
C        -0.15885872275837   -1.75717179181533    0.17124190458531
C        -0.50547607673309   -2.39188124705657    1.53329006915604
O        -0.74215505916354   -3.70189940762942    1.41515631641079
O        -0.55869848750671   -1.79800967574867    2.56864043550712
N         1.10206781069678   -1.05561104519724    0.24468937588341
C         2.29685173475806   -1.61805699031872    0.56707241607437
C         2.38348085675132   -3.10818869634513    0.37753492074747
C         2.37343321832019   -3.61276586310816   -0.91865605529343
C         2.57095220469219   -4.95946316483684   -1.15913433249641
C         2.78437850261838   -5.82440275105727   -0.09919512261204
C         2.81888187917063   -5.33656704382674    1.19391600080760
C         2.63027595785348   -3.98390869370147    1.42407516160345
I         2.69416706204027   -3.26122698362782    3.41176546750804
O         3.25532336957534   -0.95896347330160    0.89794431180285
H         1.67506172563926   -0.21804024833330   -2.22595210679060
H         3.08684869478536    1.09275919286189   -3.73553439037408
H         4.47167641013719    3.09996924042861   -4.17397400916998
H         5.42399276619344    5.22440166449697   -3.38960662132339
H         4.97089387590824    6.02079703138671   -1.10208848697142
H         3.56566308957521    4.69745369705387    0.41713419100184
H         2.20639112691037    2.69682960619730    0.84852776455836
H         1.08905958065440    0.71987164178619    1.36816903084074
H        -0.58358342069496    1.05250330017253   -1.09537418337583
H        -2.00469488156499    2.75153457811017   -0.77219556375875
H        -3.43228058668127    4.72870451589778   -0.50308419924718
H        -4.67548998918724    6.26497952808530    0.95651321789882
H        -4.70312810906157    5.91493449725449    3.39563381509614
H        -3.49133279702741    4.02241808225303    4.39065081914935
H        -2.07477659184803    2.00627116775075    4.10304395024113
H        -0.85211157091822    0.47263245331259    2.65760796359328
H        -4.85017056497303   -4.53478331454455    0.55522699104399
H        -4.16302382008714   -5.90466109620894   -1.36876228331381
H        -2.62245505283401   -4.97072513338055   -3.06170454292631
H        -1.74336934550569   -2.68176388387234   -2.78646723308035
H        -0.14171374275568   -2.56488894000317   -0.57949891289848
H        -0.96509082137644   -4.07139598000607    2.28958592968397
H         2.23414386059541   -2.92803134414179   -1.74231998060632
H         2.56877675593481   -5.33185213957666   -2.17141905267816
H         2.93257848117859   -6.87853056529831   -0.27585662769914
H         3.00449499484046   -6.00475388236477    2.02080989273743
72
 energy: -124.416026219184 gnorm: 0.007742778492 xtb: 6.3.3 (4ae9cef)
C         2.10430661820268    0.70401809295254   -1.87068379186454
C         2.89095784926611    1.42833447770602   -2.71770608931557
C         3.46146712864395    2.65293881210693   -2.30935429853078
C         4.26849242596643    3.43410401210957   -3.16280271059409
C         4.79723492813329    4.61760120591312   -2.73159654974868
C         4.54253209289380    5.07563773405842   -1.42767867589158
C         3.76522341377889    4.34212141481167   -0.57775489786387
C         3.20630986600905    3.11446963945598   -0.99175916118347
C         2.39816270531478    2.33770854269525   -0.13798175997039
C         1.85383828297062    1.15590940483274   -0.55958938140757
C         0.91478968632257    0.39488284929264    0.33770339760982
C        -0.54237280879272    0.62181566155036   -0.09578395115041
C        -1.32543285832817    1.52922937580437    0.81820362853438
C        -2.00117488489380    2.59327894489615    0.28429907559700
C        -2.73160550532460    3.47933427827916    1.09966368795280
C        -3.43913701481610    4.57546574667061    0.56254975140782
C        -4.13097771270331    5.42416053106733    1.37812640852693
C        -4.14515796269189    5.21837851032616    2.76840409221750
C        -3.47281018320931    4.16368909426962    3.31765820534122
C        -2.75301129619677    3.26529415540403    2.50216625278456
C        -2.05820847873484    2.15377615850757    3.02491418642796
C        -1.36804935077942    1.30365291999620    2.20988441774735
N        -1.10841157587360   -0.72484718072992   -0.18032964511066
C        -2.27241676360198   -0.90736369964201   -0.85090269977186
C        -2.73914928571130   -2.33228421800950   -0.94835168169946
C        -3.61809588504598   -2.85490447421338   -0.01353554952011
I        -4.16975571305446   -1.68660530258993    1.66520573826814
C        -4.13345074763641   -4.13158567798081   -0.15751702753751
C        -3.76483303605281   -4.89575276513970   -1.25152192055770
C        -2.88922622621989   -4.38528356556567   -2.19583724203339
C        -2.38325611185361   -3.10701755253120   -2.04593000933034
O        -2.89731778160213    0.01268722005013   -1.32901637859054
C        -0.16039914777568   -1.75152231819148    0.16482326746754
C        -0.49583128963542   -2.38049521280388    1.53607619629828
O        -0.74719298762230   -3.68453376875001    1.41617834554726
O        -0.50941799616321   -1.78188089616837    2.57144296989871
N         1.09774411183386   -1.04919911811958    0.23152908172669
C         2.29487408898886   -1.60422866680607    0.55257554302015
C         2.37467127444713   -3.09225567129439    0.36319157456169
C         2.35145570423105   -3.60227595127552   -0.93102279100172
C         2.55339505018210   -4.94992220181759   -1.16295676826140
C         2.77723374044696   -5.80690870756303   -0.09756394195965
C         2.80378751634589   -5.31424316223559    1.19529021948169
C         2.61266837943463   -3.96061127734785    1.41712790902189
I         2.65077454361584   -3.23895196029663    3.40201670312832
O         3.25219019347422   -0.94279172015752    0.88280336051177
H         1.66418324314444   -0.22757130344657   -2.20015284999488
H         3.08445039294741    1.07873227985944   -3.72229535943123
H         4.45951554594467    3.07786097380485   -4.16556144732038
H         5.41513711694685    5.21222733904625   -3.38814490026848
H         4.96843080503255    6.01444970098916   -1.10556197740647
H         3.56361847248669    4.68807510425323    0.42575529309178
H         2.20914833230594    2.69762616361212    0.86324447557468
H         1.07165725469992    0.71154493739939    1.37572241719786
H        -0.57708814449712    1.05271734728188   -1.10640314559932
H        -1.99413940529821    2.76370735703523   -0.78266135014920
H        -3.42364940296166    4.72478713533340   -0.50759938933614
H        -4.67291674372620    6.26121865108794    0.96269907985352
H        -4.69626141130238    5.90293436384175    3.39638663676795
H        -3.48246410375328    3.99875210873860    4.38596071188883
H        -2.08468804862836    1.98313343339831    4.09162530751706
H        -0.86455538012142    0.44728739782206    2.63103430821561
H        -4.82704204983903   -4.52003108446872    0.57198145100722
H        -4.17088369389366   -5.88931597325906   -1.36768719523966
H        -2.61072802665203   -4.97563359241228   -3.05484510286046
H        -1.71816465437504   -2.68981369608142   -2.78850120399254
H        -0.14769464819707   -2.56348914017431   -0.57986949246044
H        -0.95545454585701   -4.07449164280321    2.28419315665001
H         2.19889518721725   -2.92272045050751   -1.75747655314389
H         2.54816248949732   -5.32812821402184   -2.17344400778477
H         2.93957399607087   -6.86016858914001   -0.27013576625384
H         2.98754342662544   -5.97671632071575    2.02708181329234
72
 energy: -124.416268999603 gnorm: 0.004282402969 xtb: 6.3.3 (4ae9cef)
C         2.10293353108379    0.70225274660746   -1.86155442887737
C         2.89219617443411    1.42273935502412   -2.71013843834454
C         3.46252782122719    2.64700094038371   -2.30194120562252
C         4.26762371118248    3.42571050357902   -3.15855016907422
C         4.79632888119224    4.61136876581085   -2.73073045114606
C         4.54433035570662    5.07221707134296   -1.42794865081832
C         3.76879330564144    4.33949608980430   -0.57423770194857
C         3.20961144820964    3.11173514810276   -0.98587302564793
C         2.40043622773946    2.33932924905754   -0.12963993969078
C         1.85356463780364    1.15839557444384   -0.55221314449529
C         0.91153403147471    0.39650516162638    0.33947503339895
C        -0.54302451702426    0.62356391177908   -0.10207883347013
C        -1.32895488956724    1.52932718927888    0.80941333943626
C        -1.99963123938576    2.59872467568018    0.27758297929496
C        -2.73099918250769    3.48028798933189    1.09647696022554
C        -3.43668787876802    4.57852506593661    0.56234411979525
C        -4.12961232760081    5.42443527039083    1.38144627311182
C        -4.14399012001701    5.21305905420093    2.77029720207470
C        -3.47355771795401    4.15427550151305    3.31604814789428
C        -2.75571691539450    3.25837922543682    2.49688209001438
C        -2.06790775321131    2.14203115443486    3.01737996268865
C        -1.37840999754271    1.29396997362146    2.19862274902335
N        -1.10791799492820   -0.72272733497226   -0.18859996493805
C        -2.27543557164067   -0.90609371388102   -0.85380262247629
C        -2.73530781979407   -2.33041869416139   -0.95303091491414
C        -3.60420761829050   -2.85354181942442   -0.00786574186858
I        -4.13017140408877   -1.68635600227911    1.67946703222557
C        -4.12143735881303   -4.12991104125671   -0.14984540955394
C        -3.75979336802793   -4.89306085497457   -1.24697433203334
C        -2.88402678809320   -4.38640273918945   -2.19304829825302
C        -2.37873590003420   -3.10684284477509   -2.04904772458017
O        -2.90825201365539    0.01182800569537   -1.32465076134373
C        -0.16003274705287   -1.74811231311615    0.16066066374908
C        -0.48635804169578   -2.37561028467122    1.53670601095376
O        -0.75654743794092   -3.67510316681835    1.41667238691933
O        -0.47712868377877   -1.77906559974150    2.57302247849928
N         1.09718746904029   -1.04546021113417    0.22576503919278
C         2.29635891639945   -1.59918338878893    0.54424748615046
C         2.37415162247522   -3.08482088958528    0.35558240736284
C         2.34319345362396   -3.59715986679355   -0.93782282133225
C         2.54110573935690   -4.94622714703450   -1.16543543197437
C         2.76963382529638   -5.79907963193127   -0.09769210394930
C         2.79523119121759   -5.30459854673343    1.19438400184929
C         2.60540731798535   -3.94996983211295    1.41424123948968
I         2.63779254530955   -3.21432110163103    3.39545233865080
O         3.25479431462238   -0.93880759032996    0.87404894288767
H         1.65952650019893   -0.22927684745791   -2.18667403396665
H         3.08584583819139    1.07002270135211   -3.71365579939659
H         4.45657534339666    3.06690500568190   -4.16081294117485
H         5.41218348838900    5.20529375711010   -3.39004977366265
H         4.97019873187375    6.01235175335421   -1.10923046721464
H         3.56845022358994    4.68651906080171    0.42928088644084
H         2.21138754373475    2.69899702238604    0.87174379841944
H         1.06240264340873    0.70558038038915    1.38072872865790
H        -0.57207326220265    1.05293860499196   -1.11365146486496
H        -1.98629936444203    2.77446373659733   -0.78864571018830
H        -3.41963075527098    4.73120545062877   -0.50741860494826
H        -4.67196487497200    6.26302497727581    0.96934970562026
H        -4.69414189688026    5.89622059693963    3.40084422950426
H        -3.48376482781816    3.98468474593355    4.38367858857442
H        -2.09840839764973    1.96437718756251    4.08297763539843
H        -0.87943945711465    0.43271521292909    2.61505069907714
H        -4.80734648861193   -4.52025456201742    0.58603595443207
H        -4.16937103666343   -5.88507024669946   -1.36283032848705
H        -2.60392268664966   -4.98135614742953   -3.04881058965055
H        -1.71359721278122   -2.69280447121501   -2.79367745059663
H        -0.14690933618243   -2.56168149243665   -0.58076886076162
H        -0.95491053726535   -4.06945950209349    2.28384971430913
H         2.18668324974181   -2.92053103762369   -1.76603684695145
H         2.52891302520773   -5.32889820318779   -2.17451989293449
H         2.93468471231048   -6.85208573603968   -0.26819382260069
H         2.97404060024631   -5.96616695548011    2.02794187842878
72
 energy: -124.416455424001 gnorm: 0.004255274741 xtb: 6.3.3 (4ae9cef)
C         2.10362662208092    0.70373112504669   -1.85382976019032
C         2.89601508501329    1.41967806298644   -2.70338478162800
C         3.46688487450085    2.64336739696557   -2.29586185379545
C         4.27067716566601    3.41963611194810   -3.15522690835815
C         4.79914889628410    4.60699943811095   -2.73096041388609
C         4.54993011408578    5.07035333001007   -1.42942494631733
C         3.77608848317366    4.33907580168336   -0.57219852295209
C         3.21539315754740    3.11136601975734   -0.98070673066786