      -----------------------------------------------------------      
     |                   =====================                   |     
     |                           x T B                           |     
     |                   =====================                   |     
     |                         S. Grimme                         |     
     |          Mulliken Center for Theoretical Chemistry        |     
     |                    University of Bonn                     |     
      -----------------------------------------------------------      

   * xtb version 6.3.3 (4ae9cef) compiled by 'conda@95abc7406d43' on 2020-10-14

   xtb is free software: you can redistribute it and/or modify it under
   the terms of the GNU Lesser General Public License as published by
   the Free Software Foundation, either version 3 of the License, or
   (at your option) any later version.
   
   xtb is distributed in the hope that it will be useful,
   but WITHOUT ANY WARRANTY; without even the implied warranty of
   MERCHANTABILITY or FITNESS FOR A PARTICULAR PURPOSE.  See the
   GNU Lesser General Public License for more details.
   
   Cite this work as:
   * C. Bannwarth, E. Caldeweyher, S. Ehlert, A. Hansen, P. Pracht,
     J. Seibert, S. Spicher, S. Grimme, WIREs Comput. Mol. Sci., 2020,
     e01493. DOI: 10.1002/wcms.1493
   
   for GFN2-xTB:
   * S. Grimme, C. Bannwarth, P. Shushkov, J. Chem. Theory Comput., 2017,
     13, 1989-2009. DOI: 10.1021/acs.jctc.7b00118
   for GFN1-xTB:
   * C. Bannwarth, S. Ehlert and S. Grimme., J. Chem. Theory Comput., 2019,
     15, 1652-1671. DOI: 10.1021/acs.jctc.8b01176
   for GFN0-xTB:
   * P. Pracht, E. Caldeweyher, S. Ehlert, S. Grimme, ChemRxiv, 2019, preprint.
     DOI: 10.26434/chemrxiv.8326202.v1
   for GFN-FF:
   * S. Spicher and S. Grimme, Angew. Chem. Int. Ed., 2020, 59, 15665-15673.
     DOI: 10.1002/anie.202004239
   
   for DFT-D4:
   * E. Caldeweyher, C. Bannwarth and S. Grimme, J. Chem. Phys., 2017,
     147, 034112. DOI: 10.1063/1.4993215
   * E. Caldeweyher, S. Ehlert, A. Hansen, H. Neugebauer, S. Spicher,
     C. Bannwarth and S. Grimme, J. Chem. Phys., 2019, 150, 154122.
     DOI: 10.1063/1.5090222
   * E. Caldeweyher, J.-M. Mewes, S. Ehlert and S. Grimme, Phys. Chem. Chem. Phys.
     2020, 22, 8499-8512. DOI: 10.1039/D0CP00502A
   
   for sTDA-xTB:
   * S. Grimme and C. Bannwarth, J. Chem. Phys., 2016, 145, 054103.
     DOI: 10.1063/1.4959605
   
   in the mass-spec context:
   * V. Asgeirsson, C. Bauer and S. Grimme, Chem. Sci., 2017, 8, 4879.
     DOI: 10.1039/c7sc00601b
   * J. Koopman and S. Grimme, ACS Omega 2019, 4, 12, 15120-15133.
     DOI: 10.1021/acsomega.9b02011
   
   for metadynamics refer to:
   * S. Grimme, J. Chem. Theory Comput., 2019, 155, 2847-2862
     DOI: 10.1021/acs.jctc.9b00143
   
   with help from (in alphabetical order)
   C. Bannwarth, F. Bohle, G. Brandenburg, E. Caldeweyher, M. Checinski,
   S. Dohm, S. Ehlert, S. Ehrlich, F. März, H. Neugebauer, J. Pisarek,
   P. Pracht, P. Shushkov, and S. Spicher.
   
 * started run on 2022/03/17 at 02:19:32.319     

           -------------------------------------------------
          |                Calculation Setup                |
           -------------------------------------------------

          program call               : xtb alk_4.xyz --opt --chrg 0 --uhf 0 --gfn 2
          coordinate file            : alk_4.xyz
          omp threads                :                    64
          number of atoms            :                    19
          number of electrons        :                    52
          charge                     :                     0
          spin                       :                   0.0
          first test random number   :      0.67365014768106

   ID    Z sym.   atoms
    1    6 C      1-9
    2   35 Br     10
    3    1 H      11-19

           -------------------------------------------------
          |                 G F N 2 - x T B                 |
           -------------------------------------------------

        Reference                      10.1021/acs.jctc.8b01176
      * Hamiltonian:
        H0-scaling (s, p, d)           1.850000    2.230000    2.230000
        zeta-weighting                 0.500000
      * Dispersion:
        s8                             2.700000
        a1                             0.520000
        a2                             5.000000
        s9                             5.000000
      * Repulsion:
        kExp                           1.500000    1.000000
        rExp                           1.000000
      * Coulomb:
        alpha                          2.000000
        third order                    shell-resolved
        anisotropic                    true
        a3                             3.000000
        a5                             4.000000
        cn-shift                       1.200000
        cn-exp                         4.000000
        max-rad                        5.000000


          ...................................................
          :                      SETUP                      :
          :.................................................:
          :  # basis functions                  55          :
          :  # atomic orbitals                  54          :
          :  # shells                           30          :
          :  # electrons                        52          :
          :  max. iterations                   250          :
          :  Hamiltonian                  GFN2-xTB          :
          :  restarted?                      false          :
          :  GBSA solvation                  false          :
          :  PC potential                    false          :
          :  electronic temp.          300.0000000     K    :
          :  accuracy                    1.0000000          :
          :  -> integral cutoff          0.2500000E+02      :
          :  -> integral neglect         0.1000000E-07      :
          :  -> SCF convergence          0.1000000E-05 Eh   :
          :  -> wf. convergence          0.1000000E-03 e    :
          :  Broyden damping             0.4000000          :
          ...................................................

 iter      E             dE          RMSdq      gap      omega  full diag
   1    -28.2927889 -0.282928E+02  0.445E+00    4.35       0.0  T
   2    -28.3187358 -0.259469E-01  0.278E+00    3.98       1.0  T
   3    -28.3042269  0.145089E-01  0.124E+00    3.96       1.0  T
   4    -28.3230754 -0.188485E-01  0.503E-01    4.02       1.0  T
   5    -28.3241044 -0.102905E-02  0.295E-01    4.01       1.0  T
   6    -28.3242808 -0.176353E-03  0.195E-01    4.02       1.0  T
   7    -28.3245040 -0.223190E-03  0.129E-01    4.01       1.0  T
   8    -28.3245449 -0.409420E-04  0.781E-02    4.02       1.0  T
   9    -28.3245793 -0.343856E-04  0.268E-02    4.02       1.0  T
  10    -28.3245825 -0.319635E-05  0.102E-02    4.03       2.2  T
  11    -28.3245826 -0.109205E-06  0.444E-03    4.02       5.2  T
  12    -28.3245828 -0.205114E-06  0.214E-03    4.02      10.7  T
  13    -28.3245828 -0.155858E-07  0.132E-03    4.02      17.4  T
  14    -28.3245828 -0.441156E-08  0.701E-04    4.02      32.7  T
  15    -28.3245828 -0.596607E-09  0.168E-04    4.02     136.4  T

   *** convergence criteria satisfied after 15 iterations ***

         #    Occupation            Energy/Eh            Energy/eV
      -------------------------------------------------------------
         1        2.0000           -0.8332803             -22.6747
       ...           ...                  ...                  ...
        20        2.0000           -0.4429778             -12.0540
        21        2.0000           -0.4401397             -11.9768
        22        2.0000           -0.4331385             -11.7863
        23        2.0000           -0.4141976             -11.2709
        24        2.0000           -0.4065681             -11.0633
        25        2.0000           -0.4020891             -10.9414
        26        2.0000           -0.3948851             -10.7454 (HOMO)
        27                         -0.2469727              -6.7205 (LUMO)
        28                         -0.2444864              -6.6528
        29                         -0.2102638              -5.7216
        30                         -0.1997244              -5.4348
        31                         -0.1246217              -3.3911
       ...                                ...                  ...
        54                          0.6092628              16.5789
      -------------------------------------------------------------
                  HL-Gap            0.1479123 Eh            4.0249 eV
             Fermi-level           -0.3209289 Eh           -8.7329 eV

 SCC (total)                   0 d,  0 h,  0 min,  0.252 sec
 SCC setup                      ...        0 min,  0.013 sec (  5.153%)
 Dispersion                     ...        0 min,  0.016 sec (  6.383%)
 classical contributions        ...        0 min,  0.019 sec (  7.478%)
 integral evaluation            ...        0 min,  0.036 sec ( 14.313%)
 iterations                     ...        0 min,  0.020 sec (  7.851%)
 molecular gradient             ...        0 min,  0.148 sec ( 58.742%)
 printout                       ...        0 min,  0.000 sec (  0.053%)

         :::::::::::::::::::::::::::::::::::::::::::::::::::::
         ::                     SUMMARY                     ::
         :::::::::::::::::::::::::::::::::::::::::::::::::::::
         :: total energy             -27.898854440647 Eh    ::
         :: gradient norm              0.043359653943 Eh/a0 ::
         :: HOMO-LUMO gap              4.024899695392 eV    ::
         ::.................................................::
         :: SCC energy               -28.324582849759 Eh    ::
         :: -> isotropic ES            0.006255799632 Eh    ::
         :: -> anisotropic ES          0.002466486683 Eh    ::
         :: -> anisotropic XC          0.016439197680 Eh    ::
         :: -> dispersion             -0.018397502902 Eh    ::
         :: repulsion energy           0.425607660406 Eh    ::
         :: add. restraining           0.000000000000 Eh    ::
         :: total charge               0.000000000000 e     ::
         :::::::::::::::::::::::::::::::::::::::::::::::::::::

      ----------------------------------------------------------- 
     |                   =====================                   |
     |                        A N C O P T                        |
     |                   =====================                   |
     |               Approximate Normal Coordinate               |
     |                Rational Function Optimizer                |
      ----------------------------------------------------------- 

          ...................................................
          :                      SETUP                      :
          :.................................................:
          :   optimization level            normal          :
          :   max. optcycles                   200          :
          :   ANC micro-cycles                  20          :
          :   degrees of freedom                51          :
          :.................................................:
          :   RF solver                   davidson          :
          :   write xtbopt.log                true          :
          :   linear?                        false          :
          :   energy convergence         0.5000000E-05 Eh   :
          :   grad. convergence          0.1000000E-02 Eh/α :
          :   maximium RF displ.         1.0000000          :
          :   Hlow (freq-cutoff)         0.1000000E-01      :
          :   Hmax (freq-cutoff)         5.0000000          :
          :   S6 in model hess.         20.0000000          :
          ...................................................

generating ANC from model Hessian ...
Using Lindh-Hessian (1995)
 Shifting diagonal of input Hessian by    8.5097396254919921E-003
 Lowest  eigenvalues of input Hessian
    0.000000    0.000000    0.000000    0.000000    0.000000    0.000000
    0.010000    0.010273    0.012634    0.013406    0.018434    0.021512
    0.023884    0.027642    0.029040    0.034951    0.042299    0.046886
 Highest eigenvalues
    1.474998    1.537082    1.790188    1.857673    1.899277    1.913603


........................................................................
.............................. CYCLE    1 ..............................
........................................................................
   1    -28.3245829 -0.283246E+02  0.600E-05    4.02       0.0  T
   2    -28.3245829 -0.860823E-11  0.355E-05    4.02     645.5  T
   3    -28.3245829 -0.475708E-11  0.239E-05    4.02     958.4  T
     SCC iter.                  ...        0 min,  0.003 sec
     gradient                   ...        0 min,  0.138 sec
 * total energy  :   -27.8988544 Eh     change       -0.4548824E-09 Eh
   gradient norm :     0.0433599 Eh/α   predicted     0.0000000E+00 (-100.00%)
   displ. norm   :     0.2407444 α      lambda       -0.4942718E-02
   maximum displ.:     0.0924347 α      in ANC's #6, #5, #7, ...

........................................................................
.............................. CYCLE    2 ..............................
........................................................................
   1    -28.3540071 -0.283540E+02  0.193E-01    4.11       0.0  T
   2    -28.3540224 -0.153386E-04  0.119E-01    4.09       1.0  T
   3    -28.3539905  0.319726E-04  0.506E-02    4.09       1.0  T
   4    -28.3540290 -0.385139E-04  0.160E-02    4.09       1.4  T
   5    -28.3540308 -0.178647E-05  0.105E-02    4.09       2.2  T
   6    -28.3540309 -0.120740E-06  0.771E-03    4.09       3.0  T
   7    -28.3540312 -0.257042E-06  0.528E-03    4.09       4.3  T
   8    -28.3540312 -0.952132E-07  0.262E-03    4.09       8.8  T
   9    -28.3540313 -0.267890E-07  0.909E-04    4.09      25.2  T
  10    -28.3540313 -0.531758E-08  0.429E-04    4.09      53.5  T
     SCC iter.                  ...        0 min,  0.008 sec
     gradient                   ...        0 min,  0.120 sec
 * total energy  :   -27.9018678 Eh     change       -0.3013404E-02 Eh
   gradient norm :     0.0113642 Eh/α   predicted    -0.2614594E-02 ( -13.23%)
   displ. norm   :     0.1708944 α      lambda       -0.6520206E-03
   maximum displ.:     0.1011963 α      in ANC's #2, #4, #3, ...

........................................................................
.............................. CYCLE    3 ..............................
........................................................................
   1    -28.3623377 -0.283623E+02  0.940E-02    4.12       0.0  T
   2    -28.3623410 -0.337919E-05  0.539E-02    4.11       1.0  T
   3    -28.3623382  0.284825E-05  0.162E-02    4.11       1.4  T
   4    -28.3623414 -0.323832E-05  0.657E-03    4.11       3.5  T
   5    -28.3623420 -0.556661E-06  0.222E-03    4.11      10.3  T
   6    -28.3623420 -0.112774E-07  0.134E-03    4.11      17.2  T
   7    -28.3623420 -0.105988E-07  0.893E-04    4.11      25.7  T
   8    -28.3623420 -0.189510E-08  0.621E-04    4.11      36.9  T
     SCC iter.                  ...        0 min,  0.007 sec
     gradient                   ...        0 min,  0.153 sec
 * total energy  :   -27.9022692 Eh     change       -0.4013102E-03 Eh
   gradient norm :     0.0045151 Eh/α   predicted    -0.3355354E-03 ( -16.39%)
   displ. norm   :     0.1561655 α      lambda       -0.2352372E-03
   maximum displ.:     0.1059040 α      in ANC's #2, #3, #4, ...

........................................................................
.............................. CYCLE    4 ..............................
........................................................................
   1    -28.3631319 -0.283631E+02  0.679E-02    4.12       0.0  T
   2    -28.3631329 -0.107756E-05  0.394E-02    4.11       1.0  T
   3    -28.3631313  0.159923E-05  0.123E-02    4.11       1.9  T
   4    -28.3631332 -0.188838E-05  0.416E-03    4.11       5.5  T
   5    -28.3631333 -0.116635E-06  0.206E-03    4.11      11.1  T
   6    -28.3631334 -0.126312E-07  0.145E-03    4.11      15.9  T
   7    -28.3631334 -0.723654E-08  0.960E-04    4.11      23.9  T
   8    -28.3631334 -0.316002E-08  0.507E-04    4.11      45.3  T
     SCC iter.                  ...        0 min,  0.006 sec
     gradient                   ...        0 min,  0.141 sec
 * total energy  :   -27.9024177 Eh     change       -0.1485167E-03 Eh
   gradient norm :     0.0030064 Eh/α   predicted    -0.1204967E-03 ( -18.87%)
   displ. norm   :     0.1342563 α      lambda       -0.1276947E-03
   maximum displ.:     0.1021203 α      in ANC's #2, #3, #1, ...

........................................................................
.............................. CYCLE    5 ..............................
........................................................................
   1    -28.3613823 -0.283614E+02  0.633E-02    4.11       0.0  T
   2    -28.3613826 -0.298641E-06  0.370E-02    4.11       1.0  T
   3    -28.3613816  0.107105E-05  0.997E-03    4.11       2.3  T
   4    -28.3613828 -0.127942E-05  0.323E-03    4.11       7.1  T
   5    -28.3613828 -0.106011E-07  0.213E-03    4.11      10.8  T
   6    -28.3613829 -0.179125E-07  0.149E-03    4.11      15.4  T
   7    -28.3613829 -0.569008E-08  0.987E-04    4.11      23.3  T
   8    -28.3613829 -0.345851E-08  0.321E-04    4.11      71.4  T
     SCC iter.                  ...        0 min,  0.010 sec
     gradient                   ...        0 min,  0.151 sec
 * total energy  :   -27.9024929 Eh     change       -0.7525921E-04 Eh
   gradient norm :     0.0028169 Eh/α   predicted    -0.6499976E-04 ( -13.63%)
   displ. norm   :     0.0735325 α      lambda       -0.5281186E-04
   maximum displ.:     0.0591267 α      in ANC's #2, #1, #3, ...

........................................................................
.............................. CYCLE    6 ..............................
........................................................................
   1    -28.3604777 -0.283605E+02  0.376E-02    4.10       0.0  T
   2    -28.3604778 -0.729018E-07  0.221E-02    4.10       1.0  T
   3    -28.3604776  0.198848E-06  0.376E-03    4.10       6.1  T
   4    -28.3604778 -0.227737E-06  0.133E-03    4.10      17.2  T
   5    -28.3604778 -0.867044E-08  0.513E-04    4.10      44.7  T
   6    -28.3604778 -0.414236E-09  0.304E-04    4.10      75.5  T
     SCC iter.                  ...        0 min,  0.009 sec
     gradient                   ...        0 min,  0.152 sec
 * total energy  :   -27.9025324 Eh     change       -0.3943866E-04 Eh
   gradient norm :     0.0022171 Eh/α   predicted    -0.2655635E-04 ( -32.66%)
   displ. norm   :     0.0829602 α      lambda       -0.4775264E-04
   maximum displ.:     0.0653562 α      in ANC's #2, #1, #3, ...

........................................................................
.............................. CYCLE    7 ..............................
........................................................................
   1    -28.3603004 -0.283603E+02  0.466E-02    4.10       0.0  T
   2    -28.3603005 -0.153321E-06  0.270E-02    4.10       1.0  T
   3    -28.3603002  0.293850E-06  0.523E-03    4.10       4.4  T
   4    -28.3603006 -0.357579E-06  0.176E-03    4.10      13.0  T
   5    -28.3603006 -0.979899E-08  0.948E-04    4.10      24.2  T
   6    -28.3603006 -0.847194E-09  0.700E-04    4.10      32.8  T
     SCC iter.                  ...        0 min,  0.005 sec
     gradient                   ...        0 min,  0.128 sec
 * total energy  :   -27.9025696 Eh     change       -0.3725586E-04 Eh
   gradient norm :     0.0013821 Eh/α   predicted    -0.2404248E-04 ( -35.47%)
   displ. norm   :     0.1476405 α      lambda       -0.3930530E-04
   maximum displ.:     0.1128466 α      in ANC's #2, #3, #1, ...

........................................................................
.............................. CYCLE    8 ..............................
........................................................................
   1    -28.3607703 -0.283608E+02  0.864E-02    4.10       0.0  T
   2    -28.3607707 -0.372670E-06  0.505E-02    4.10       1.0  T
   3    -28.3607689  0.181830E-05  0.116E-02    4.10       2.0  T
   4    -28.3607710 -0.212989E-05  0.333E-03    4.10       6.9  T
   5    -28.3607710 -0.181647E-08  0.219E-03    4.10      10.5  T
   6    -28.3607710 -0.146089E-07  0.167E-03    4.10      13.8  T
   7    -28.3607710 -0.833552E-08  0.106E-03    4.10      21.6  T
   8    -28.3607710 -0.390126E-08  0.298E-04    4.10      77.1  T
   9    -28.3607710 -0.710234E-09  0.149E-04    4.10     153.9  T
     SCC iter.                  ...        0 min,  0.011 sec
     gradient                   ...        0 min,  0.114 sec
 * total energy  :   -27.9026082 Eh     change       -0.3859649E-04 Eh
   gradient norm :     0.0017155 Eh/α   predicted    -0.1984337E-04 ( -48.59%)
   displ. norm   :     0.0911552 α      lambda       -0.1591523E-04
   maximum displ.:     0.0668671 α      in ANC's #2, #3, #1, ...

........................................................................
.............................. CYCLE    9 ..............................
........................................................................
   1    -28.3611879 -0.283612E+02  0.561E-02    4.10       0.0  T
   2    -28.3611880 -0.111289E-06  0.329E-02    4.10       1.0  T
   3    -28.3611876  0.422137E-06  0.525E-03    4.10       4.4  T
   4    -28.3611881 -0.495200E-06  0.134E-03    4.10      17.2  T
   5    -28.3611881 -0.573859E-09  0.706E-04    4.10      32.5  T
   6    -28.3611881 -0.364886E-08  0.431E-04    4.10      53.3  T
     SCC iter.                  ...        0 min,  0.005 sec
     gradient                   ...        0 min,  0.129 sec
 * total energy  :   -27.9026257 Eh     change       -0.1745517E-04 Eh
   gradient norm :     0.0009845 Eh/α   predicted    -0.7989763E-05 ( -54.23%)
   displ. norm   :     0.0999964 α      lambda       -0.1238496E-04
   maximum displ.:     0.0679974 α      in ANC's #2, #3, #7, ...

........................................................................
.............................. CYCLE   10 ..............................
........................................................................
   1    -28.3614238 -0.283614E+02  0.634E-02    4.10       0.0  T
   2    -28.3614240 -0.126174E-06  0.372E-02    4.10       1.0  T
   3    -28.3614237  0.238359E-06  0.395E-03    4.10       5.8  T
   4    -28.3614240 -0.291225E-06  0.126E-03    4.10      18.1  T
   5    -28.3614240 -0.815222E-08  0.422E-04    4.10      54.4  T
   6    -28.3614240 -0.147804E-08  0.221E-04    4.10     103.6  T
     SCC iter.                  ...        0 min,  0.005 sec
     gradient                   ...        0 min,  0.153 sec
 * total energy  :   -27.9026377 Eh     change       -0.1197833E-04 Eh
   gradient norm :     0.0005754 Eh/α   predicted    -0.6222664E-05 ( -48.05%)
   displ. norm   :     0.0772813 α      lambda       -0.7184708E-05
   maximum displ.:     0.0493738 α      in ANC's #3, #2, #1, ...

........................................................................
.............................. CYCLE   11 ..............................
........................................................................
   1    -28.3614162 -0.283614E+02  0.456E-02    4.10       0.0  T
   2    -28.3614162 -0.779639E-07  0.267E-02    4.10       1.0  T
   3    -28.3614160  0.236524E-06  0.369E-03    4.10       6.2  T
   4    -28.3614163 -0.281319E-06  0.880E-04    4.10      26.1  T
   5    -28.3614163 -0.146354E-08  0.309E-04    4.10      74.4  T
     SCC iter.                  ...        0 min,  0.004 sec
     gradient                   ...        0 min,  0.131 sec
 * total energy  :   -27.9026456 Eh     change       -0.7907348E-05 Eh
   gradient norm :     0.0007187 Eh/α   predicted    -0.3605850E-05 ( -54.40%)
   displ. norm   :     0.0736491 α      lambda       -0.6578386E-05
   maximum displ.:     0.0475306 α      in ANC's #3, #1, #2, ...

........................................................................
.............................. CYCLE   12 ..............................
........................................................................
   1    -28.3613353 -0.283613E+02  0.419E-02    4.10       0.0  T
   2    -28.3613354 -0.841678E-07  0.242E-02    4.10       1.0  T
   3    -28.3613352  0.221561E-06  0.387E-03    4.10       5.9  T
   4    -28.3613355 -0.265061E-06  0.144E-03    4.10      16.0  T
   5    -28.3613355 -0.631015E-08  0.493E-04    4.10      46.6  T
   6    -28.3613355 -0.151442E-08  0.342E-04    4.10      67.1  T
     SCC iter.                  ...        0 min,  0.005 sec
     gradient                   ...        0 min,  0.139 sec
 * total energy  :   -27.9026541 Eh     change       -0.8547371E-05 Eh
   gradient norm :     0.0007555 Eh/α   predicted    -0.3301359E-05 ( -61.38%)
   displ. norm   :     0.0777735 α      lambda       -0.7345830E-05
   maximum displ.:     0.0499740 α      in ANC's #1, #3, #2, ...

........................................................................
.............................. CYCLE   13 ..............................
........................................................................
   1    -28.3612902 -0.283613E+02  0.438E-02    4.10       0.0  T
   2    -28.3612903 -0.115171E-06  0.250E-02    4.10       1.0  T
   3    -28.3612901  0.247559E-06  0.443E-03    4.10       5.2  T
   4    -28.3612904 -0.298346E-06  0.195E-03    4.10      11.8  T
   5    -28.3612904 -0.121087E-07  0.740E-04    4.10      31.0  T
   6    -28.3612904 -0.254506E-08  0.535E-04    4.10      42.9  T
     SCC iter.                  ...        0 min,  0.005 sec
     gradient                   ...        0 min,  0.152 sec
 * total energy  :   -27.9026636 Eh     change       -0.9452520E-05 Eh
   gradient norm :     0.0004552 Eh/α   predicted    -0.3686038E-05 ( -61.00%)
   displ. norm   :     0.0784316 α      lambda       -0.4061706E-05
   maximum displ.:     0.0509962 α      in ANC's #1, #3, #2, ...

........................................................................
.............................. CYCLE   14 ..............................
........................................................................
   1    -28.3611472 -0.283611E+02  0.442E-02    4.10       0.0  T
   2    -28.3611473 -0.117984E-06  0.252E-02    4.10       1.0  T
   3    -28.3611471  0.215588E-06  0.426E-03    4.10       5.4  T
   4    -28.3611474 -0.261799E-06  0.200E-03    4.10      11.5  T
   5    -28.3611474 -0.153131E-07  0.755E-04    4.10      30.4  T
   6    -28.3611474 -0.209232E-08  0.561E-04    4.10      40.9  T
     SCC iter.                  ...        0 min,  0.005 sec
     gradient                   ...        0 min,  0.160 sec
 * total energy  :   -27.9026696 Eh     change       -0.6082155E-05 Eh
   gradient norm :     0.0006885 Eh/α   predicted    -0.2038702E-05 ( -66.48%)
   displ. norm   :     0.0431138 α      lambda       -0.4878668E-05
   maximum displ.:     0.0364297 α      in ANC's #1, #3, #2, ...

........................................................................
.............................. CYCLE   15 ..............................
........................................................................
   1    -28.3614161 -0.283614E+02  0.230E-02    4.10       0.0  T
   2    -28.3614161 -0.354833E-07  0.132E-02    4.10       1.7  T
   3    -28.3614160  0.962704E-07  0.276E-03    4.10       8.3  T
   4    -28.3614161 -0.117056E-06  0.111E-03    4.10      20.6  T
   5    -28.3614161 -0.189238E-08  0.600E-04    4.10      38.3  T
   6    -28.3614161 -0.161283E-08  0.441E-04    4.10      52.0  T
     SCC iter.                  ...        0 min,  0.005 sec
     gradient                   ...        0 min,  0.138 sec
 * total energy  :   -27.9026751 Eh     change       -0.5430416E-05 Eh
   gradient norm :     0.0003798 Eh/α   predicted    -0.2442274E-05 ( -55.03%)
   displ. norm   :     0.0436463 α      lambda       -0.6940439E-06
   maximum displ.:     0.0370584 α      in ANC's #1, #3, #2, ...

........................................................................
.............................. CYCLE   16 ..............................
........................................................................
   1    -28.3616534 -0.283617E+02  0.232E-02    4.10       0.0  T
   2    -28.3616534 -0.353593E-07  0.133E-02    4.10       1.7  T
   3    -28.3616534  0.798683E-07  0.254E-03    4.10       9.0  T
   4    -28.3616535 -0.983372E-07  0.110E-03    4.10      20.9  T
   5    -28.3616535 -0.249971E-08  0.553E-04    4.10      41.5  T
   6    -28.3616535 -0.116812E-08  0.416E-04    4.10      55.1  T
     SCC iter.                  ...        0 min,  0.013 sec
     gradient                   ...        0 min,  0.145 sec
 * total energy  :   -27.9026768 Eh     change       -0.1740629E-05 Eh
   gradient norm :     0.0007858 Eh/α   predicted    -0.3481990E-06 ( -80.00%)
   displ. norm   :     0.0430159 α      lambda        0.3720222E-05
   maximum displ.:     0.0363133 α      in ANC's #1, #3, #2, ...

   *** GEOMETRY OPTIMIZATION CONVERGED AFTER 16 ITERATIONS ***

------------------------------------------------------------------------
 total energy gain   :        -0.0038224 Eh       -2.3986 kcal/mol
 total RMSD          :         0.2613523 a0        0.1383 Å
 total power (kW/mol):        -0.6272278 (step)   -2.6543 (real)
------------------------------------------------------------------------

 ANCopt (total)                0 d,  0 h,  0 min,  3.781 sec
 optimizer setup                ...        0 min,  0.000 sec (  0.002%)
 model hessian                  ...        0 min,  0.003 sec (  0.081%)
 ANC generation                 ...        0 min,  0.001 sec (  0.014%)
 coordinate transformation      ...        0 min,  0.000 sec (  0.003%)
 single point calculation       ...        0 min,  3.538 sec ( 93.584%)
 optimization log               ...        0 min,  0.001 sec (  0.025%)
 hessian update                 ...        0 min,  0.235 sec (  6.209%)
 rational function              ...        0 min,  0.001 sec (  0.024%)

================
 final structure:
================
19
 xtb: 6.3.3 (4ae9cef)
C        -2.34229160129723   -0.10531207476494    0.92936248888262
C        -2.32169258997022    0.63870046436711   -0.15931592385178
C        -1.14434510436152    0.81735141502712   -1.07874372475298
C         0.12326049233558    0.23593082704410   -0.53098892094009
C         0.86940811327531    0.89014579888129    0.44392286403247
C         2.02655660344023    0.34378422626874    0.97062450553416
C         2.45922018720938   -0.89259571633126    0.52602615124203
C         1.73262014777234   -1.56826071254347   -0.43902766865862
C         0.57986044925301   -1.00572976541923   -0.95747157359564
Br        0.30971479810147    2.59551886929734    1.09818520409753
H        -3.22481322023518   -0.18603644756929    1.53983081098651
H        -1.48212313407046   -0.66333829684160    1.26239736046027
H        -3.20626970134666    1.18015447132719   -0.46565075628107
H        -1.38115249065690    0.34681264838031   -2.03791112382896
H        -1.01489102936033    1.88785392938965   -1.26642357631309
H         2.58078460995190    0.88183051121907    1.72451558906711
H         3.35945181358354   -1.32398821576566    0.93642952266064
H         2.06297230152166   -2.53493595702057   -0.78787130926634
H         0.01372835485401   -1.53788697494581   -1.70789091947449

 Bond Distances (Angstroems)
 ---------------------------
C1-C2=1.3188         C1-H11=1.0761        C1-H12=1.0781        C2-C1=1.3188         C2-C3=1.5045         C2-H13=1.0814        
C3-C2=1.5045         C3-C4=1.4983         C3-H14=1.0943        C3-H15=1.0945        C4-C3=1.4983         C4-C5=1.3911         
C4-C9=1.3900         C5-C4=1.3911         C5-C6=1.3838         C5-Br10=1.9104       C6-C5=1.3838         C6-C7=1.3833         
C6-H16=1.0794        C7-C6=1.3833         C7-C8=1.3841         C7-H17=1.0793        C8-C7=1.3841         C8-C9=1.3835         
C8-H18=1.0795        C9-C4=1.3900         C9-C8=1.3835         C9-H19=1.0802        Br10-C5=1.9104       H11-C1=1.0761        
H12-C1=1.0781        H13-C2=1.0814        H14-C3=1.0943        H15-C3=1.0945        H16-C6=1.0794        H17-C7=1.0793        
H18-C8=1.0795        H19-C9=1.0802        
 C  H  Rav=1.0825 sigma=0.0065  Rmin=1.0761  Rmax=1.0945     9
 C  C  Rav=1.4042 sigma=0.0560  Rmin=1.3188  Rmax=1.5045     9
 Br C  Rav=1.9104 sigma=0.0000  Rmin=1.9104  Rmax=1.9104     1

 selected bond angles (degree)
 --------------------
H11-C1-C2=121.56               H12-C1-C2=122.32               H12-C1-H11=116.12              C3-C2-C1=125.71                
H13-C2-C1=120.23               H13-C2-C3=114.05               C4-C3-C2=113.11                H14-C3-C2=108.38               
H14-C3-C4=109.67               H15-C3-C2=108.27               H15-C3-C4=110.01               H15-C3-H14=107.21              
C5-C4-C3=121.84                C9-C4-C3=120.82                C9-C4-C5=117.32                C6-C5-C4=121.98                
Br10-C5-C4=120.18              Br10-C5-C6=117.85              C7-C6-C5=119.48                H16-C6-C5=119.89               
H16-C6-C7=120.63               C8-C7-C6=119.75                H17-C7-C6=119.73               H17-C7-C8=120.52               
C9-C8-C7=120.01                H18-C8-C7=120.12               H18-C8-C9=119.87               C8-C9-C4=121.46                
H19-C9-C4=118.75               H19-C9-C8=119.78               

 selected dihedral angles (degree)
 ---------------------------------
C3-C2-C1-H11=180.06           C3-C2-C1-H12=  0.27           H13-C2-C1-H11=359.43          H13-C2-C1-H12=179.64          
C4-C3-C2-C1=350.56            C4-C3-C2-H13=171.15           H14-C3-C2-C1=112.40           H14-C3-C2-H13=292.99          
H15-C3-C2-C1=228.37           H15-C3-C2-H13= 48.97          C5-C4-C3-C2=281.80            C5-C4-C3-H14=160.69           
C5-C4-C3-H15= 43.01           C9-C4-C3-C2=100.01            C9-C4-C3-H14=338.91           C9-C4-C3-H15=221.23           
C6-C5-C4-C3=178.72            C6-C5-C4-C9=  0.44            Br10-C5-C4-C3=358.70          Br10-C5-C4-C9=180.43          
C7-C6-C5-C4=359.66            C7-C6-C5-Br10=179.68          H16-C6-C5-C4=179.86           H16-C6-C5-Br10=359.88         
C8-C7-C6-C5=  0.04            C8-C7-C6-H16=179.84           H17-C7-C6-C5=180.20           H17-C7-C6-H16=  0.00          
C9-C8-C7-C6=  0.14            C9-C8-C7-H17=179.97           H18-C8-C7-C6=180.21           H18-C8-C7-H17=  0.04          
C8-C9-C4-C3=181.45            C8-C9-C4-C5=359.74            H19-C9-C4-C3=  1.21           H19-C9-C4-C5=179.50           
C4-C9-C8-C7=  0.00            C4-C9-C8-H18=179.91           H19-C9-C8-C7=180.22           H19-C9-C8-H18=  0.15          
           -------------------------------------------------
          |                Final Singlepoint                |
           -------------------------------------------------

          ...................................................
          :                      SETUP                      :
          :.................................................:
          :  # basis functions                  55          :
          :  # atomic orbitals                  54          :
          :  # shells                           30          :
          :  # electrons                        52          :
          :  max. iterations                   250          :
          :  Hamiltonian                  GFN2-xTB          :
          :  restarted?                      false          :
          :  GBSA solvation                  false          :
          :  PC potential                    false          :
          :  electronic temp.          300.0000000     K    :
          :  accuracy                    1.0000000          :
          :  -> integral cutoff          0.2500000E+02      :
          :  -> integral neglect         0.1000000E-07      :
          :  -> SCF convergence          0.1000000E-05 Eh   :
          :  -> wf. convergence          0.1000000E-03 e    :
          :  Broyden damping             0.4000000          :
          ...................................................

 iter      E             dE          RMSdq      gap      omega  full diag
   1    -28.3616535 -0.283617E+02  0.293E-04    4.10       0.0  T
   2    -28.3616535 -0.820144E-10  0.240E-04    4.10      95.4  T
   3    -28.3616535  0.280060E-10  0.200E-04    4.10     114.9  T

   *** convergence criteria satisfied after 3 iterations ***

         #    Occupation            Energy/Eh            Energy/eV
      -------------------------------------------------------------
         1        2.0000           -0.8323732             -22.6500
       ...           ...                  ...                  ...
        20        2.0000           -0.4424298             -12.0391
        21        2.0000           -0.4406740             -11.9913
        22        2.0000           -0.4330326             -11.7834
        23        2.0000           -0.4168043             -11.3418
        24        2.0000           -0.4056839             -11.0392
        25        2.0000           -0.4054141             -11.0319
        26        2.0000           -0.3951997             -10.7539 (HOMO)
        27                         -0.2445511              -6.6546 (LUMO)
        28                         -0.2414802              -6.5710
        29                         -0.2050066              -5.5785
        30                         -0.2004855              -5.4555
        31                         -0.1176999              -3.2028
       ...                                ...                  ...
        54                          0.6441097              17.5271
      -------------------------------------------------------------
                  HL-Gap            0.1506487 Eh            4.0994 eV
             Fermi-level           -0.3198754 Eh           -8.7043 eV

 SCC (total)                   0 d,  0 h,  0 min,  0.219 sec
 SCC setup                      ...        0 min,  0.009 sec (  4.306%)
 Dispersion                     ...        0 min,  0.018 sec (  8.216%)
 classical contributions        ...        0 min,  0.019 sec (  8.555%)
 integral evaluation            ...        0 min,  0.044 sec ( 20.105%)
 iterations                     ...        0 min,  0.003 sec (  1.152%)
 molecular gradient             ...        0 min,  0.126 sec ( 57.590%)
 printout                       ...        0 min,  0.000 sec (  0.048%)

         :::::::::::::::::::::::::::::::::::::::::::::::::::::
         ::                     SUMMARY                     ::
         :::::::::::::::::::::::::::::::::::::::::::::::::::::
         :: total energy             -27.902676816434 Eh    ::
         :: gradient norm              0.000785666740 Eh/a0 ::
         :: HOMO-LUMO gap              4.099358862116 eV    ::
         ::.................................................::
         :: SCC energy               -28.361653458053 Eh    ::
         :: -> isotropic ES            0.006542204175 Eh    ::
         :: -> anisotropic ES          0.001894619274 Eh    ::
         :: -> anisotropic XC          0.015460691376 Eh    ::
         :: -> dispersion             -0.018937360637 Eh    ::
         :: repulsion energy           0.458859292939 Eh    ::
         :: add. restraining           0.000000000000 Eh    ::
         :: total charge               0.000000000000 e     ::
         :::::::::::::::::::::::::::::::::::::::::::::::::::::

           -------------------------------------------------
          |                Property Printout                |
           -------------------------------------------------

    * Orbital Energies and Occupations

         #    Occupation            Energy/Eh            Energy/eV
      -------------------------------------------------------------
         1        2.0000           -0.8323732             -22.6500
       ...           ...                  ...                  ...
        14        2.0000           -0.4972885             -13.5319
        15        2.0000           -0.4935656             -13.4306
        16        2.0000           -0.4905425             -13.3483
        17        2.0000           -0.4837953             -13.1647
        18        2.0000           -0.4662444             -12.6872
        19        2.0000           -0.4501559             -12.2494
        20        2.0000           -0.4424298             -12.0391
        21        2.0000           -0.4406740             -11.9913
        22        2.0000           -0.4330326             -11.7834
        23        2.0000           -0.4168043             -11.3418
        24        2.0000           -0.4056839             -11.0392
        25        2.0000           -0.4054141             -11.0319
        26        2.0000           -0.3951997             -10.7539 (HOMO)
        27                         -0.2445511              -6.6546 (LUMO)
        28                         -0.2414802              -6.5710
        29                         -0.2050066              -5.5785
        30                         -0.2004855              -5.4555
        31                         -0.1176999              -3.2028
        32                          0.0391185               1.0645
        33                          0.0422540               1.1498
        34                          0.0456220               1.2414
        35                          0.0802160               2.1828
        36                          0.0855137               2.3269
        37                          0.1121350               3.0513
       ...                                ...                  ...
        54                          0.6441097              17.5271
      -------------------------------------------------------------
                  HL-Gap            0.1506487 Eh            4.0994 eV
             Fermi-level           -0.3198754 Eh           -8.7043 eV

     #   Z          covCN         q      C6AA      α(0)
     1   6 C        2.836    -0.088    30.205     9.006
     2   6 C        2.886    -0.021    28.525     8.756
     3   6 C        3.814    -0.057    21.597     6.614
     4   6 C        3.029     0.014    27.664     8.627
     5   6 C        2.922     0.076    26.305     8.411
     6   6 C        3.002    -0.036    28.875     8.815
     7   6 C        2.923    -0.032    28.792     8.799
     8   6 C        2.917    -0.032    28.791     8.799
     9   6 C        2.930    -0.036    28.896     8.816
    10  35 Br       1.069    -0.178   189.974    22.223
    11   1 H        0.926     0.037     2.485     2.465
    12   1 H        0.926     0.032     2.551     2.498
    13   1 H        0.925     0.036     2.504     2.475
    14   1 H        0.924     0.048     2.343     2.394
    15   1 H        0.924     0.062     2.170     2.304
    16   1 H        0.926     0.052     2.298     2.371
    17   1 H        0.926     0.041     2.434     2.439
    18   1 H        0.926     0.040     2.454     2.450
    19   1 H        0.926     0.041     2.439     2.442

 Mol. C6AA /au·bohr⁶  :       5633.640521
 Mol. C8AA /au·bohr⁸  :     170225.695798
 Mol. α(0) /au        :        120.704834


Wiberg/Mayer (AO) data.
largest (>0.10) Wiberg bond orders for each atom

 ---------------------------------------------------------------------------
     #   Z sym  total        # sym  WBO       # sym  WBO       # sym  WBO
 ---------------------------------------------------------------------------
     1   6 C    3.993 --     2 C    1.980    11 H    0.977    12 H    0.974
     2   6 C    3.990 --     1 C    1.980     3 C    1.005    13 H    0.966
     3   6 C    3.997 --     4 C    1.016     2 C    1.005    14 H    0.955
                            15 H    0.950
     4   6 C    3.988 --     9 C    1.406     5 C    1.381     3 C    1.016
                             7 C    0.107
     5   6 C    3.935 --     6 C    1.418     4 C    1.381    10 Br   0.974
                             8 C    0.100
     6   6 C    3.990 --     7 C    1.437     5 C    1.418    16 H    0.968
                             9 C    0.108
     7   6 C    3.992 --     6 C    1.437     8 C    1.435    17 H    0.969
                             4 C    0.107
     8   6 C    3.992 --     9 C    1.443     7 C    1.435    18 H    0.970
                             5 C    0.100
     9   6 C    3.991 --     8 C    1.443     4 C    1.406    19 H    0.967
                             6 C    0.108
    10  35 Br   1.117 --     5 C    0.974
    11   1 H    0.999 --     1 C    0.977
    12   1 H    0.999 --     1 C    0.974
    13   1 H    0.998 --     2 C    0.966
    14   1 H    0.997 --     3 C    0.955
    15   1 H    0.996 --     3 C    0.950
    16   1 H    0.997 --     6 C    0.968
    17   1 H    0.998 --     7 C    0.969
    18   1 H    0.997 --     8 C    0.970
    19   1 H    0.998 --     9 C    0.967
 ---------------------------------------------------------------------------

Topologies differ in total number of bonds
Writing topology from bond orders to xtbtopo.mol

molecular dipole:
                 x           y           z       tot (Debye)
 q only:        0.091      -0.685      -0.487
   full:        0.216      -1.152      -0.625       3.376
molecular quadrupole (traceless):
                xx          xy          yy          xz          yz          zz
 q only:        3.530      -1.962      -4.261       1.778      -2.666       0.731
  q+dip:        6.672      -2.835      -8.815       4.197      -4.693       2.144
   full:        6.081      -2.115      -8.326       2.623      -4.795       2.245

           -------------------------------------------------
          |                Geometry Summary                 |
           -------------------------------------------------

      molecular mass/u    :      197.0716176
   center of mass at/Å    :        0.2346824       1.0030229       0.4231427
  moments of inertia/u·Å² :        0.4177622E+03   0.5763770E+03   0.8713799E+03
rotational constants/cm⁻¹ :        0.4035222E-01   0.2924758E-01   0.1934590E-01

 * 17 selected distances

     #   Z          #   Z                                           value/Å
     1   6 C        2   6 C                                       1.3187872
     4   6 C        5   6 C                                       1.3911098
     5   6 C        6   6 C                                       1.3838057
     6   6 C        7   6 C                                       1.3832935
     7   6 C        8   6 C                                       1.3841242
     4   6 C        9   6 C                                       1.3899971
     8   6 C        9   6 C                                       1.3835028
     5   6 C       10  35 Br                                      1.9103961 (max)
     1   6 C       11   1 H                                       1.0761191 (min)
     1   6 C       12   1 H                                       1.0780516
     2   6 C       13   1 H                                       1.0814297
     3   6 C       14   1 H                                       1.0942973
     3   6 C       15   1 H                                       1.0945125
     6   6 C       16   1 H                                       1.0793583
     7   6 C       17   1 H                                       1.0793273
     8   6 C       18   1 H                                       1.0794839
     9   6 C       19   1 H                                       1.0801972

 * 3 distinct bonds (by element types)

   Z      Z             #   av. dist./Å        max./Å        min./Å
   1 H    6 C           9     1.0825308     1.0945125     1.0761191
   6 C    6 C           7     1.3763743     1.3911098     1.3187872
   6 C   35 Br          1     1.9103961     1.9103961     1.9103961


optimized geometry written to: xtbopt.xyz


           -------------------------------------------------
          | TOTAL ENERGY              -27.902676816434 Eh   |
          | GRADIENT NORM               0.000785666740 Eh/α |
          | HOMO-LUMO GAP               4.099358862116 eV   |
           -------------------------------------------------

------------------------------------------------------------------------
 * finished run on 2022/03/17 at 02:19:36.702     
------------------------------------------------------------------------
 total:
 * wall-time:     0 d,  0 h,  0 min,  4.383 sec
 *  cpu-time:     0 d,  0 h,  2 min, 20.481 sec
 * ratio c/w:    32.051 speedup
 SCF:
 * wall-time:     0 d,  0 h,  0 min,  0.252 sec
 *  cpu-time:     0 d,  0 h,  0 min,  7.704 sec
 * ratio c/w:    30.559 speedup
 ANC optimizer:
 * wall-time:     0 d,  0 h,  0 min,  4.001 sec
 *  cpu-time:     0 d,  0 h,  2 min,  8.795 sec
 * ratio c/w:    32.190 speedup

