19
 energy: -27.898854441102 gnorm: 0.043359857202 xtb: 6.3.3 (4ae9cef)
C        -2.49840000000000   -0.13092800000000    0.92568200000000
C        -2.38596300000000    0.57594100000000   -0.20761400000000
C        -1.14408600000000    0.83299300000000   -1.02207600000000
C         0.15165600000000    0.27269900000000   -0.47760700000000
C         0.95115700000000    0.94719900000000    0.46083500000000
C         2.13417200000000    0.36763600000000    0.93464500000000
C         2.53111000000000   -0.89087700000000    0.48488800000000
C         1.74580900000000   -1.57598800000000   -0.43673400000000
C         0.56582400000000   -1.00104700000000   -0.91175900000000
Br        0.49072800000000    2.65668800000000    1.15161200000000
H        -3.46056500000000   -0.23600700000000    1.41788200000000
H        -1.64974600000000   -0.61785400000000    1.39551300000000
H        -3.29009000000000    1.03267600000000   -0.60804600000000
H        -1.31256100000000    0.41919500000000   -2.02564700000000
H        -1.04166000000000    1.91185600000000   -1.18730100000000
H         2.75345200000000    0.89018700000000    1.65966800000000
H         3.44977300000000   -1.33687000000000    0.85697400000000
H         2.04872500000000   -2.56020200000000   -0.78532500000000
H        -0.03933600000000   -1.55729800000000   -1.62559100000000
19
 energy: -27.901867844831 gnorm: 0.011364270351 xtb: 6.3.3 (4ae9cef)
C        -2.46938806616763   -0.12197907013637    0.91339409341786
C        -2.36854220717749    0.58513668622222   -0.19868310915663
C        -1.13524208868284    0.83509973254301   -1.01739851222279
C         0.13585047820660    0.25010892500456   -0.46188246997611
C         0.93559240451261    0.91581967782455    0.46441929219663
C         2.11866231006774    0.35759741815170    0.93194260540882
C         2.51883436207132   -0.88908104389124    0.48404056923055
C         1.73600166963095   -1.57205471583715   -0.43173730534689
C         0.56054674662590   -1.00424465271544   -0.89645800062948
Br        0.44518908970346    2.63874290072701    1.10754081304247
H        -3.42134020155485   -0.23975175362997    1.40648244306993
H        -1.62414941508540   -0.60932473151190    1.37338957037321
H        -3.26474595162177    1.04084057488397   -0.60571755181441
H        -1.30808418841138    0.41680134058006   -2.01714854299471
H        -1.02693466210762    1.91870405496507   -1.14864767505121
H         2.72899195710967    0.89326760473720    1.64660127076225
H         3.43792068959384   -1.32415425730084    0.85103165523786
H         2.04098830672465   -2.54724000883910   -0.78574548043451
H        -0.04015223343777   -1.54428968177734   -1.61542466511283
19
 energy: -27.902269155017 gnorm: 0.004515159062 xtb: 6.3.3 (4ae9cef)
C        -2.44180013900268   -0.12493291743159    0.90667206350563
C        -2.36025807988304    0.58534714198601   -0.20031133578881
C        -1.13167471802541    0.83677666338696   -1.02532418370502
C         0.13061760250745    0.24434105873413   -0.47165594364811
C         0.92606737053044    0.90650051396043    0.45616090711595
C         2.10214869093718    0.35499123796221    0.93542914467371
C         2.50513933622649   -0.88944818566641    0.49019190242598
C         1.72578825770735   -1.57482672637335   -0.42551608436708
C         0.55548838095132   -1.00889068821979   -0.89539895840687
Br        0.41729717313452    2.62562581636640    1.10797584581788
H        -3.38000536861001   -0.23994788881518    1.42187917159217
H        -1.58938333094377   -0.60705448288022    1.35532457199886
H        -3.25178246317806    1.05392881413024   -0.59889631719318
H        -1.30873133181300    0.42384753520604   -2.02423846821355
H        -1.01737718877688    1.92074483519114   -1.13887577071115
H         2.70418872850033    0.90065334057556    1.64646948033264
H         3.42680755615618   -1.31641489298036    0.85426651698780
H         2.03432108222102   -2.54582281793595   -0.78144367229625
H        -0.04685255863944   -1.54541935719625   -1.61270987012056
19
 energy: -27.902417671713 gnorm: 0.003006422157 xtb: 6.3.3 (4ae9cef)
C        -2.41412903751302   -0.11920512679219    0.90907063327908
C        -2.35402943959729    0.59251365097889   -0.19856725692582
C        -1.13096651367934    0.84009209867253   -1.03575511269620
C         0.12556752731767    0.24247852288267   -0.48124438040992
C         0.91483278198447    0.90132683430634    0.45395076399477
C         2.08982628321076    0.35506686983948    0.93838137900079
C         2.49641596823404   -0.88870119762051    0.49335427698698
C         1.71948341913910   -1.57708193185987   -0.42257712230611
C         0.55145015570771   -1.01244712157833   -0.89849952799291
Br        0.39875394217541    2.62132480855771    1.10950278604505
H        -3.34290722148217   -0.24883661901622    1.43800473642302
H        -1.55477690428680   -0.61341843609250    1.33228301649087
H        -3.24675140414106    1.06242342858256   -0.59088123837798
H        -1.31353631715658    0.43124700851021   -2.03419238857633
H        -1.01208666978612    1.92297904784759   -1.14274262394873
H         2.68207691785356    0.90377659766873    1.65411095664378
H         3.41578220612027   -1.31454059431795    0.86289351447954
H         2.02706925466926   -2.55004719572637   -0.77216106432880
H        -0.05207594876988   -1.54895164484274   -1.61493234778102
19
 energy: -27.902492930922 gnorm: 0.002816942290 xtb: 6.3.3 (4ae9cef)
C        -2.39421530097543   -0.12607752928902    0.90492649012271
C        -2.35125776823392    0.59276303647819   -0.20008293862961
C        -1.13192577941068    0.84301743034922   -1.04512078289240
C         0.12340246412432    0.24401234826427   -0.49116230438953
C         0.90706215354378    0.90072309479476    0.45144736278029
C         2.08013891640259    0.35502120519742    0.94215190462258
C         2.48852980129367   -0.88964050147298    0.49849199635914
C         1.71485000989383   -1.57897482530263   -0.41999286043368
C         0.54959495684708   -1.01361110259376   -0.90410964475629
Br        0.38498381756320    2.61969527401170    1.11166985689755
H        -3.31077764218332   -0.24985233315504    1.45787058252026
H        -1.52423973115183   -0.61353887732278    1.31514972761231
H        -3.24548194299993    1.07128139230643   -0.57835728336480
H        -1.31904340474657    0.43801046945550   -2.04392746810965
H        -1.01168093576710    1.92529365034618   -1.15036237102608
H         2.66593774308609    0.90403212431122    1.66293760167531
H         3.40609249188989   -1.31597013623813    0.87291465897450
H         2.02141448019695   -2.55496752108910   -0.76317050449614
H        -0.05338532937265   -1.55121819905141   -1.62127502346634
19
 energy: -27.902532369586 gnorm: 0.002217124076 xtb: 6.3.3 (4ae9cef)
C        -2.38395438286776   -0.12498251185437    0.90717983081269
C        -2.34877488575234    0.59558406896497   -0.19705738213180
C        -1.13328458199838    0.84424151505172   -1.04945890659966
C         0.12460174210082    0.24741042936344   -0.49766144578858
C         0.90587334770907    0.90400578287230    0.44763975783712
C         2.07542617187869    0.35481023372558    0.94463098554602
C         2.48283774440083   -0.89147786367494    0.50369680092014
C         1.71219067487833   -1.57929942873620   -0.41847491872671
C         0.54985387509084   -1.01187236565217   -0.90884932063508
Br        0.38066874871101    2.62052957717168    1.11098106926050
H        -3.29630306926087   -0.25494001714164    1.46476628334701
H        -1.51062881504990   -0.61667335405817    1.30549281797578
H        -3.24594684190632    1.07388172047861   -0.56832607860588
H        -1.32438496536154    0.43684390128051   -2.04690510558150
H        -1.01429975418317    1.92604556245117   -1.16014204290075
H         2.65953443109242    0.90203824969668    1.66853616768904
H         3.39866678684567   -1.31962377225478    0.88161178573985
H         2.01860105154261   -2.55676849436720   -0.75920400242916
H        -0.05067827787004   -1.54975423331713   -1.62845729572889
19
 energy: -27.902569625444 gnorm: 0.001382122286 xtb: 6.3.3 (4ae9cef)
C        -2.37445730329606   -0.12667831345897    0.90902580408032
C        -2.34505487841475    0.59745385940382   -0.19283324303332
C        -1.13496053046350    0.84496824659665   -1.05316727718580
C         0.12578109281993    0.25088104635643   -0.50281385586330
C         0.90366960389717    0.90689171697718    0.44580645333912
C         2.07021553697757    0.35440065651536    0.94741396057587
C         2.47659506569230   -0.89304889307163    0.50893137935837
C         1.71009587915423   -1.57799832279158   -0.41865009553537
C         0.55139573265460   -1.00794799157875   -0.91526153245100
Br        0.38010561087748    2.62447442793291    1.10338471374027
H        -3.28229405368722   -0.25872876781986    1.47193343614480
H        -1.49859255081633   -0.62114960499989    1.29726040699115
H        -3.24512065645340    1.07712029355091   -0.55519234099690
H        -1.33046145995162    0.43198436305883   -2.04799902722458
H        -1.01831738136655    1.92668218786152   -1.17163532789013
H         2.65281974680192    0.89832141549086    1.67545065517982
H         3.38772997706253   -1.32553037749435    0.89415359069170
H         2.01587899800575   -2.55687449710952   -0.75698368075292
H        -0.04502942949408   -1.54522244541984   -1.63882501916794
19
 energy: -27.902608221936 gnorm: 0.001715558898 xtb: 6.3.3 (4ae9cef)
C        -2.35779499506308   -0.13145265420431    0.91135383831509
C        -2.33706139357183    0.60137297688846   -0.18497402953363
C        -1.13730706037598    0.84513786615061   -1.05961449039783
C         0.12731508995974    0.25557999284911   -0.51198775232004
C         0.90015930787775    0.91132941608869    0.44048910790706
C         2.05947284062027    0.35331466089615    0.95276247925689
C         2.46402679581270   -0.89623439885087    0.51962956981515
C         1.70629260811269   -1.57594723291362   -0.41882087974790
C         0.55419114799873   -1.00170238884897   -0.92538514822215
Br        0.37778036341890    2.63028922745182    1.08908189505199
H        -3.25826034689280   -0.26205099818111    1.48528101838848
H        -1.47921198529987   -0.63267940396880    1.28395895926549
H        -3.24018354415462    1.08751972984246   -0.53138925813634
H        -1.34105360954601    0.42040970781372   -2.04824780954474
H        -1.02367387766825    1.92634519003598   -1.19076345624286
H         2.63921049021035    0.89362189945817    1.68600063966923
H         3.36760886338234   -1.33430034994060    0.91621540801090
H         2.01319915748543   -2.55444585861132   -0.75689045774732
H        -0.03471085230651   -1.53610838195550   -1.65670063378729
19
 energy: -27.902625677103 gnorm: 0.000984543153 xtb: 6.3.3 (4ae9cef)
C        -2.34722477365751   -0.13323623802484    0.91275287225304
C        -2.33204232632898    0.60466391713479   -0.18026419282096
C        -1.13840653084066    0.84387420079558   -1.06436699577522
C         0.12712668082561    0.25613136283726   -0.51840166079421
C         0.89576820668094    0.91095045633124    0.43812572483458
C         2.05175848758512    0.35252922429446    0.95616207348389
C         2.45775798611153   -0.89702445811214    0.52435558192980
C         1.70594529642189   -1.57508624145335   -0.42009930443945
C         0.55692289895367   -0.99980650759940   -0.93186779130690
Br        0.37304848815978    2.63220656574033    1.08116489266407
H        -3.24340536036083   -0.26009057866488    1.49477342680310
H        -1.46875270967578   -0.64181841949511    1.27621278209812
H        -3.23450404972841    1.09948331090193   -0.51612337571857
H        -1.34779516538981    0.41367237878451   -2.04899549679394
H        -1.02478543873075    1.92402684820724   -1.20084704304276
H         2.62680395792613    0.89224306137088    1.69334846473787
H         3.35689899585877   -1.33691389395485    0.92802816780870
H         2.01405523282750   -2.55302503246799   -0.75778478035530
H        -0.02917087663827   -1.53278095662556   -1.66617434556568
19
 energy: -27.902637655429 gnorm: 0.000575397935 xtb: 6.3.3 (4ae9cef)
C        -2.33836102412091   -0.13275712841470    0.91561926512294
C        -2.32677538972649    0.60982967350145   -0.17417290019525
C        -1.13960361550574    0.84106361587258   -1.06958235587725
C         0.12713924171471    0.25538158761320   -0.52550830352969
C         0.89188192567036    0.91031727933348    0.43403564569233
C         2.04375754976270    0.35131234403362    0.95977341783845
C         2.45225880865350   -0.89802584942593    0.52932005197119
C         1.70779498777213   -1.57422713888802   -0.42226535540892
C         0.56092611740687   -0.99914754585706   -0.93887998748401
Br        0.36394486374327    2.63073135993216    1.07709535409997
H        -3.23053673312106   -0.25130751511675    1.50604954255121
H        -1.46268577722402   -0.65196443239467    1.27049741255820
H        -3.22740997140864    1.11406225929106   -0.49969292715018
H        -1.35654120996801    0.40333409257216   -2.04899858772765
H        -1.02514264880494    1.91975352270144   -1.21427490668305
H         2.61274434901493    0.89044919876209    1.70183815184438
H         3.34824913370520   -1.33826749877418    0.93882763662244
H         2.01924824109937   -2.55038210673674   -0.76148032387745
H        -0.02088984866330   -1.53015671800509   -1.67820183036741
19
 energy: -27.902645562777 gnorm: 0.000718751937 xtb: 6.3.3 (4ae9cef)
C        -2.33435419589598   -0.12912408520967    0.91907283351684
C        -2.32398507405353    0.61440993138266   -0.17006192082425
C        -1.14071782962783    0.83715643382226   -1.07319446085571
C         0.12687454664558    0.25312917486510   -0.52968461044685
C         0.88685392168240    0.90706888021840    0.43452163002583
C         2.03783753327522    0.34951923532249    0.96319535657619
C         2.45056685908091   -0.89790157248056    0.53099691541158
C         1.71163422541016   -1.57291939753326   -0.42563023318003
C         0.56552951021632   -0.99900653475633   -0.94538029161149
Br        0.35548324360081    2.62757661516628    1.07575955034645
H        -3.22441308037782   -0.24161910288995    1.51393529694762
H        -1.46150845610949   -0.65642004902764    1.26874927594097
H        -3.22238513093350    1.12742687949747   -0.48786394133334
H        -1.36314590257111    0.39323162534073   -2.04849011932650
H        -1.02485051532535    1.91460021525764   -1.22556943902825
H         2.60254552033724    0.88838781815591    1.70858214708359
H         3.34508692941638   -1.33786793603371    0.94409961448920
H         2.02618560451691   -2.54780317492563   -0.76580671421532
H        -0.01323870928739   -1.52984595617209   -1.68723188951629
19
 energy: -27.902654110148 gnorm: 0.000755562515 xtb: 6.3.3 (4ae9cef)
C        -2.33295985466314   -0.12422556403518    0.92216426904811
C        -2.32228599631722    0.62008597171681   -0.16662998279722
C        -1.14168857521031    0.83297080155313   -1.07571112385430
C         0.12616607431674    0.24985785537596   -0.53186304265078
C         0.88233651768703    0.90355140366082    0.43544429220868
C         2.03353629952708    0.34803423278940    0.96557878235963
C         2.45064822422674   -0.89728870084673    0.53129093383760
C         1.71598769694160   -1.57169159392878   -0.42882231483350
C         0.56930476353028   -0.99992770901628   -0.94983319829991
Br        0.34489851364973    2.62161890078188    1.07838878791229
H        -3.22097703022440   -0.22916376090974    1.52187476112773
H        -1.46279095107436   -0.65962117061201    1.26680576029750
H        -3.21825448242019    1.13973319830620   -0.47964469667559
H        -1.36872239611289    0.38236470718188   -2.04683052874812
H        -1.02330644424647    1.90896872370012   -1.23675465088459
H         2.59440332435456    0.88630351651536    1.71428026652303
H         3.34510920782962   -1.33616586467392    0.94580908120563
H         2.03426141367299   -2.54487799718082   -0.77070219543035
H        -0.00566730546747   -1.53052795037801   -1.69484620034556
19
 energy: -27.902663562668 gnorm: 0.000455246975 xtb: 6.3.3 (4ae9cef)
C        -2.33348374479007   -0.11856247411886    0.92496879043744
C        -2.32114535507751    0.62634433777664   -0.16349138995129
C        -1.14270731333522    0.82793328230040   -1.07781245206413
C         0.12539959584521    0.24584646948091   -0.53322229564772
C         0.87775590239733    0.89972412651210    0.43695465728981
C         2.02968445935104    0.34642433484571    0.96806785469397
C         2.45165875538135   -0.89643566409099    0.53121484040064
C         1.72090271164149   -1.57052693944671   -0.43204185419113
C         0.57303236600405   -1.00136246864534   -0.95370549817062
Br        0.33260866231322    2.61369541474894    1.08352116867415
H        -3.21933057021010   -0.21657290371093    1.52865230400652
H        -1.46612711772713   -0.66121017587306    1.26493825486691
H        -3.21391154124609    1.15463013686393   -0.47175613759075
H        -1.37395889279908    0.37027937515947   -2.04468166436862
H        -1.02086362595899    1.90227323690620   -1.24822408487493
H         2.58796384150549    0.88465972813563    1.71865388308458
H         3.34751930923639   -1.33311529016275    0.94509036631671
H         2.04330021098000   -2.54169870215290   -0.77595646568264
H         0.00170134648854   -1.53232682452829   -1.70117127722864
19
 energy: -27.902669644823 gnorm: 0.000688501093 xtb: 6.3.3 (4ae9cef)
C        -2.33407573537431   -0.11278076915336    0.92781947046721
C        -2.32002932101904    0.63261841729151   -0.16036604253614
C        -1.14372736286516    0.82283120219036   -1.07991733092689
C         0.12462201549570    0.24177261437741   -0.53455720144803
C         0.87314074458147    0.89583376926732    0.43851010664962
C         2.02582857251802    0.34478731154578    0.97056959343560
C         2.45272531768079   -0.89556916257659    0.53109144455852
C         1.72589209235320   -1.56935406196996   -0.43532041446248
C         0.57679647703595   -1.00283084453490   -0.95759381106506
Br        0.32018684698396    2.60563799383905    1.08880890243265
H        -3.21776236561853   -0.20377521732994    1.53547566677031
H        -1.46955060490820   -0.66264194373645    1.26319120039883
H        -3.20957213745600    1.16953595904820   -0.46393566705861
H        -1.37919137008809    0.35809153536730   -2.04252168293564
H        -1.01839788835977    1.89550357014722   -1.25974265181683
H         2.58150076321909    0.88298811656572    1.72305757710133
H         3.35001722799495   -1.33001632929085    0.94428799654543
H         2.05246400646134   -2.53847714021133   -0.78132176395182
H         0.00913172136456   -1.53415602083638   -1.70753639215772
19
 energy: -27.902675075238 gnorm: 0.000379798457 xtb: 6.3.3 (4ae9cef)
C        -2.33816322349207   -0.10908280615828    0.92857657875074
C        -2.32085348058680    0.63565485657814   -0.15983686152013
C        -1.14403580571536    0.82011135730594   -1.07932901010930
C         0.12394454854168    0.23887088479743   -0.53277990427006
C         0.87128497415164    0.89300900737209    0.44120332804352
C         2.02619431898710    0.34429432547581    0.97059276091794
C         2.45595605576028   -0.89408618572960    0.52857262384403
C         1.72923326658980   -1.56880983334373   -0.43715590896452
C         0.57831707377228   -1.00426994965785   -0.95752730460820
Br        0.31499200973302    2.60061987117546    1.09344912867058
H        -3.22126401864143   -0.19496847197773    1.53763948336963
H        -1.47581077895739   -0.66303968321678    1.26275615009903
H        -3.20791982906767    1.17484133453834   -0.46477338463485
H        -1.38017294011390    0.35248359878375   -2.04021928932623
H        -1.01665147890921    1.89170162639720   -1.26306780212872
H         2.58115026927865    0.88241775795114    1.72377738720861
H         3.35470777119920   -1.32701707870566    0.94038414893672
H         2.05767954625627   -2.53671948789250   -0.78456236820137
H         0.01141072121385   -1.53601212369308   -1.70770075607715
19
 energy: -27.902676815867 gnorm: 0.000785834991 xtb: 6.3.3 (4ae9cef)
C        -2.34229160129723   -0.10531207476494    0.92936248888262
C        -2.32169258997022    0.63870046436711   -0.15931592385178
C        -1.14434510436152    0.81735141502712   -1.07874372475298
C         0.12326049233558    0.23593082704410   -0.53098892094009
C         0.86940811327531    0.89014579888129    0.44392286403247
C         2.02655660344023    0.34378422626874    0.97062450553416
C         2.45922018720938   -0.89259571633126    0.52602615124203
C         1.73262014777234   -1.56826071254347   -0.43902766865862
C         0.57986044925301   -1.00572976541923   -0.95747157359564
Br        0.30971479810147    2.59551886929734    1.09818520409753
H        -3.22481322023518   -0.18603644756929    1.53983081098651
H        -1.48212313407046   -0.66333829684160    1.26239736046027
H        -3.20626970134666    1.18015447132719   -0.46565075628107
H        -1.38115249065690    0.34681264838031   -2.03791112382896
H        -1.01489102936033    1.88785392938965   -1.26642357631309
H         2.58078460995190    0.88183051121907    1.72451558906711
H         3.35945181358354   -1.32398821576566    0.93642952266064
H         2.06297230152166   -2.53493595702057   -0.78787130926634
H         0.01372835485401   -1.53788697494581   -1.70789091947449
