66
 energy: -120.812483116062 gnorm: 0.146401227872 xtb: 6.3.3 (4ae9cef)
C        -2.54003800000000    0.18779000000000    1.13807300000000
C        -3.83403600000000    0.49026500000000    1.56959300000000
C        -4.62947500000000    1.40560000000000    0.86716200000000
C        -5.93266200000000    1.71850500000000    1.28706000000000
C        -6.71481900000000    2.62441900000000    0.56899600000000
C        -6.20486900000000    3.22710300000000   -0.57692900000000
C        -4.91090800000000    2.92670400000000   -1.00548400000000
C        -4.10996600000000    2.02015300000000   -0.29267800000000
C        -2.80511000000000    1.70820200000000   -0.71188000000000
C        -2.00127500000000    0.80079300000000   -0.00131400000000
C        -0.59546200000000    0.48895000000000   -0.50308800000000
C         0.47243300000000    0.53689700000000    0.64441900000000
C         1.64609400000000    1.47894800000000    0.36404400000000
C         2.96494700000000    1.16219400000000    0.73346300000000
C         4.03970400000000    2.03974700000000    0.49698100000000
C         5.35635000000000    1.69859900000000    0.84815100000000
C         6.41231300000000    2.57819300000000    0.60319800000000
C         6.16536100000000    3.81116100000000    0.00748600000000
C         4.86190600000000    4.16782900000000   -0.34085700000000
C         3.79038200000000    3.29199500000000   -0.10064900000000
C         2.47340600000000    3.63846800000000   -0.42545500000000
C         1.41833200000000    2.75296900000000   -0.18170200000000
N         0.85168500000000   -0.87957200000000    0.79380700000000
C         1.11325900000000   -1.42201100000000    2.03653900000000
C         1.26647100000000   -2.86806300000000    2.12218100000000
C         2.38548400000000   -3.54455200000000    1.66937200000000
S         2.27622300000000   -5.23858500000000    1.89264500000000
C         0.76162800000000   -5.09189300000000    2.67073900000000
C         0.35676700000000   -3.78096100000000    2.73621300000000
Br       -1.26392100000000   -3.23887000000000    3.54669200000000
O         1.17848200000000   -0.73232800000000    3.04925700000000
C         0.56493800000000   -1.61330300000000   -0.43122600000000
C         1.81373700000000   -1.63868000000000   -1.37409200000000
O         3.00454200000000   -1.56975200000000   -0.74204400000000
O         1.80439800000000   -1.78438300000000   -2.58782200000000
N        -0.51696000000000   -0.86815900000000   -1.04373900000000
C        -1.20509100000000   -1.23866400000000   -2.18432800000000
C        -1.24970600000000   -2.65993400000000   -2.50966000000000
C        -0.74229900000000   -3.15058500000000   -3.70131300000000
S        -0.89690500000000   -4.84806500000000   -3.84582900000000
C        -1.72426500000000   -4.95171200000000   -2.35386700000000
C        -1.85560000000000   -3.71717600000000   -1.76535000000000
Br       -2.79446200000000   -3.45062000000000   -0.14594100000000
O        -1.75620600000000   -0.41562600000000   -2.90999400000000
H        -1.96439500000000   -0.53629200000000    1.70826400000000
H        -4.21874800000000   -0.00135300000000    2.46063500000000
H        -6.34970000000000    1.25406200000000    2.17770100000000
H        -7.72278000000000    2.85572000000000    0.90327000000000
H        -6.81348700000000    3.92897500000000   -1.14066200000000
H        -4.53186700000000    3.40391300000000   -1.90637800000000
H        -2.41779400000000    2.16525600000000   -1.62187700000000
H        -0.34590400000000    1.16790600000000   -1.32636300000000
H         0.04142700000000    0.89287500000000    1.58876400000000
H         3.17720100000000    0.21593600000000    1.22600100000000
H         5.56842400000000    0.74211900000000    1.32067000000000
H         7.42563600000000    2.30166500000000    0.88236100000000
H         6.98553000000000    4.49918200000000   -0.18097000000000
H         4.68677000000000    5.13901100000000   -0.79813800000000
H         2.25342000000000    4.61093600000000   -0.86108400000000
H         0.41077100000000    3.09265500000000   -0.41571500000000
H         3.27573000000000   -3.12831700000000    1.21830200000000
H         0.25414900000000   -5.96979000000000    3.04733400000000
H         0.27548700000000   -2.64615700000000   -0.23374900000000
H         3.65941900000000   -1.54892000000000   -1.47363200000000
H        -0.25634900000000   -2.58485700000000   -4.48656600000000
H        -2.08774900000000   -5.90651400000000   -1.99899800000000
66
 energy: -120.828136951996 gnorm: 0.059647320636 xtb: 6.3.3 (4ae9cef)
C        -2.54143718698488    0.18966435196074    1.13108834525304
C        -3.81694689299381    0.48356247207752    1.56275046911181
C        -4.62452132575483    1.40101674129408    0.86792711468874
C        -5.93138639635096    1.71900649413532    1.28425537088337
C        -6.69895873607366    2.61388565228653    0.57203603169920
C        -6.18712088153081    3.21856763597383   -0.57812989966000
C        -4.91062249336457    2.92714867523250   -1.00672936091589
C        -4.10183218303212    2.01844712168605   -0.29862188110274
C        -2.79399308261367    1.70187885965215   -0.71335725280934
C        -2.00617037705854    0.80554246046014   -0.01183505004875
C        -0.59732777097615    0.49689648380092   -0.49812614286064
C         0.48105449186871    0.53612776256949    0.62738854533051
C         1.65802464932608    1.47177382665734    0.35702250770739
C         2.95347449366127    1.14972758838031    0.72353471679222
C         4.03263445029476    2.02917215150850    0.49813098396237
C         5.35480958921387    1.69599147173317    0.84907345905236
C         6.39243942849951    2.56982508058073    0.60587382374689
C         6.14633278621625    3.80776203322492    0.00803865209352
C         4.86245306128879    4.16472208941127   -0.33905719853563
C         3.78463560000027    3.29011367435670   -0.10278667196823
C         2.45874977154084    3.62730223338192   -0.42206990826600
C         1.42426186547631    2.74671494004655   -0.18763183558768
N         0.85069791036911   -0.87332992336972    0.79150871803930
C         1.09168624570397   -1.40933184994311    2.02947910966741
C         1.26764767527382   -2.87548099136600    2.09905870370896
C         2.37432894107830   -3.54310392824593    1.64525536677326
S         2.29001317342740   -5.23316564198389    1.91746833867243
C         0.76051367153408   -5.07995614455142    2.66913912387598
C         0.35624475243307   -3.77833590951735    2.71717036649222
Br       -1.25954065231316   -3.23231406662538    3.52725795960340
O         1.17121652320773   -0.71643649316734    3.02414365646167
C         0.56792902961406   -1.60472948539805   -0.42133090787766
C         1.79797963919038   -1.64990262956567   -1.36816016307425
O         2.97990789416746   -1.56212866802945   -0.74132150020145
O         1.74997443135286   -1.77045683011456   -2.56548154707510
N        -0.51916811313649   -0.86858308923439   -1.02758038011528
C        -1.19139061256620   -1.22664902035862   -2.17148240644572
C        -1.22467514961334   -2.66478895040900   -2.50904392548353
C        -0.72800858876499   -3.14592890871082   -3.69185061921428
S        -0.91175721202089   -4.83854145286861   -3.85362826386645
C        -1.72538546088198   -4.93956762622014   -2.35176641926388
C        -1.82470612027706   -3.71526418690666   -1.75721709913688
Br       -2.75107354526772   -3.43959142956359   -0.13119879155604
O        -1.75898002593460   -0.40518724752438   -2.86511134872304
H        -1.96152114113262   -0.52953056318323    1.69477185891422
H        -4.20162146050754   -0.00473584699448    2.44838767810522
H        -6.34115704092494    1.25470043269951    2.17176055755617
H        -7.70298125835088    2.84728230244502    0.90326667381207
H        -6.79622642343003    3.91828881460220   -1.13601572668115
H        -4.52938978985766    3.40063181585611   -1.90176698003034
H        -2.40768196280100    2.16109445367301   -1.61407768484708
H        -0.34462602168087    1.18530554716276   -1.31276678688027
H         0.03561432918840    0.87226570232023    1.57281758373650
H         3.16059037565484    0.20556288354531    1.20861181045078
H         5.56208512991845    0.74269291709429    1.31720285945142
H         7.40331234894790    2.29676349666881    0.88062932823786
H         6.96587619856787    4.48986416181128   -0.17971433559882
H         4.68310193659168    5.12940133607553   -0.79566538523400
H         2.24281717330513    4.59639630294650   -0.85251928688646
H         0.41715660503993    3.07158010298930   -0.41765596139891
H         3.25475477746443   -3.12348745718513    1.19666051667382
H         0.25119992903521   -5.94659216202067    3.04762200590606
H         0.28833204064403   -2.64539167158497   -0.21822281268709
H         3.65671532321912   -1.54946395038536   -1.44646915904680
H        -0.24460010737519   -2.58120971968886   -4.46644397873117
H        -2.09376022874471   -5.88349322558378   -1.99449556464965
66
 energy: -120.833391596844 gnorm: 0.015125965039 xtb: 6.3.3 (4ae9cef)
C        -2.53097407160330    0.18895690989597    1.12588498433730
C        -3.79570540635958    0.47348240295603    1.55439472654095
C        -4.61237511098731    1.39327820009706    0.86465656619783
C        -5.92188271018671    1.71438970958413    1.28077220343804
C        -6.68134600261775    2.60276526603247    0.57474113557658
C        -6.16836097696465    3.21092745965294   -0.58045495925114
C        -4.90381847817510    2.92488740063399   -1.00911863814750
C        -4.08916939710962    2.01388670181621   -0.30374422962704
C        -2.77692761829479    1.70023666627545   -0.71471174025481
C        -1.99804259234935    0.81449125737469   -0.01866181387283
C        -0.59189587209531    0.50201342995205   -0.49614080723821
C         0.47845421506965    0.53724669973728    0.62461429897054
C         1.65760611262846    1.46104174568475    0.35223085082796
C         2.93792900562777    1.13232247184308    0.71094725353565
C         4.01961464910956    2.01492599602174    0.49381278380360
C         5.34619742848573    1.68670884113270    0.84663331238588
C         6.37208536630045    2.55688464439033    0.60834471173823
C         6.12599993913161    3.80076561773057    0.00881478340179
C         4.85416225632333    4.15661787910004   -0.33680159652078
C         3.77237537046874    3.28125002873974   -0.10470348323638
C         2.43996645490374    3.61318343686759   -0.42251093647443
C         1.41768181900506    2.73803715516219   -0.19506135736441
N         0.84922005493800   -0.86501774043299    0.79310795349179
C         1.08332356110565   -1.39127859613345    2.02654205117850
C         1.27014495129275   -2.87453602685502    2.07619837615901
C         2.36969736270617   -3.53725351931160    1.62813787469212
S         2.29194101634119   -5.22732312567238    1.92149753900911
C         0.76048776168717   -5.06374806440838    2.67365185881601
C         0.35294118893204   -3.76743226464383    2.69885959802517
Br       -1.26643135573999   -3.21235569363086    3.49182229739274
O         1.15126422568564   -0.70169743180157    3.01541090082807
C         0.56745947883191   -1.59652822625438   -0.40774395446519
C         1.77571521416932   -1.62935635826648   -1.37122035243243
O         2.94818468591357   -1.56549060970546   -0.74174920820035
O         1.68572091844632   -1.75163156212114   -2.55862272569620
N        -0.52640577743052   -0.87241947484503   -1.00860628484500
C        -1.18560583630769   -1.21208397995147   -2.15569069714462
C        -1.19575098966848   -2.66297430113340   -2.50815145693889
C        -0.70891852417471   -3.13802465367582   -3.68561981107726
S        -0.92286432492913   -4.82848422183048   -3.86103128858997
C        -1.72393399736944   -4.92405893763534   -2.34812023418708
C        -1.79755444389224   -3.70524072232293   -1.75013486431376
Br       -2.67328528739467   -3.42052040372613   -0.09481369201090
O        -1.77105347955388   -0.39072400239346   -2.82339387565780
H        -1.94466910751946   -0.53002241039716    1.67846077533195
H        -4.18557284821636   -0.01206438402706    2.43604829143294
H        -6.32046063303923    1.24611304368549    2.16852252299166
H        -7.68340103071481    2.83953710575425    0.90203863903296
H        -6.78144103812809    3.90906367322790   -1.13163922841037
H        -4.51500312677244    3.39447984064722   -1.89998596032668
H        -2.39544145552026    2.16442287412587   -1.61112144233431
H        -0.33707043700766    1.18969008153342   -1.31115982423151
H         0.02870723166652    0.86478725948719    1.57234973420313
H         3.14609764125219    0.18604311472410    1.18507571220216
H         5.54408498425975    0.73351261049034    1.31356501729124
H         7.38249196488794    2.29044016561326    0.88212443873796
H         6.94752770287763    4.47770976599895   -0.17501978221137
H         4.66470224458032    5.11681987321262   -0.79333583634450
H         2.23275466034976    4.58497189610932   -0.84492666592139
H         0.40803231608506    3.04663929417865   -0.42049412885011
H         3.23823999390787   -3.11754226045208    1.16531509779702
H         0.24814245952483   -5.92226066635969    3.05583079292672
H         0.29964153575901   -2.64417924172882   -0.19547591114795
H         3.65747336455974   -1.56416647666815   -1.41133088682105
H        -0.22107439156237   -2.57468148629440   -4.45207831717078
H        -2.09963481512956   -5.85943267679078   -1.98703109097770
66
 energy: -120.834800606682 gnorm: 0.013501061087 xtb: 6.3.3 (4ae9cef)
C        -2.51816254162393    0.18521522995491    1.12020024122952
C        -3.78211832346917    0.46550037943493    1.54843632904066
C        -4.59948535487205    1.38758958208717    0.86012579690925
C        -5.90931137880706    1.70609389354666    1.27821981104388
C        -6.66962747874030    2.59498846161510    0.57501676050081
C        -6.15803002762508    3.20657035804675   -0.58167086978975
C        -4.89415203462031    2.92353747419878   -1.01088464692698
C        -4.07867747623256    2.01264622511756   -0.30538898782470
C        -2.76540723046914    1.70545945232652   -0.71725537368566
C        -1.98860058016081    0.81979442953833   -0.02275005505567
C        -0.58670689390608    0.50326929934344   -0.49607237271003
C         0.47322402856530    0.53794130767256    0.62752768095209
C         1.65000246685429    1.45542238161557    0.35131260562370
C         2.92879179764852    1.11932549422238    0.70180409840825
C         4.00906243583124    2.00323510410411    0.48563624175180
C         5.33519518459133    1.67366251153301    0.84083704642404
C         6.35955908431913    2.54569752474371    0.60923790954900
C         6.11278267014924    3.79236810153253    0.01078862860681
C         4.84168460781888    4.14771530900203   -0.33597068935894
C         3.76043984002648    3.27072338313661   -0.10679231085492
C         2.42732414959702    3.60597616768150   -0.42408170498860
C         1.40555184333219    2.73282432125565   -0.19686338879793
N         0.84588523860693   -0.86165819380013    0.79743551463837
C         1.07640326483689   -1.38119294652105    2.03134595588504
C         1.26894645886557   -2.86790406575374    2.07048139625943
C         2.36488365466729   -3.53159421941120    1.61792880586947
S         2.28776875402132   -5.22177373802883    1.92327991798778
C         0.75550479469835   -5.05214550059457    2.67639163828615
C         0.34902792305897   -3.75593220643956    2.69591793348360
Br       -1.27611153750524   -3.18950980538173    3.46797907627680
O         1.13924213412578   -0.69357900714014    3.02194739159572
C         0.56384306453598   -1.59481873837105   -0.39902236227384
C         1.76390098380693   -1.63550442028257   -1.37187681065402
O         2.93398588362804   -1.57259396875152   -0.74518890949615
O         1.65121456835304   -1.71726844291404   -2.56295395927792
N        -0.53229848548700   -0.87452171716295   -0.99714007044107
C        -1.18431334528652   -1.20240143082420   -2.14722352024393
C        -1.17709287782732   -2.65484285632824   -2.50767955744707
C        -0.69905365229542   -3.12986842272381   -3.68739767581442
S        -0.93049853562033   -4.82020684688089   -3.86485590560920
C        -1.71919445232390   -4.91130096995838   -2.34284349862129
C        -1.77237627057084   -3.69377428366396   -1.74067626408700
Br       -2.59314216686196   -3.40512366699183   -0.05572694369299
O        -1.78836117245489   -0.38202828916387   -2.80000230615581
H        -1.92525425814056   -0.53431744842546    1.66483060019028
H        -4.17633986512559   -0.02331455730050    2.42679088253568
H        -6.30061937910104    1.23268070296159    2.16700343486821
H        -7.67120289145503    2.83367505818501    0.90144001594612
H        -6.77488866350035    3.90454347550425   -1.12849022013144
H        -4.49984729228865    3.39134078273932   -1.90088160662117
H        -2.38568336458329    2.17567498519308   -1.61198464262978
H        -0.32707432742150    1.18305870479019   -1.31609880866997
H         0.02261342520493    0.86729557553984    1.57416501200859
H         3.13913310302177    0.16831720829361    1.16669542777569
H         5.52611818693340    0.71801776899242    1.30704308443535
H         7.37031251467516    2.28364394408677    0.88511872852090
H         6.93615059677406    4.46778362591235   -0.16854450955609
H         4.64487724599759    5.10780750524760   -0.79047611992847
H         2.22571864125805    4.58050715924230   -0.84392516395112
H         0.39276502429609    3.03208518564171   -0.41985569443799
H         3.22654884700629   -3.11443252268909    1.13858729765227
H         0.24260231326558   -5.90731755135389    3.06541269456588
H         0.30001605344258   -2.64261413728543   -0.18157102188139
H         3.65792628426881   -1.55853956096393   -1.39646800998550
H        -0.20350575675597   -2.56909108386137   -4.45150058007716
H        -2.10187145295116   -5.84281647507225   -1.97882339714338
66
 energy: -120.835477927845 gnorm: 0.008336334054 xtb: 6.3.3 (4ae9cef)
C        -2.50723366313636    0.18046223406815    1.11229519439991
C        -3.77223710193495    0.45684589628106    1.54192768323621
C        -4.58737816909647    1.38230092811782    0.85539523459411
C        -5.89674582640570    1.69620343823657    1.27614986851984
C        -6.65947185654198    2.58758709505708    0.57591088582296
C        -6.15050094128619    3.20365500427753   -0.58014138713119
C        -4.88475148676310    2.92467828662320   -1.01031614802353
C        -4.06952609191014    2.01416844667668   -0.30521683143308
C        -2.75636325789676    1.71437537438627   -0.71951590982797
C        -1.98160101375468    0.82423211047316   -0.02727576326582
C        -0.58412781176895    0.50250194706794   -0.49723646599786
C         0.46718995164032    0.53974238850702    0.63001288200371
C         1.64106765825123    1.45325986425349    0.35185026669344
C         2.92131622385993    1.10818247099200    0.69198370646272
C         3.99959966748729    1.99203553783697    0.47509797556063
C         5.32381303426277    1.65842999236502    0.83134384722764
C         6.34867867700096    2.53366392936831    0.60750617283000
C         6.10107589198121    3.78250594206994    0.01289163475250
C         4.82896141903069    4.13848410580411   -0.33551709403864
C         3.74906113094219    3.26009863591048   -0.10976328464772
C         2.41703945119549    3.60189146555660   -0.42541020937299
C         1.39310839745697    2.73107272539182   -0.19398175733264
N         0.84259317659513   -0.85828725242211    0.80095312000704
C         1.07142733917155   -1.37371584712644    2.03612959300585
C         1.26571510550995   -2.85940077475951    2.07030133513383
C         2.35786697255174   -3.52720287264061    1.61247578686498
S         2.27353422444000   -5.21754941584023    1.91977863927340
C         0.74523944005838   -5.04050042384888    2.68118300858453
C         0.34371628216874   -3.74251949268089    2.69992784786356
Br       -1.28039996242679   -3.16331891139214    3.46313294630185
O         1.12655567422119   -0.68859089651188    3.02986568333137
C         0.56188617239228   -1.59302814397343   -0.39400693080755
C         1.75787783256216   -1.61136062700668   -1.37559107489997
O         2.92675777223471   -1.58855641637463   -0.74801823096892
O         1.63269093739742   -1.67128139192347   -2.56647221252402
N        -0.53800450747710   -0.87739128684550   -0.98804288739271
C        -1.18259950694185   -1.19689917438387   -2.14201120054789
C        -1.15942263189311   -2.64642527167552   -2.50915726967531
C        -0.69527625683476   -3.12278243379344   -3.69459788353478
S        -0.93763884595332   -4.81351778124213   -3.86803255724137
C        -1.70766813614170   -4.90078522487753   -2.33472279041375
C        -1.74613621643374   -3.68305150855504   -1.73262637791861
Br       -2.51412396346516   -3.39467606510551   -0.02276004827977
O        -1.80187238395141   -0.37950134586874   -2.78472600806843
H        -1.90812094086284   -0.54056055437532    1.64858834500700
H        -4.16884612439007   -0.03764929004663    2.41681035849534
H        -6.28311828031539    1.21648482327117    2.16443094133959
H        -7.66124179137409    2.82565522622140    0.90230614033474
H        -6.77140716447584    3.90081997732672   -1.12369486845515
H        -4.48688754398792    3.39243251165641   -1.89959786674620
H        -2.37591985393673    2.19065602471174   -1.61173452877561
H        -0.31770410359581    1.17188457528134   -1.32366233943106
H         0.01491698590749    0.87161112802450    1.57470711900449
H         3.13182107002477    0.15254796283914    1.14891728757662
H         5.50917768245702    0.69920219929280    1.29431959608382
H         7.35947686174535    2.27470102640375    0.88669553699415
H         6.92564264063844    4.45807951503662   -0.16050129955864
H         4.62744886163062    5.09995225275325   -0.78625780296671
H         2.21937958460976    4.57794259489117   -0.84500400968203
H         0.37735196342796    3.02502471005016   -0.41165355271005
H         3.21586774230510   -3.11515605083265    1.12055613745815
H         0.23160269269830   -5.89285735562965    3.07716705272702
H         0.30567328242255   -2.64136845224397   -0.17262056385394
H         3.66328560573918   -1.57103498852757   -1.38379881182800
H        -0.19832542554621   -2.56488138444947   -4.46120641552182
H        -2.09376854551957   -5.82952071212851   -1.96573944461767
66
 energy: -120.835805646865 gnorm: 0.007586030647 xtb: 6.3.3 (4ae9cef)
C        -2.50283952258844    0.17658758775598    1.10430442939907
C        -3.76850167434379    0.45011336424021    1.53602475513874
C        -4.58120530170978    1.37902877667401    0.85228752372682
C        -5.89039014235327    1.68867432873840    1.27468039415503
C        -6.65477217819867    2.58237154229073    0.57732526915419
C        -6.14774309824724    3.20323275908486   -0.57626934491980
C        -4.88010623808259    2.92873861902966   -1.00700666982056
C        -4.06472269876190    2.01782041775676   -0.30387940551552
C        -2.75168973923689    1.72292205250908   -0.72008770314171
C        -1.97889484905715    0.82732302404987   -0.03124580792815
C        -0.58344686243484    0.50173200871033   -0.49953244442519
C         0.46370401280480    0.54115250681606    0.63113510267543
C         1.63567964861147    1.45378341959968    0.35229265045699
C         2.91721280477851    1.10226406864783    0.68410788572176
C         3.99472746202897    1.98506672009422    0.46643144441876
C         5.31750847199269    1.64726456659403    0.82117461721146
C         6.34301894557435    2.52454176237182    0.60300692675521
C         6.09500543089552    3.77527612216921    0.01392902149297
C         4.82250570893665    4.13291898066086   -0.33530423788335
C         3.74302730405835    3.25408708941746   -0.11275041000642
C         2.41209721999378    3.60130113209795   -0.42541109557928
C         1.38627241655499    2.73247974923201   -0.18905241098518
N         0.84149761007600   -0.85627434523357    0.80330163370799
C         1.06742642324284   -1.37082879510317    2.03998742217867
C         1.26042958601479   -2.85375369462189    2.07544718073643
C         2.34801714087889   -3.52690736410658    1.61253169956425
S         2.25459588768293   -5.21710925056238    1.91724335831989
C         0.73174291535792   -5.03290492779684    2.68794807809400
C         0.33745844306845   -3.73248045645463    2.71018467236767
Br       -1.27762764211768   -3.14321987114620    3.48309702526929
O         1.11708416714153   -0.68638974931173    3.03498587583553
C         0.56408280618304   -1.59055658786841   -0.39384293315178
C         1.76036593202320   -1.60039592970777   -1.37781266904238
O         2.92935216012643   -1.60289861930000   -0.75078239200977
O         1.63206704325290   -1.62010193313741   -2.57120764900281
N        -0.54058020181559   -0.87935215271768   -0.98404830708690
C        -1.18070996420132   -1.19685221947408   -2.14078141890944
C        -1.14809481212105   -2.64257833969266   -2.51135049196925
C        -0.69754911103412   -3.11971135518206   -3.70247819645377
S        -0.94057075658760   -4.81100372161118   -3.87049365257411
C        -1.69256968665687   -4.89777511552650   -2.32790499771221
C        -1.72541489497463   -3.67950385034155   -1.72762402269964
Br       -2.46721099239124   -3.39566131256606   -0.00895989682855
O        -1.80475070813173   -0.38258604751331   -2.78195750401080
H        -1.90116001888240   -0.54691328180201    1.63441313770744
H        -4.16491408072838   -0.04969344812864    2.40816809238563
H        -6.27561813200120    1.20394253419974    2.16085630493415
H        -7.65703583786765    2.81775343696395    0.90449206018463
H        -6.77100850190939    3.89985396589065   -1.11802766589092
H        -4.48169404003363    3.39913502559226   -1.89484791664830
H        -2.36888554650001    2.20336797607775   -1.60926887218544
H        -0.31185330642712    1.16417405939061   -1.33009355761076
H         0.00884000761655    0.87423437228607    1.57411064468340
H         3.12589243753206    0.14373253896058    1.13606007732596
H         5.50066606644767    0.68496175952489    1.27915045181036
H         7.35348579317423    2.26555598493841    0.88374601115640
H         6.91972543866567    4.45205828784433   -0.15450346093566
H         4.62072929747817    5.09620672680331   -0.78219158432363
H         2.21543229957280    4.57781370964708   -0.84459682436888
H         0.36887304616780    3.02671619926173   -0.39952833089839
H         3.20578992848865   -3.12021841195771    1.11587756078912
H         0.21656244006891   -5.88308124575762    3.08729952488343
H         0.31557605706691   -2.63938326165585   -0.17309111030474
H         3.66927891264901   -1.57140532686907   -1.38053078859747
H        -0.20884589550471   -2.56274269307013   -4.47553177147652
H        -2.07532683130637   -5.82590286770654   -1.95360528734402
66
 energy: -120.836187894341 gnorm: 0.008667330822 xtb: 6.3.3 (4ae9cef)
C        -2.50168535116913    0.16976744161516    1.09171599161943
C        -3.76715476205898    0.44038569446048    1.52693123409174
C        -4.57694019839802    1.37507649012234    0.84886319719535
C        -5.88655212310899    1.67886475293622    1.27263982475661
C        -6.65242132917627    2.57582898484786    0.58007868830054
C        -6.14679177581796    3.20512319305165   -0.56837078552105
C        -4.87689263075720    2.93776318346995   -0.99927803929439
C        -4.06074619207797    2.02449506409308   -0.30109934042215
C        -2.74770309420107    1.73418309929935   -0.71966821445946
C        -1.97826459567860    0.82979338461478   -0.03763238972225
C        -0.58373079165642    0.50050040385039   -0.50347740504966
C         0.45979537215316    0.54352857122065    0.63161557152964
C         1.63018277963259    1.45616126653339    0.35280964462138
C         2.91283728201261    1.09676615766396    0.67320984420413
C         3.99069083815420    1.97738372301521    0.45456981497626
C         5.31244546708381    1.63347642342734    0.80460212927435
C         6.33865030154189    2.51244559380857    0.59348082747364
C         6.09045332500823    3.76672744807096    0.01418334030857
C         4.81822836206659    4.12773528519306   -0.33485020815333
C         3.73808168592397    3.24907182219574   -0.11682133347474
C         2.40783320990494    3.60302936790316   -0.42287892929710
C         1.37999485670492    2.73689728894839   -0.18067174110416
N         0.84135374791512   -0.85282928133644    0.80544714274302
C         1.06065046277591   -1.36792814707340    2.04443801966807
C         1.24999097980733   -2.84750928235924    2.08531668926393
C         2.32832941285274   -3.53018915366785    1.61282026963048
S         2.22256878256410   -5.21954023737712    1.91728131432722
C         0.70808307342264   -5.02323229016905    2.70113824946410
C         0.32622003181482   -3.71891561672862    2.72971585400336
Br       -1.27313514862732   -3.11612163925483    3.52356619470528
O         1.10380281382086   -0.68225340358467    3.03922518142636
C         0.57158921002488   -1.58477943171977   -0.39648114996484
C         1.76845075153620   -1.57268393314526   -1.38204976870116
O         2.93746631450928   -1.62381398297370   -0.75439291706782
O         1.64114031333790   -1.54475674567780   -2.57517745157248
N        -0.54195251411679   -0.88250960803874   -0.98060559514261
C        -1.17511630832890   -1.20004089412416   -2.14226130862574
C        -1.13416376224692   -2.64143066323335   -2.51507611550115
C        -0.70424660078277   -3.11831070596725   -3.71446037828135
S        -0.94218488912481   -4.81054158299090   -3.87591416386340
C        -1.66666296044588   -4.89972318135312   -2.32033445005747
C        -1.69393041373779   -3.68124594111344   -1.72037438265496
Br       -2.40761462404717   -3.40664495511025    0.00699116496568
O        -1.80426662593155   -0.38957068320330   -2.78307477688946