      -----------------------------------------------------------      
     |                   =====================                   |     
     |                           x T B                           |     
     |                   =====================                   |     
     |                         S. Grimme                         |     
     |          Mulliken Center for Theoretical Chemistry        |     
     |                    University of Bonn                     |     
      -----------------------------------------------------------      

   * xtb version 6.3.3 (4ae9cef) compiled by 'conda@95abc7406d43' on 2020-10-14

   xtb is free software: you can redistribute it and/or modify it under
   the terms of the GNU Lesser General Public License as published by
   the Free Software Foundation, either version 3 of the License, or
   (at your option) any later version.
   
   xtb is distributed in the hope that it will be useful,
   but WITHOUT ANY WARRANTY; without even the implied warranty of
   MERCHANTABILITY or FITNESS FOR A PARTICULAR PURPOSE.  See the
   GNU Lesser General Public License for more details.
   
   Cite this work as:
   * C. Bannwarth, E. Caldeweyher, S. Ehlert, A. Hansen, P. Pracht,
     J. Seibert, S. Spicher, S. Grimme, WIREs Comput. Mol. Sci., 2020,
     e01493. DOI: 10.1002/wcms.1493
   
   for GFN2-xTB:
   * S. Grimme, C. Bannwarth, P. Shushkov, J. Chem. Theory Comput., 2017,
     13, 1989-2009. DOI: 10.1021/acs.jctc.7b00118
   for GFN1-xTB:
   * C. Bannwarth, S. Ehlert and S. Grimme., J. Chem. Theory Comput., 2019,
     15, 1652-1671. DOI: 10.1021/acs.jctc.8b01176
   for GFN0-xTB:
   * P. Pracht, E. Caldeweyher, S. Ehlert, S. Grimme, ChemRxiv, 2019, preprint.
     DOI: 10.26434/chemrxiv.8326202.v1
   for GFN-FF:
   * S. Spicher and S. Grimme, Angew. Chem. Int. Ed., 2020, 59, 15665-15673.
     DOI: 10.1002/anie.202004239
   
   for DFT-D4:
   * E. Caldeweyher, C. Bannwarth and S. Grimme, J. Chem. Phys., 2017,
     147, 034112. DOI: 10.1063/1.4993215
   * E. Caldeweyher, S. Ehlert, A. Hansen, H. Neugebauer, S. Spicher,
     C. Bannwarth and S. Grimme, J. Chem. Phys., 2019, 150, 154122.
     DOI: 10.1063/1.5090222
   * E. Caldeweyher, J.-M. Mewes, S. Ehlert and S. Grimme, Phys. Chem. Chem. Phys.
     2020, 22, 8499-8512. DOI: 10.1039/D0CP00502A
   
   for sTDA-xTB:
   * S. Grimme and C. Bannwarth, J. Chem. Phys., 2016, 145, 054103.
     DOI: 10.1063/1.4959605
   
   in the mass-spec context:
   * V. Asgeirsson, C. Bauer and S. Grimme, Chem. Sci., 2017, 8, 4879.
     DOI: 10.1039/c7sc00601b
   * J. Koopman and S. Grimme, ACS Omega 2019, 4, 12, 15120-15133.
     DOI: 10.1021/acsomega.9b02011
   
   for metadynamics refer to:
   * S. Grimme, J. Chem. Theory Comput., 2019, 155, 2847-2862
     DOI: 10.1021/acs.jctc.9b00143
   
   with help from (in alphabetical order)
   C. Bannwarth, F. Bohle, G. Brandenburg, E. Caldeweyher, M. Checinski,
   S. Dohm, S. Ehlert, S. Ehrlich, F. März, H. Neugebauer, J. Pisarek,
   P. Pracht, P. Shushkov, and S. Spicher.
   
 * started run on 2022/03/17 at 01:34:37.715     

           -------------------------------------------------
          |                Calculation Setup                |
           -------------------------------------------------

          program call               : xtb acid_470.xyz --opt --chrg 0 --uhf 0 --gfn 2
          coordinate file            : acid_470.xyz
          omp threads                :                    64
          number of atoms            :                    72
          number of electrons        :                   254
          charge                     :                     0
          spin                       :                   0.0
          first test random number   :      0.50782167032394

   ID    Z sym.   atoms
    1    6 C      1, 2, 6-15, 19-22, 24-26, 28-33, 35, 36, 40-42, 44-49
    2    9 F      3-5, 16-18
    3    7 N      23, 39
    4    8 O      27, 34, 37, 38, 43, 50
    5    1 H      51-72

           -------------------------------------------------
          |                 G F N 2 - x T B                 |
           -------------------------------------------------

        Reference                      10.1021/acs.jctc.8b01176
      * Hamiltonian:
        H0-scaling (s, p, d)           1.850000    2.230000    2.230000
        zeta-weighting                 0.500000
      * Dispersion:
        s8                             2.700000
        a1                             0.520000
        a2                             5.000000
        s9                             5.000000
      * Repulsion:
        kExp                           1.500000    1.000000
        rExp                           1.000000
      * Coulomb:
        alpha                          2.000000
        third order                    shell-resolved
        anisotropic                    true
        a3                             3.000000
        a5                             4.000000
        cn-shift                       1.200000
        cn-exp                         4.000000
        max-rad                        5.000000


          ...................................................
          :                      SETUP                      :
          :.................................................:
          :  # basis functions                 222          :
          :  # atomic orbitals                 222          :
          :  # shells                          122          :
          :  # electrons                       254          :
          :  max. iterations                   250          :
          :  Hamiltonian                  GFN2-xTB          :
          :  restarted?                      false          :
          :  GBSA solvation                  false          :
          :  PC potential                    false          :
          :  electronic temp.          300.0000000     K    :
          :  accuracy                    1.0000000          :
          :  -> integral cutoff          0.2500000E+02      :
          :  -> integral neglect         0.1000000E-07      :
          :  -> SCF convergence          0.1000000E-05 Eh   :
          :  -> wf. convergence          0.1000000E-03 e    :
          :  Broyden damping             0.4000000          :
          ...................................................

 iter      E             dE          RMSdq      gap      omega  full diag
   1   -148.3839545 -0.148384E+03  0.492E+00    2.91       0.0  T
   2   -148.6306034 -0.246649E+00  0.288E+00    3.10       1.0  T
   3   -148.6269041  0.369927E-02  0.152E+00    3.33       1.0  T
   4   -148.6527602 -0.258560E-01  0.508E-01    3.12       1.0  T
   5   -148.6687214 -0.159613E-01  0.132E-01    3.14       1.0  T
   6   -148.6692987 -0.577328E-03  0.606E-02    3.17       1.0  T
   7   -148.6693959 -0.971527E-04  0.255E-02    3.16       1.0  T
   8   -148.6694046 -0.869329E-05  0.127E-02    3.16       1.0  T
   9   -148.6694100 -0.539169E-05  0.407E-03    3.17       2.9  T
  10   -148.6694102 -0.197902E-06  0.204E-03    3.17       5.8  T
  11   -148.6694103 -0.125831E-06  0.894E-04    3.17      13.2  T
  12   -148.6694103 -0.236612E-07  0.410E-04    3.17      28.8  T

   *** convergence criteria satisfied after 12 iterations ***

         #    Occupation            Energy/Eh            Energy/eV
      -------------------------------------------------------------
         1        2.0000           -0.8696704             -23.6649
       ...           ...                  ...                  ...
       121        2.0000           -0.4275974             -11.6355
       122        2.0000           -0.4267415             -11.6122
       123        2.0000           -0.4210563             -11.4575
       124        2.0000           -0.4184878             -11.3876
       125        2.0000           -0.4129966             -11.2382
       126        2.0000           -0.4120237             -11.2117
       127        2.0000           -0.4088872             -11.1264 (HOMO)
       128                         -0.2924937              -7.9592 (LUMO)
       129                         -0.2874287              -7.8213
       130                         -0.2792612              -7.5991
       131                         -0.2704258              -7.3587
       132                         -0.2651990              -7.2164
       ...                                ...                  ...
       222                          0.6776555              18.4399
      -------------------------------------------------------------
                  HL-Gap            0.1163935 Eh            3.1672 eV
             Fermi-level           -0.3506905 Eh           -9.5428 eV

 SCC (total)                   0 d,  0 h,  0 min,  0.636 sec
 SCC setup                      ...        0 min,  0.028 sec (  4.347%)
 Dispersion                     ...        0 min,  0.019 sec (  3.034%)
 classical contributions        ...        0 min,  0.014 sec (  2.179%)
 integral evaluation            ...        0 min,  0.125 sec ( 19.651%)
 iterations                     ...        0 min,  0.311 sec ( 48.934%)
 molecular gradient             ...        0 min,  0.136 sec ( 21.329%)
 printout                       ...        0 min,  0.003 sec (  0.512%)

         :::::::::::::::::::::::::::::::::::::::::::::::::::::
         ::                     SUMMARY                     ::
         :::::::::::::::::::::::::::::::::::::::::::::::::::::
         :: total energy            -147.005170583493 Eh    ::
         :: gradient norm              0.131533098019 Eh/a0 ::
         :: HOMO-LUMO gap              3.167229486445 eV    ::
         ::.................................................::
         :: SCC energy              -148.669410324386 Eh    ::
         :: -> isotropic ES            0.218176284420 Eh    ::
         :: -> anisotropic ES          0.002793342808 Eh    ::
         :: -> anisotropic XC          0.005565926817 Eh    ::
         :: -> dispersion             -0.106068849623 Eh    ::
         :: repulsion energy           1.659444392885 Eh    ::
         :: add. restraining           0.000000000000 Eh    ::
         :: total charge              -0.000000000000 e     ::
         :::::::::::::::::::::::::::::::::::::::::::::::::::::

      ----------------------------------------------------------- 
     |                   =====================                   |
     |                        A N C O P T                        |
     |                   =====================                   |
     |               Approximate Normal Coordinate               |
     |                Rational Function Optimizer                |
      ----------------------------------------------------------- 

          ...................................................
          :                      SETUP                      :
          :.................................................:
          :   optimization level            normal          :
          :   max. optcycles                   216          :
          :   ANC micro-cycles                  20          :
          :   degrees of freedom               210          :
          :.................................................:
          :   RF solver                   davidson          :
          :   write xtbopt.log                true          :
          :   linear?                        false          :
          :   energy convergence         0.5000000E-05 Eh   :
          :   grad. convergence          0.1000000E-02 Eh/α :
          :   maximium RF displ.         1.0000000          :
          :   Hlow (freq-cutoff)         0.1000000E-01      :
          :   Hmax (freq-cutoff)         5.0000000          :
          :   S6 in model hess.         20.0000000          :
          ...................................................

generating ANC from model Hessian ...
Using Lindh-Hessian (1995)
 Shifting diagonal of input Hessian by    9.8907073990304930E-003
 Lowest  eigenvalues of input Hessian
    0.000000    0.000000    0.000000    0.000000    0.000000    0.000000
    0.010000    0.010175    0.010256    0.010293    0.010431    0.010558
    0.010667    0.010794    0.010944    0.011090    0.011388    0.011782
 Highest eigenvalues
    2.036528    2.110613    2.113229    2.200106    2.276663    2.280997


........................................................................
.............................. CYCLE    1 ..............................
........................................................................
   1   -148.6694103 -0.148669E+03  0.160E-04    3.17       0.0  T
   2   -148.6694103 -0.299849E-09  0.104E-04    3.17     113.0  T
   3   -148.6694103 -0.121048E-09  0.704E-05    3.17     167.4  T
     SCC iter.                  ...        0 min,  0.080 sec
     gradient                   ...        0 min,  0.119 sec
 * total energy  :  -147.0051706 Eh     change       -0.3548735E-08 Eh
   gradient norm :     0.1315402 Eh/α   predicted     0.0000000E+00 (-100.00%)
   displ. norm   :     0.3830349 α      lambda       -0.2588734E-01
   maximum displ.:     0.1132724 α      in ANC's #21, #52, #46, ...

........................................................................
.............................. CYCLE    2 ..............................
........................................................................
   1   -148.7651787 -0.148765E+03  0.180E-01    3.43       0.0  T
   2   -148.7653429 -0.164226E-03  0.114E-01    3.45       1.0  T
   3   -148.7652337  0.109229E-03  0.566E-02    3.45       1.0  T
   4   -148.7653992 -0.165545E-03  0.146E-02    3.44       1.0  T
   5   -148.7654112 -0.119804E-04  0.423E-03    3.44       2.8  T
   6   -148.7654116 -0.377500E-06  0.223E-03    3.44       5.3  T
   7   -148.7654117 -0.108961E-06  0.102E-03    3.44      11.6  T
   8   -148.7654117 -0.276162E-07  0.379E-04    3.44      31.1  T
   9   -148.7654117 -0.234749E-08  0.167E-04    3.44      70.4  T
     SCC iter.                  ...        0 min,  0.239 sec
     gradient                   ...        0 min,  0.138 sec
 * total energy  :  -147.0229206 Eh     change       -0.1775000E-01 Eh
   gradient norm :     0.0489649 Eh/α   predicted    -0.1484271E-01 ( -16.38%)
   displ. norm   :     0.3843184 α      lambda       -0.7631354E-02
   maximum displ.:     0.2005319 α      in ANC's #21, #22, #16, ...

........................................................................
.............................. CYCLE    3 ..............................
........................................................................
   1   -148.8122805 -0.148812E+03  0.120E-01    3.52       0.0  T
   2   -148.8123569 -0.764358E-04  0.773E-02    3.52       1.0  T
   3   -148.8123162  0.407283E-04  0.423E-02    3.53       1.0  T
   4   -148.8123972 -0.810020E-04  0.912E-03    3.52       1.3  T
   5   -148.8124017 -0.454607E-05  0.267E-03    3.52       4.4  T
   6   -148.8124019 -0.211740E-06  0.131E-03    3.52       9.0  T
   7   -148.8124020 -0.476673E-07  0.586E-04    3.52      20.1  T
   8   -148.8124020 -0.756813E-08  0.232E-04    3.52      50.7  T
     SCC iter.                  ...        0 min,  0.206 sec
     gradient                   ...        0 min,  0.152 sec
 * total energy  :  -147.0277048 Eh     change       -0.4784239E-02 Eh
   gradient norm :     0.0148302 Eh/α   predicted    -0.4379255E-02 (  -8.46%)
   displ. norm   :     0.3534779 α      lambda       -0.2104815E-02
   maximum displ.:     0.1949925 α      in ANC's #21, #16, #14, ...

........................................................................
.............................. CYCLE    4 ..............................
........................................................................
   1   -148.8198272 -0.148820E+03  0.820E-02    3.50       0.0  T
   2   -148.8198555 -0.282840E-04  0.496E-02    3.51       1.0  T
   3   -148.8198350  0.205186E-04  0.249E-02    3.51       1.0  T
   4   -148.8198640 -0.290129E-04  0.591E-03    3.51       2.0  T
   5   -148.8198661 -0.215627E-05  0.156E-03    3.51       7.5  T
   6   -148.8198662 -0.648518E-07  0.810E-04    3.51      14.6  T
   7   -148.8198662 -0.129804E-07  0.399E-04    3.51      29.5  T
     SCC iter.                  ...        0 min,  0.181 sec
     gradient                   ...        0 min,  0.123 sec
 * total energy  :  -147.0292671 Eh     change       -0.1562276E-02 Eh
   gradient norm :     0.0113272 Eh/α   predicted    -0.1183920E-02 ( -24.22%)
   displ. norm   :     0.4481847 α      lambda       -0.1651228E-02
   maximum displ.:     0.2096188 α      in ANC's #21, #5, #14, ...

........................................................................
.............................. CYCLE    5 ..............................
........................................................................
   1   -148.8207535 -0.148821E+03  0.966E-02    3.48       0.0  T
   2   -148.8207767 -0.231807E-04  0.569E-02    3.48       1.0  T
   3   -148.8207545  0.222145E-04  0.235E-02    3.49       1.0  T
   4   -148.8207826 -0.281346E-04  0.531E-03    3.48       2.2  T
   5   -148.8207843 -0.169235E-05  0.167E-03    3.48       7.1  T
   6   -148.8207843 -0.426422E-07  0.891E-04    3.48      13.2  T
   7   -148.8207843 -0.121059E-07  0.419E-04    3.48      28.1  T
     SCC iter.                  ...        0 min,  0.182 sec
     gradient                   ...        0 min,  0.134 sec
 * total energy  :  -147.0304109 Eh     change       -0.1143794E-02 Eh
   gradient norm :     0.0104556 Eh/α   predicted    -0.9914982E-03 ( -13.31%)
   displ. norm   :     0.3935197 α      lambda       -0.9192005E-03
   maximum displ.:     0.1429788 α      in ANC's #5, #13, #14, ...

........................................................................
.............................. CYCLE    6 ..............................
........................................................................
   1   -148.8202606 -0.148820E+03  0.823E-02    3.47       0.0  T
   2   -148.8202698 -0.917804E-05  0.483E-02    3.47       1.0  T
   3   -148.8202579  0.118922E-04  0.166E-02    3.47       1.0  T
   4   -148.8202726 -0.147581E-04  0.321E-03    3.47       3.7  T
   5   -148.8202731 -0.488796E-06  0.132E-03    3.47       8.9  T
   6   -148.8202731 -0.224962E-07  0.665E-04    3.47      17.7  T
   7   -148.8202731 -0.666267E-08  0.288E-04    3.47      40.9  T
     SCC iter.                  ...        0 min,  0.185 sec
     gradient                   ...        0 min,  0.131 sec
 * total energy  :  -147.0310553 Eh     change       -0.6443788E-03 Eh
   gradient norm :     0.0086785 Eh/α   predicted    -0.5307763E-03 ( -17.63%)
   displ. norm   :     0.4084722 α      lambda       -0.7244200E-03
   maximum displ.:     0.1566689 α      in ANC's #5, #13, #7, ...

........................................................................
.............................. CYCLE    7 ..............................
........................................................................
   1   -148.8208643 -0.148821E+03  0.782E-02    3.47       0.0  T
   2   -148.8208718 -0.753639E-05  0.460E-02    3.47       1.0  T
   3   -148.8208599  0.118843E-04  0.157E-02    3.47       1.0  T
   4   -148.8208744 -0.144769E-04  0.294E-03    3.47       4.0  T
   5   -148.8208748 -0.402304E-06  0.123E-03    3.47       9.6  T
   6   -148.8208748 -0.234087E-07  0.661E-04    3.47      17.8  T
   7   -148.8208748 -0.856912E-08  0.286E-04    3.47      41.2  T
     SCC iter.                  ...        0 min,  0.183 sec
     gradient                   ...        0 min,  0.143 sec
 * total energy  :  -147.0316170 Eh     change       -0.5617044E-03 Eh
   gradient norm :     0.0077298 Eh/α   predicted    -0.4226444E-03 ( -24.76%)
   displ. norm   :     0.5112195 α      lambda       -0.8150341E-03
   maximum displ.:     0.1951824 α      in ANC's #13, #5, #7, ...

........................................................................
.............................. CYCLE    8 ..............................
........................................................................
   1   -148.8219680 -0.148822E+03  0.958E-02    3.47       0.0  T
   2   -148.8219782 -0.101817E-04  0.562E-02    3.46       1.0  T
   3   -148.8219614  0.168023E-04  0.181E-02    3.47       1.0  T
   4   -148.8219816 -0.202127E-04  0.328E-03    3.47       3.6  T
   5   -148.8219821 -0.526837E-06  0.135E-03    3.47       8.7  T
   6   -148.8219821 -0.312688E-07  0.698E-04    3.47      16.9  T
   7   -148.8219821 -0.786940E-08  0.312E-04    3.47      37.8  T
     SCC iter.                  ...        0 min,  0.183 sec
     gradient                   ...        0 min,  0.145 sec
 * total energy  :  -147.0322854 Eh     change       -0.6683915E-03 Eh
   gradient norm :     0.0091255 Eh/α   predicted    -0.5140326E-03 ( -23.09%)
   displ. norm   :     0.6035215 α      lambda       -0.8988704E-03
   maximum displ.:     0.2228565 α      in ANC's #13, #10, #5, ...

........................................................................
.............................. CYCLE    9 ..............................
........................................................................
   1   -148.8223751 -0.148822E+03  0.113E-01    3.47       0.0  T
   2   -148.8223888 -0.136701E-04  0.660E-02    3.46       1.0  T
   3   -148.8223619  0.268570E-04  0.225E-02    3.47       1.0  T
   4   -148.8223939 -0.319468E-04  0.380E-03    3.46       3.1  T
   5   -148.8223946 -0.729340E-06  0.149E-03    3.46       7.9  T
   6   -148.8223947 -0.343721E-07  0.756E-04    3.46      15.6  T
   7   -148.8223947 -0.848442E-08  0.343E-04    3.46      34.4  T
     SCC iter.                  ...        0 min,  0.185 sec
     gradient                   ...        0 min,  0.051 sec
 * total energy  :  -147.0330260 Eh     change       -0.7406354E-03 Eh
   gradient norm :     0.0094406 Eh/α   predicted    -0.6131966E-03 ( -17.21%)
   displ. norm   :     0.6251733 α      lambda       -0.8296842E-03
   maximum displ.:     0.2539713 α      in ANC's #10, #13, #5, ...

........................................................................
.............................. CYCLE   10 ..............................
........................................................................
   1   -148.8228215 -0.148823E+03  0.116E-01    3.47       0.0  T
   2   -148.8228351 -0.135493E-04  0.685E-02    3.46       1.0  T
   3   -148.8227850  0.500852E-04  0.308E-02    3.47       1.0  T
   4   -148.8228444 -0.593569E-04  0.374E-03    3.46       3.2  T
   5   -148.8228451 -0.730282E-06  0.150E-03    3.46       7.9  T
   6   -148.8228451 -0.257943E-07  0.822E-04    3.46      14.3  T
   7   -148.8228451 -0.171846E-07  0.344E-04    3.46      34.2  T
     SCC iter.                  ...        0 min,  0.187 sec
     gradient                   ...        0 min,  0.133 sec
 * total energy  :  -147.0336925 Eh     change       -0.6665140E-03 Eh
   gradient norm :     0.0089809 Eh/α   predicted    -0.5769815E-03 ( -13.43%)
   displ. norm   :     0.6084245 α      lambda       -0.6625241E-03
   maximum displ.:     0.2670677 α      in ANC's #10, #13, #5, ...

........................................................................
.............................. CYCLE   11 ..............................
........................................................................
   1   -148.8216094 -0.148822E+03  0.108E-01    3.47       0.0  T
   2   -148.8216285 -0.191116E-04  0.649E-02    3.46       1.0  T
   3   -148.8215756  0.528625E-04  0.340E-02    3.47       1.0  T
   4   -148.8216417 -0.660591E-04  0.443E-03    3.47       2.7  T
   5   -148.8216429 -0.118639E-05  0.148E-03    3.46       7.9  T
   6   -148.8216429 -0.401152E-07  0.863E-04    3.46      13.7  T
   7   -148.8216429 -0.151442E-07  0.375E-04    3.46      31.4  T
     SCC iter.                  ...        0 min,  0.183 sec
     gradient                   ...        0 min,  0.157 sec
 * total energy  :  -147.0342132 Eh     change       -0.5206629E-03 Eh
   gradient norm :     0.0076710 Eh/α   predicted    -0.4538921E-03 ( -12.82%)
   displ. norm   :     0.5461428 α      lambda       -0.6051066E-03
   maximum displ.:     0.2681705 α      in ANC's #10, #4, #11, ...

........................................................................
.............................. CYCLE   12 ..............................
........................................................................
   1   -148.8265350 -0.148827E+03  0.951E-02    3.47       0.0  T
   2   -148.8265512 -0.161729E-04  0.572E-02    3.47       1.0  T
   3   -148.8265031  0.480557E-04  0.337E-02    3.48       1.0  T
   4   -148.8265661 -0.629784E-04  0.421E-03    3.48       2.8  T
   5   -148.8265671 -0.101899E-05  0.137E-03    3.48       8.6  T
   6   -148.8265672 -0.322864E-07  0.792E-04    3.48      14.9  T
   7   -148.8265672 -0.107051E-07  0.368E-04    3.48      32.0  T
     SCC iter.                  ...        0 min,  0.185 sec
     gradient                   ...        0 min,  0.144 sec
 * total energy  :  -147.0346124 Eh     change       -0.3992422E-03 Eh
   gradient norm :     0.0126026 Eh/α   predicted    -0.3927968E-03 (  -1.61%)
   displ. norm   :     0.5766665 α      lambda       -0.5564950E-03
   maximum displ.:     0.2758282 α      in ANC's #10, #4, #13, ...

........................................................................
.............................. CYCLE   13 ..............................
........................................................................
   1   -148.8219011 -0.148822E+03  0.976E-02    3.46       0.0  T
   2   -148.8219305 -0.294444E-04  0.587E-02    3.45       1.0  T
   3   -148.8218888  0.417084E-04  0.340E-02    3.46       1.0  T
   4   -148.8219470 -0.581268E-04  0.580E-03    3.46       2.0  T
   5   -148.8219491 -0.208636E-05  0.176E-03    3.46       6.7  T
   6   -148.8219491 -0.706235E-07  0.977E-04    3.46      12.1  T
   7   -148.8219491 -0.218868E-07  0.473E-04    3.46      24.9  T
     SCC iter.                  ...        0 min,  0.186 sec
     gradient                   ...        0 min,  0.146 sec
 * total energy  :  -147.0349232 Eh     change       -0.3107329E-03 Eh
   gradient norm :     0.0154456 Eh/α   predicted    -0.3707794E-03 (  19.32%)
   displ. norm   :     0.3226847 α      lambda       -0.5149789E-03
   maximum displ.:     0.1803734 α      in ANC's #10, #4, #11, ...

........................................................................
.............................. CYCLE   14 ..............................
........................................................................
   1   -148.8259337 -0.148826E+03  0.505E-02    3.44       0.0  T
   2   -148.8259604 -0.266344E-04  0.303E-02    3.45       1.0  T
   3   -148.8259583  0.205515E-05  0.166E-02    3.45       1.0  T
   4   -148.8259634 -0.505447E-05  0.595E-03    3.45       2.0  T
   5   -148.8259656 -0.227806E-05  0.130E-03    3.45       9.0  T
   6   -148.8259657 -0.702586E-07  0.617E-04    3.45      19.1  T
   7   -148.8259657 -0.924143E-08  0.303E-04    3.45      38.9  T
     SCC iter.                  ...        0 min,  0.182 sec
     gradient                   ...        0 min,  0.140 sec
 * total energy  :  -147.0351990 Eh     change       -0.2758448E-03 Eh
   gradient norm :     0.0096765 Eh/α   predicted    -0.2843019E-03 (   3.07%)
   displ. norm   :     0.2748676 α      lambda       -0.2940533E-03
   maximum displ.:     0.1513012 α      in ANC's #10, #4, #11, ...

........................................................................
.............................. CYCLE   15 ..............................
........................................................................
   1   -148.8273325 -0.148827E+03  0.433E-02    3.43       0.0  T
   2   -148.8273383 -0.578086E-05  0.256E-02    3.43       1.0  T
   3   -148.8273282  0.100523E-04  0.162E-02    3.43       1.0  T
   4   -148.8273426 -0.144162E-04  0.265E-03    3.43       4.4  T
   5   -148.8273431 -0.430303E-06  0.816E-04    3.43      14.4  T
   6   -148.8273431 -0.836846E-08  0.469E-04    3.43      25.1  T
     SCC iter.                  ...        0 min,  0.156 sec
     gradient                   ...        0 min,  0.133 sec
 * total energy  :  -147.0354210 Eh     change       -0.2219916E-03 Eh
   gradient norm :     0.0048792 Eh/α   predicted    -0.1581391E-03 ( -28.76%)
   displ. norm   :     0.2891472 α      lambda       -0.2365582E-03
   maximum displ.:     0.1607992 α      in ANC's #4, #10, #11, ...

........................................................................
.............................. CYCLE   16 ..............................
........................................................................
   1   -148.8288200 -0.148829E+03  0.464E-02    3.43       0.0  T
   2   -148.8288261 -0.610232E-05  0.274E-02    3.42       1.0  T
   3   -148.8288141  0.119755E-04  0.181E-02    3.42       1.0  T
   4   -148.8288318 -0.177176E-04  0.253E-03    3.42       4.7  T
   5   -148.8288322 -0.366625E-06  0.872E-04    3.42      13.5  T
   6   -148.8288322 -0.135936E-07  0.487E-04    3.42      24.2  T
     SCC iter.                  ...        0 min,  0.158 sec
     gradient                   ...        0 min,  0.133 sec
 * total energy  :  -147.0355929 Eh     change       -0.1719388E-03 Eh
   gradient norm :     0.0048341 Eh/α   predicted    -0.1281683E-03 ( -25.46%)
   displ. norm   :     0.3073373 α      lambda       -0.1923357E-03
   maximum displ.:     0.1759097 α      in ANC's #4, #10, #11, ...

........................................................................
.............................. CYCLE   17 ..............................
........................................................................
   1   -148.8254786 -0.148825E+03  0.445E-02    3.41       0.0  T
   2   -148.8254864 -0.777007E-05  0.266E-02    3.41       1.0  T
   3   -148.8254770  0.939837E-05  0.179E-02    3.41       1.0  T
   4   -148.8254932 -0.162951E-04  0.296E-03    3.41       4.0  T
   5   -148.8254937 -0.436266E-06  0.940E-04    3.41      12.5  T
   6   -148.8254937 -0.103651E-07  0.514E-04    3.41      22.9  T
     SCC iter.                  ...        0 min,  0.156 sec
     gradient                   ...        0 min,  0.147 sec
 * total energy  :  -147.0357086 Eh     change       -0.1156485E-03 Eh
   gradient norm :     0.0064462 Eh/α   predicted    -0.1052537E-03 (  -8.99%)
   displ. norm   :     0.2907296 α      lambda       -0.1958451E-03
   maximum displ.:     0.1477561 α      in ANC's #4, #7, #5, ...

........................................................................
.............................. CYCLE   18 ..............................
........................................................................
   1   -148.8267558 -0.148827E+03  0.521E-02    3.42       0.0  T
   2   -148.8267632 -0.741620E-05  0.312E-02    3.41       1.0  T
   3   -148.8267488  0.143886E-04  0.191E-02    3.41       1.0  T
   4   -148.8267687 -0.198574E-04  0.303E-03    3.41       3.9  T
   5   -148.8267693 -0.562407E-06  0.792E-04    3.41      14.9  T
   6   -148.8267693 -0.139150E-07  0.457E-04    3.41      25.8  T
     SCC iter.                  ...        0 min,  0.156 sec
     gradient                   ...        0 min,  0.143 sec
 * total energy  :  -147.0358401 Eh     change       -0.1315134E-03 Eh
   gradient norm :     0.0058647 Eh/α   predicted    -0.1062037E-03 ( -19.24%)
   displ. norm   :     0.2907354 α      lambda        0.8029179E-05
   maximum displ.:     0.1477581 α      in ANC's #4, #7, #5, ...

........................................................................
.............................. CYCLE   19 ..............................
........................................................................
   1   -148.8271164 -0.148827E+03  0.521E-02    3.41       0.0  T
   2   -148.8271240 -0.756484E-05  0.312E-02    3.41       1.0  T
   3   -148.8271097  0.143119E-04  0.190E-02    3.41       1.0  T
   4   -148.8271295 -0.197587E-04  0.307E-03    3.41       3.8  T
   5   -148.8271300 -0.582538E-06  0.793E-04    3.41      14.9  T
   6   -148.8271301 -0.140348E-07  0.455E-04    3.41      25.9  T
     SCC iter.                  ...        0 min,  0.156 sec
     gradient                   ...        0 min,  0.148 sec
 * total energy  :  -147.0358447 Eh     change       -0.4601349E-05 Eh
   gradient norm :     0.0117731 Eh/α   predicted     0.4349221E-05 (-194.52%)
   displ. norm   :     0.0741294 α      lambda       -0.1687387E-03
   maximum displ.:     0.0322353 α      in ANC's #14, #3, #18, ...

........................................................................
.............................. CYCLE   20 ..............................
........................................................................
   1   -148.8262644 -0.148826E+03  0.189E-02    3.40       0.0  T
   2   -148.8262672 -0.277747E-05  0.112E-02    3.41       1.1  T
   3   -148.8262667  0.538136E-06  0.622E-03    3.41       1.9  T
   4   -148.8262677 -0.104735E-05  0.193E-03    3.41       6.1  T
   5   -148.8262679 -0.196984E-06  0.387E-04    3.41      30.5  T
   6   -148.8262679 -0.430046E-08  0.210E-04    3.41      56.2  T
     SCC iter.                  ...        0 min,  0.157 sec
     gradient                   ...        0 min,  0.137 sec
 * total energy  :  -147.0359769 Eh     change       -0.1322196E-03 Eh
   gradient norm :     0.0058736 Eh/α   predicted    -0.8483473E-04 ( -35.84%)
   displ. norm   :     0.2380040 α      lambda       -0.2364153E-03
   maximum displ.:     0.0969316 α      in ANC's #4, #7, #3, ...
 * RMSD in coord.:     0.6688635 α      energy gain  -0.3080633E-01 Eh

generating ANC from model Hessian ...
Using Lindh-Hessian (1995)
 Shifting diagonal of input Hessian by    9.9235773389054465E-003
 Lowest  eigenvalues of input Hessian
    0.000000    0.000000    0.000000    0.000000    0.000000    0.000000
    0.010000    0.010225    0.010329    0.010570    0.010670    0.010707
    0.010890    0.011032    0.011229    0.011307    0.011653    0.011997
 Highest eigenvalues
    2.048435    2.154593    2.159471    2.347068    2.353816    2.374442


........................................................................
.............................. CYCLE   21 ..............................
........................................................................
   1   -148.8243069 -0.148824E+03  0.436E-02    3.41       0.0  T
   2   -148.8243150 -0.816222E-05  0.261E-02    3.42       1.0  T
   3   -148.8243087  0.627290E-05  0.147E-02    3.42       1.0  T
   4   -148.8243183 -0.956446E-05  0.330E-03    3.42       3.6  T
   5   -148.8243189 -0.603645E-06  0.755E-04    3.42      15.6  T
   6   -148.8243189 -0.128718E-07  0.432E-04    3.42      27.3  T
     SCC iter.                  ...        0 min,  0.157 sec
     gradient                   ...        0 min,  0.140 sec
 * total energy  :  -147.0361351 Eh     change       -0.1582109E-03 Eh
   gradient norm :     0.0047545 Eh/α   predicted     0.0000000E+00 (-100.00%)
   displ. norm   :     0.0525748 α      lambda       -0.5913069E-04
   maximum displ.:     0.0243038 α      in ANC's #3, #5, #18, ...

........................................................................
.............................. CYCLE   22 ..............................
........................................................................
   1   -148.8257050 -0.148826E+03  0.129E-02    3.42       0.0  T
   2   -148.8257059 -0.879081E-06  0.766E-03    3.42       1.5  T
   3   -148.8257055  0.404224E-06  0.387E-03    3.42       3.0  T
   4   -148.8257061 -0.598285E-06  0.116E-03    3.42      10.1  T
   5   -148.8257062 -0.916047E-07  0.266E-04    3.42      44.3  T
   6   -148.8257062 -0.188766E-08  0.144E-04    3.42      82.0  T
     SCC iter.                  ...        0 min,  0.157 sec
     gradient                   ...        0 min,  0.145 sec
 * total energy  :  -147.0361848 Eh     change       -0.4967417E-04 Eh
   gradient norm :     0.0021751 Eh/α   predicted    -0.2966980E-04 ( -40.27%)
   displ. norm   :     0.1888325 α      lambda       -0.1386454E-03
   maximum displ.:     0.0877444 α      in ANC's #3, #5, #18, ...

........................................................................
.............................. CYCLE   23 ..............................
........................................................................
   1   -148.8277501 -0.148828E+03  0.430E-02    3.43       0.0  T
   2   -148.8277557 -0.561288E-05  0.255E-02    3.42       1.0  T
   3   -148.8277484  0.728447E-05  0.131E-02    3.42       1.0  T
   4   -148.8277580 -0.960667E-05  0.282E-03    3.42       4.2  T
   5   -148.8277585 -0.494902E-06  0.735E-04    3.42      16.0  T
   6   -148.8277585 -0.117612E-07  0.423E-04    3.42      27.8  T
     SCC iter.                  ...        0 min,  0.156 sec
     gradient                   ...        0 min,  0.127 sec
 * total energy  :  -147.0362814 Eh     change       -0.9658743E-04 Eh
   gradient norm :     0.0040154 Eh/α   predicted    -0.7187601E-04 ( -25.58%)
   displ. norm   :     0.1994467 α      lambda       -0.8823977E-04
   maximum displ.:     0.0963110 α      in ANC's #3, #5, #4, ...

........................................................................
.............................. CYCLE   24 ..............................
........................................................................
   1   -148.8279565 -0.148828E+03  0.432E-02    3.43       0.0  T
   2   -148.8279588 -0.226398E-05  0.256E-02    3.43       1.0  T
   3   -148.8279499  0.887500E-05  0.124E-02    3.43       1.0  T
   4   -148.8279606 -0.106841E-04  0.151E-03    3.43       7.8  T
   5   -148.8279607 -0.103092E-06  0.606E-04    3.43      19.4  T
   6   -148.8279607 -0.473369E-08  0.350E-04    3.43      33.7  T
     SCC iter.                  ...        0 min,  0.157 sec
     gradient                   ...        0 min,  0.128 sec
 * total energy  :  -147.0363532 Eh     change       -0.7181508E-04 Eh
   gradient norm :     0.0059590 Eh/α   predicted    -0.4588382E-04 ( -36.11%)
   displ. norm   :     0.3138881 α      lambda       -0.1308647E-03
   maximum displ.:     0.1541850 α      in ANC's #3, #5, #4, ...

........................................................................
.............................. CYCLE   25 ..............................
........................................................................
   1   -148.8269141 -0.148827E+03  0.664E-02    3.44       0.0  T
   2   -148.8269175 -0.344162E-05  0.394E-02    3.45       1.0  T
   3   -148.8268983  0.192180E-04  0.179E-02    3.45       1.0  T
   4   -148.8269209 -0.226326E-04  0.170E-03    3.45       6.9  T
   5   -148.8269210 -0.947564E-07  0.822E-04    3.45      14.3  T
   6   -148.8269210 -0.656482E-08  0.416E-04    3.45      28.3  T
     SCC iter.                  ...        0 min,  0.156 sec
     gradient                   ...        0 min,  0.149 sec
 * total energy  :  -147.0364589 Eh     change       -0.1057212E-03 Eh
   gradient norm :     0.0058048 Eh/α   predicted    -0.7188002E-04 ( -32.01%)
   displ. norm   :     0.3652577 α      lambda       -0.1418447E-03
   maximum displ.:     0.1859130 α      in ANC's #3, #5, #2, ...

........................................................................
.............................. CYCLE   26 ..............................
........................................................................
   1   -148.8253357 -0.148825E+03  0.755E-02    3.45       0.0  T
   2   -148.8253407 -0.500939E-05  0.447E-02    3.46       1.0  T
   3   -148.8253167  0.239494E-04  0.203E-02    3.46       1.0  T
   4   -148.8253449 -0.281720E-04  0.214E-03    3.46       5.5  T
   5   -148.8253451 -0.183321E-06  0.904E-04    3.46      13.0  T
   6   -148.8253451 -0.721806E-08  0.516E-04    3.46      22.8  T
     SCC iter.                  ...        0 min,  0.160 sec
     gradient                   ...        0 min,  0.142 sec
 * total energy  :  -147.0365697 Eh     change       -0.1107297E-03 Eh
   gradient norm :     0.0038415 Eh/α   predicted    -0.8039035E-04 ( -27.40%)
   displ. norm   :     0.3264539 α      lambda       -0.1213153E-03
   maximum displ.:     0.1732968 α      in ANC's #3, #2, #4, ...

........................................................................
.............................. CYCLE   27 ..............................
........................................................................
   1   -148.8248753 -0.148825E+03  0.658E-02    3.46       0.0  T
   2   -148.8248799 -0.458332E-05  0.390E-02    3.46       1.0  T
   3   -148.8248581  0.217817E-04  0.194E-02    3.46       1.0  T
   4   -148.8248839 -0.257731E-04  0.224E-03    3.46       5.3  T
   5   -148.8248842 -0.254989E-06  0.803E-04    3.46      14.7  T
   6   -148.8248842 -0.833484E-08  0.479E-04    3.46      24.6  T
     SCC iter.                  ...        0 min,  0.156 sec
     gradient                   ...        0 min,  0.142 sec
 * total energy  :  -147.0366648 Eh     change       -0.9511258E-04 Eh
   gradient norm :     0.0028682 Eh/α   predicted    -0.6715535E-04 ( -29.39%)
   displ. norm   :     0.3012587 α      lambda       -0.1069676E-03
   maximum displ.:     0.1645409 α      in ANC's #3, #2, #4, ...

........................................................................
.............................. CYCLE   28 ..............................
........................................................................
   1   -148.8254271 -0.148825E+03  0.596E-02    3.47       0.0  T
   2   -148.8254304 -0.328526E-05  0.353E-02    3.47       1.0  T
   3   -148.8254085  0.219707E-04  0.191E-02    3.47       1.0  T
   4   -148.8254346 -0.261010E-04  0.186E-03    3.47       6.4  T
   5   -148.8254347 -0.176174E-06  0.720E-04    3.47      16.4  T
   6   -148.8254347 -0.835149E-08  0.408E-04    3.47      28.9  T
     SCC iter.                  ...        0 min,  0.165 sec
     gradient                   ...        0 min,  0.136 sec
 * total energy  :  -147.0367495 Eh     change       -0.8473669E-04 Eh
   gradient norm :     0.0041500 Eh/α   predicted    -0.5834064E-04 ( -31.15%)
   displ. norm   :     0.2992791 α      lambda       -0.9775216E-04
   maximum displ.:     0.1674182 α      in ANC's #3, #2, #8, ...

........................................................................
.............................. CYCLE   29 ..............................
........................................................................
   1   -148.8261341 -0.148826E+03  0.584E-02    3.47       0.0  T
   2   -148.8261369 -0.285697E-05  0.346E-02    3.47       1.0  T
   3   -148.8261148  0.221589E-04  0.189E-02    3.47       1.0  T
   4   -148.8261411 -0.262782E-04  0.171E-03    3.47       6.9  T
   5   -148.8261412 -0.159810E-06  0.694E-04    3.47      17.0  T
   6   -148.8261412 -0.688078E-08  0.378E-04    3.47      31.2  T
     SCC iter.                  ...        0 min,  0.157 sec
     gradient                   ...        0 min,  0.138 sec
 * total energy  :  -147.0368268 Eh     change       -0.7726690E-04 Eh
   gradient norm :     0.0042935 Eh/α   predicted    -0.5327392E-04 ( -31.05%)
   displ. norm   :     0.2688531 α      lambda       -0.8157705E-04
   maximum displ.:     0.1560296 α      in ANC's #3, #2, #8, ...

........................................................................
.............................. CYCLE   30 ..............................
........................................................................
   1   -148.8268113 -0.148827E+03  0.522E-02    3.47       0.0  T
   2   -148.8268147 -0.334960E-05  0.308E-02    3.46       1.0  T
   3   -148.8267991  0.156212E-04  0.162E-02    3.47       1.0  T
   4   -148.8268178 -0.187324E-04  0.194E-03    3.47       6.1  T
   5   -148.8268180 -0.218903E-06  0.674E-04    3.47      17.5  T
   6   -148.8268180 -0.103692E-07  0.386E-04    3.47      30.6  T
     SCC iter.                  ...        0 min,  0.161 sec
     gradient                   ...        0 min,  0.135 sec
 * total energy  :  -147.0368898 Eh     change       -0.6303166E-04 Eh
   gradient norm :     0.0030666 Eh/α   predicted    -0.4373727E-04 ( -30.61%)
   displ. norm   :     0.2142387 α      lambda       -0.5912487E-04
   maximum displ.:     0.1305627 α      in ANC's #3, #2, #8, ...

........................................................................
.............................. CYCLE   31 ..............................
........................................................................
   1   -148.8272626 -0.148827E+03  0.415E-02    3.46       0.0  T
   2   -148.8272656 -0.295709E-05  0.244E-02    3.46       1.0  T
   3   -148.8272578  0.775005E-05  0.118E-02    3.46       1.0  T
   4   -148.8272671 -0.933580E-05  0.193E-03    3.46       6.1  T
   5   -148.8272674 -0.230659E-06  0.590E-04    3.46      20.0  T
   6   -148.8272674 -0.994476E-08  0.329E-04    3.46      35.8  T
     SCC iter.                  ...        0 min,  0.156 sec
     gradient                   ...        0 min,  0.136 sec
 * total energy  :  -147.0369356 Eh     change       -0.4578160E-04 Eh
   gradient norm :     0.0020499 Eh/α   predicted    -0.3092036E-04 ( -32.46%)
   displ. norm   :     0.1700811 α      lambda       -0.4580004E-04
   maximum displ.:     0.1080871 α      in ANC's #3, #2, #7, ...

........................................................................
.............................. CYCLE   32 ..............................
........................................................................
   1   -148.8273137 -0.148827E+03  0.325E-02    3.45       0.0  T
   2   -148.8273151 -0.145716E-05  0.191E-02    3.45       1.0  T
   3   -148.8273112  0.394966E-05  0.802E-03    3.45       1.5  T
   4   -148.8273158 -0.467116E-05  0.134E-03    3.45       8.8  T
   5   -148.8273159 -0.102197E-06  0.479E-04    3.45      24.6  T
   6   -148.8273160 -0.528908E-08  0.262E-04    3.45      45.1  T
     SCC iter.                  ...        0 min,  0.157 sec
     gradient                   ...        0 min,  0.136 sec
 * total energy  :  -147.0369716 Eh     change       -0.3606197E-04 Eh
   gradient norm :     0.0022029 Eh/α   predicted    -0.2358140E-04 ( -34.61%)
   displ. norm   :     0.1561480 α      lambda       -0.4202389E-04
   maximum displ.:     0.1006276 α      in ANC's #3, #7, #2, ...

........................................................................
.............................. CYCLE   33 ..............................
........................................................................
   1   -148.8272768 -0.148827E+03  0.290E-02    3.45       0.0  T
   2   -148.8272776 -0.845077E-06  0.170E-02    3.45       1.0  T
   3   -148.8272754  0.221151E-05  0.573E-03    3.45       2.1  T
   4   -148.8272780 -0.258437E-05  0.965E-04    3.45      12.2  T
   5   -148.8272780 -0.416402E-07  0.424E-04    3.45      27.8  T
   6   -148.8272780 -0.500972E-08  0.215E-04    3.45      54.8  T
     SCC iter.                  ...        0 min,  0.157 sec
     gradient                   ...        0 min,  0.150 sec
 * total energy  :  -147.0370041 Eh     change       -0.3243753E-04 Eh
   gradient norm :     0.0027254 Eh/α   predicted    -0.2153767E-04 ( -33.60%)
   displ. norm   :     0.1459396 α      lambda       -0.3586911E-04
   maximum displ.:     0.0943737 α      in ANC's #3, #7, #2, ...

........................................................................
.............................. CYCLE   34 ..............................
........................................................................
   1   -148.8267926 -0.148827E+03  0.253E-02    3.44       0.0  T
   2   -148.8267931 -0.540035E-06  0.149E-02    3.44       1.0  T
   3   -148.8267919  0.122439E-05  0.422E-03    3.44       2.8  T
   4   -148.8267933 -0.143238E-05  0.778E-04    3.44      15.1  T
   5   -148.8267933 -0.262839E-07  0.344E-04    3.44      34.3  T
   6   -148.8267933 -0.274423E-08  0.182E-04    3.44      64.6  T
     SCC iter.                  ...        0 min,  0.156 sec
     gradient                   ...        0 min,  0.143 sec
 * total energy  :  -147.0370317 Eh     change       -0.2760629E-04 Eh
   gradient norm :     0.0022323 Eh/α   predicted    -0.1831927E-04 ( -33.64%)
   displ. norm   :     0.1283035 α      lambda       -0.2868911E-04
   maximum displ.:     0.0830732 α      in ANC's #3, #7, #2, ...

........................................................................
.............................. CYCLE   35 ..............................
........................................................................
   1   -148.8266368 -0.148827E+03  0.206E-02    3.44       0.0  T
   2   -148.8266372 -0.482106E-06  0.121E-02    3.45       1.0  T
   3   -148.8266366  0.601828E-06  0.322E-03    3.44       3.7  T
   4   -148.8266374 -0.727518E-06  0.682E-04    3.45      17.3  T
   5   -148.8266374 -0.271817E-07  0.259E-04    3.45      45.4  T
     SCC iter.                  ...        0 min,  0.134 sec
     gradient                   ...        0 min,  0.143 sec
 * total energy  :  -147.0370548 Eh     change       -0.2308730E-04 Eh
   gradient norm :     0.0016692 Eh/α   predicted    -0.1458211E-04 ( -36.84%)
   displ. norm   :     0.1851104 α      lambda       -0.2717967E-04
   maximum displ.:     0.1216906 α      in ANC's #3, #7, #2, ...

........................................................................
.............................. CYCLE   36 ..............................
........................................................................
   1   -148.8263816 -0.148826E+03  0.276E-02    3.45       0.0  T
   2   -148.8263828 -0.120208E-05  0.161E-02    3.45       1.0  T
   3   -148.8263816  0.120592E-05  0.483E-03    3.45       2.4  T
   4   -148.8263831 -0.149275E-05  0.102E-03    3.45      11.6  T
   5   -148.8263831 -0.653537E-07  0.370E-04    3.45      31.8  T
   6   -148.8263831 -0.124240E-08  0.217E-04    3.45      54.4  T
     SCC iter.                  ...        0 min,  0.169 sec
     gradient                   ...        0 min,  0.146 sec
 * total energy  :  -147.0370850 Eh     change       -0.3019963E-04 Eh
   gradient norm :     0.0020635 Eh/α   predicted    -0.1379852E-04 ( -54.31%)
   displ. norm   :     0.0968911 α      lambda       -0.2091779E-04
   maximum displ.:     0.0661443 α      in ANC's #3, #7, #2, ...

........................................................................
.............................. CYCLE   37 ..............................
........................................................................
   1   -148.8265540 -0.148827E+03  0.141E-02    3.45       0.0  T
   2   -148.8265541 -0.142212E-06  0.827E-03    3.45       1.4  T
   3   -148.8265537  0.443740E-06  0.255E-03    3.45       4.6  T
   4   -148.8265542 -0.532081E-06  0.380E-04    3.45      31.0  T
   5   -148.8265542 -0.240408E-08  0.219E-04    3.45      53.7  T
     SCC iter.                  ...        0 min,  0.135 sec
     gradient                   ...        0 min,  0.164 sec
 * total energy  :  -147.0371038 Eh     change       -0.1880067E-04 Eh
   gradient norm :     0.0020373 Eh/α   predicted    -0.1056132E-04 ( -43.82%)
   displ. norm   :     0.1567366 α      lambda       -0.3571901E-04
   maximum displ.:     0.1052879 α      in ANC's #3, #7, #2, ...

........................................................................
.............................. CYCLE   38 ..............................
........................................................................
   1   -148.8268350 -0.148827E+03  0.236E-02    3.46       0.0  T
   2   -148.8268355 -0.453504E-06  0.138E-02    3.45       1.0  T
   3   -148.8268340  0.148932E-05  0.476E-03    3.45       2.5  T
   4   -148.8268358 -0.178365E-05  0.690E-04    3.45      17.1  T
   5   -148.8268358 -0.102407E-07  0.390E-04    3.45      30.2  T
   6   -148.8268358 -0.333549E-08  0.171E-04    3.45      69.1  T
     SCC iter.                  ...        0 min,  0.161 sec
     gradient                   ...        0 min,  0.130 sec
 * total energy  :  -147.0371330 Eh     change       -0.2923408E-04 Eh
   gradient norm :     0.0017677 Eh/α   predicted    -0.1829988E-04 ( -37.40%)
   displ. norm   :     0.2704386 α      lambda       -0.3120051E-04
   maximum displ.:     0.1836073 α      in ANC's #3, #7, #2, ...

........................................................................
.............................. CYCLE   39 ..............................
........................................................................
   1   -148.8268902 -0.148827E+03  0.410E-02    3.46       0.0  T
   2   -148.8268916 -0.139604E-05  0.241E-02    3.46       1.0  T
   3   -148.8268873  0.428689E-05  0.818E-03    3.46       1.4  T
   4   -148.8268924 -0.512062E-05  0.120E-03    3.46       9.8  T
   5   -148.8268925 -0.450136E-07  0.629E-04    3.46      18.7  T
   6   -148.8268925 -0.483496E-08  0.319E-04    3.46      37.0  T
     SCC iter.                  ...        0 min,  0.161 sec
     gradient                   ...        0 min,  0.164 sec
 * total energy  :  -147.0371648 Eh     change       -0.3174901E-04 Eh
   gradient norm :     0.0018407 Eh/α   predicted    -0.1610887E-04 ( -49.26%)
   displ. norm   :     0.1368950 α      lambda       -0.1345393E-04
   maximum displ.:     0.0974166 α      in ANC's #3, #7, #2, ...

........................................................................
.............................. CYCLE   40 ..............................
........................................................................
   1   -148.8271184 -0.148827E+03  0.215E-02    3.46       0.0  T
   2   -148.8271187 -0.301023E-06  0.127E-02    3.46       1.0  T
   3   -148.8271178  0.909542E-06  0.363E-03    3.46       3.2  T
   4   -148.8271188 -0.108282E-05  0.526E-04    3.46      22.4  T
   5   -148.8271189 -0.768395E-08  0.284E-04    3.46      41.5  T
   6   -148.8271189 -0.619139E-09  0.137E-04    3.46      86.1  T
     SCC iter.                  ...        0 min,  0.156 sec
     gradient                   ...        0 min,  0.146 sec
 * total energy  :  -147.0371822 Eh     change       -0.1746597E-04 Eh
   gradient norm :     0.0013562 Eh/α   predicted    -0.6784947E-05 ( -61.15%)
   displ. norm   :     0.1526712 α      lambda       -0.1791916E-04
   maximum displ.:     0.1112378 α      in ANC's #3, #2, #7, ...

........................................................................
.............................. CYCLE   41 ..............................
........................................................................
   1   -148.8270360 -0.148827E+03  0.268E-02    3.45       0.0  T
   2   -148.8270365 -0.443054E-06  0.158E-02    3.45       1.0  T
   3   -148.8270348  0.170708E-05  0.490E-03    3.45       2.4  T
   4   -148.8270367 -0.197949E-05  0.699E-04    3.45      16.9  T
   5   -148.8270368 -0.172130E-07  0.348E-04    3.45      33.9  T
   6   -148.8270368 -0.222070E-08  0.165E-04    3.45      71.6  T
     SCC iter.                  ...        0 min,  0.157 sec
     gradient                   ...        0 min,  0.135 sec
 * total energy  :  -147.0372036 Eh     change       -0.2138520E-04 Eh
   gradient norm :     0.0007378 Eh/α   predicted    -0.9054525E-05 ( -57.66%)
   displ. norm   :     0.1578351 α      lambda       -0.1427989E-04
   maximum displ.:     0.1160858 α      in ANC's #3, #1, #12, ...

........................................................................
.............................. CYCLE   42 ..............................
........................................................................
   1   -148.8271700 -0.148827E+03  0.280E-02    3.45       0.0  T
   2   -148.8271705 -0.407063E-06  0.165E-02    3.45       1.0  T
   3   -148.8271680  0.246793E-05  0.586E-03    3.45       2.0  T
   4   -148.8271708 -0.283176E-05  0.670E-04    3.45      17.6  T
   5   -148.8271708 -0.164035E-07  0.342E-04    3.45      34.4  T
   6   -148.8271708 -0.216036E-08  0.157E-04    3.45      74.9  T
     SCC iter.                  ...        0 min,  0.161 sec
     gradient                   ...        0 min,  0.136 sec
 * total energy  :  -147.0372197 Eh     change       -0.1612914E-04 Eh
   gradient norm :     0.0010168 Eh/α   predicted    -0.7222013E-05 ( -55.22%)
   displ. norm   :     0.1516527 α      lambda       -0.1064329E-04
   maximum displ.:     0.1117945 α      in ANC's #3, #1, #12, ...
 * RMSD in coord.:     0.4309674 α      energy gain  -0.1242825E-02 Eh

generating ANC from model Hessian ...
Using Lindh-Hessian (1995)
 Shifting diagonal of input Hessian by    9.9206251680993632E-003
 Lowest  eigenvalues of input Hessian
    0.000000    0.000000    0.000000    0.000000    0.000000    0.000000
    0.010000    0.010234    0.010360    0.010586    0.010658    0.010713
    0.010882    0.011080    0.011192    0.011361    0.011759    0.012031
 Highest eigenvalues
    2.051070    2.158699    2.159596    2.344814    2.357003    2.368293


........................................................................
.............................. CYCLE   43 ..............................
........................................................................
   1   -148.8267644 -0.148827E+03  0.276E-02    3.45       0.0  T
   2   -148.8267648 -0.355701E-06  0.163E-02    3.45       1.0  T
   3   -148.8267621  0.266518E-05  0.618E-03    3.45       1.9  T
   4   -148.8267652 -0.304871E-05  0.590E-04    3.45      20.0  T
   5   -148.8267652 -0.127408E-07  0.301E-04    3.45      39.2  T
   6   -148.8267652 -0.116262E-08  0.147E-04    3.45      79.9  T
     SCC iter.                  ...        0 min,  0.154 sec
     gradient                   ...        0 min,  0.127 sec
 * total energy  :  -147.0372320 Eh     change       -0.1230791E-04 Eh
   gradient norm :     0.0013583 Eh/α   predicted     0.0000000E+00 (-100.00%)
   displ. norm   :     0.0222886 α      lambda       -0.5116163E-05
   maximum displ.:     0.0131550 α      in ANC's #3, #7, #1, ...

........................................................................
.............................. CYCLE   44 ..............................
........................................................................
   1   -148.8272158 -0.148827E+03  0.511E-03    3.45       0.0  T
   2   -148.8272159 -0.654215E-07  0.306E-03    3.45       3.9  T
   3   -148.8272158  0.572204E-07  0.112E-03    3.45      10.6  T
   4   -148.8272159 -0.757332E-07  0.226E-04    3.45      52.3  T
   5   -148.8272159 -0.192802E-08  0.103E-04    3.45     114.2  T
     SCC iter.                  ...        0 min,  0.133 sec
     gradient                   ...        0 min,  0.125 sec
 * total energy  :  -147.0372377 Eh     change       -0.5611220E-05 Eh
   gradient norm :     0.0005782 Eh/α   predicted    -0.2559616E-05 ( -54.38%)
   displ. norm   :     0.0500179 α      lambda       -0.6187760E-05
   maximum displ.:     0.0308788 α      in ANC's #3, #7, #2, ...

........................................................................
.............................. CYCLE   45 ..............................
........................................................................
   1   -148.8274014 -0.148827E+03  0.895E-03    3.46       0.0  T
   2   -148.8274015 -0.148507E-06  0.529E-03    3.45       2.2  T
   3   -148.8274013  0.166339E-06  0.174E-03    3.46       6.8  T
   4   -148.8274015 -0.207518E-06  0.386E-04    3.45      30.5  T
   5   -148.8274016 -0.615807E-08  0.163E-04    3.45      72.5  T
     SCC iter.                  ...        0 min,  0.132 sec
     gradient                   ...        0 min,  0.135 sec
 * total energy  :  -147.0372441 Eh     change       -0.6481817E-05 Eh
   gradient norm :     0.0007980 Eh/α   predicted    -0.3104286E-05 ( -52.11%)
   displ. norm   :     0.0558203 α      lambda       -0.4272800E-05
   maximum displ.:     0.0355816 α      in ANC's #3, #2, #7, ...

........................................................................
.............................. CYCLE   46 ..............................
........................................................................
   1   -148.8272487 -0.148827E+03  0.918E-03    3.45       0.0  T
   2   -148.8272488 -0.796354E-07  0.538E-03    3.45       2.2  T
   3   -148.8272486  0.181571E-06  0.166E-03    3.45       7.1  T
   4   -148.8272488 -0.215770E-06  0.264E-04    3.45      44.6  T
   5   -148.8272488 -0.291303E-08  0.116E-04    3.45     102.0  T
     SCC iter.                  ...        0 min,  0.132 sec
     gradient                   ...        0 min,  0.136 sec
 * total energy  :  -147.0372493 Eh     change       -0.5194265E-05 Eh
   gradient norm :     0.0009749 Eh/α   predicted    -0.2140267E-05 ( -58.80%)
   displ. norm   :     0.0720856 α      lambda       -0.5247019E-05
   maximum displ.:     0.0456932 α      in ANC's #3, #2, #1, ...

........................................................................
.............................. CYCLE   47 ..............................
........................................................................
   1   -148.8271542 -0.148827E+03  0.114E-02    3.45       0.0  T
   2   -148.8271543 -0.886147E-07  0.671E-03    3.45       1.8  T
   3   -148.8271540  0.264341E-06  0.198E-03    3.45       5.9  T
   4   -148.8271543 -0.310136E-06  0.269E-04    3.45      43.9  T
   5   -148.8271543 -0.306164E-08  0.118E-04    3.45      99.6  T
     SCC iter.                  ...        0 min,  0.133 sec
     gradient                   ...        0 min,  0.125 sec
 * total energy  :  -147.0372560 Eh     change       -0.6657599E-05 Eh
   gradient norm :     0.0009252 Eh/α   predicted    -0.2629684E-05 ( -60.50%)
   displ. norm   :     0.1044329 α      lambda       -0.7411340E-05
   maximum displ.:     0.0659712 α      in ANC's #3, #2, #1, ...

........................................................................
.............................. CYCLE   48 ..............................
........................................................................
   1   -148.8270506 -0.148827E+03  0.169E-02    3.45       0.0  T
   2   -148.8270508 -0.182793E-06  0.995E-03    3.45       1.2  T
   3   -148.8270502  0.527251E-06  0.285E-03    3.45       4.1  T
   4   -148.8270508 -0.621066E-06  0.391E-04    3.45      30.2  T
   5   -148.8270509 -0.611527E-08  0.181E-04    3.45      65.3  T
     SCC iter.                  ...        0 min,  0.131 sec
     gradient                   ...        0 min,  0.127 sec
 * total energy  :  -147.0372646 Eh     change       -0.8597638E-05 Eh
   gradient norm :     0.0006652 Eh/α   predicted    -0.3725044E-05 ( -56.67%)
   displ. norm   :     0.1081306 α      lambda       -0.6589925E-05
   maximum displ.:     0.0693779 α      in ANC's #3, #2, #1, ...

........................................................................
.............................. CYCLE   49 ..............................
........................................................................
   1   -148.8270437 -0.148827E+03  0.171E-02    3.45       0.0  T
   2   -148.8270438 -0.142271E-06  0.100E-02    3.45       1.2  T
   3   -148.8270432  0.581511E-06  0.298E-03    3.45       4.0  T
   4   -148.8270439 -0.673949E-06  0.393E-04    3.45      30.0  T
   5   -148.8270439 -0.521268E-08  0.196E-04    3.45      60.1  T
     SCC iter.                  ...        0 min,  0.130 sec
     gradient                   ...        0 min,  0.123 sec
 * total energy  :  -147.0372718 Eh     change       -0.7181168E-05 Eh
   gradient norm :     0.0005559 Eh/α   predicted    -0.3315707E-05 ( -53.83%)
   displ. norm   :     0.0810949 α      lambda       -0.3892417E-05
   maximum displ.:     0.0534083 α      in ANC's #3, #2, #1, ...

........................................................................
.............................. CYCLE   50 ..............................
........................................................................
   1   -148.8272003 -0.148827E+03  0.125E-02    3.45       0.0  T
   2   -148.8272003 -0.765750E-07  0.733E-03    3.44       1.6  T
   3   -148.8272000  0.367412E-06  0.232E-03    3.45       5.1  T
   4   -148.8272004 -0.420710E-06  0.306E-04    3.45      38.5  T
   5   -148.8272004 -0.428710E-08  0.142E-04    3.45      83.1  T
     SCC iter.                  ...        0 min,  0.135 sec
     gradient                   ...        0 min,  0.139 sec
 * total energy  :  -147.0372766 Eh     change       -0.4817940E-05 Eh
   gradient norm :     0.0004660 Eh/α   predicted    -0.1952994E-05 ( -59.46%)
   displ. norm   :     0.0692621 α      lambda       -0.3423877E-05
   maximum displ.:     0.0462193 α      in ANC's #3, #1, #2, ...

   *** GEOMETRY OPTIMIZATION CONVERGED AFTER 50 ITERATIONS ***

------------------------------------------------------------------------
 total energy gain   :        -0.0321060 Eh      -20.1468 kcal/mol
 total RMSD          :         0.8537141 a0        0.4518 Å
 total power (kW/mol):        -1.6858860 (step)   -3.4897 (real)
------------------------------------------------------------------------

 ANCopt (total)                0 d,  0 h,  0 min, 24.156 sec
 optimizer setup                ...        0 min,  0.000 sec (  0.001%)
 model hessian                  ...        0 min,  0.135 sec (  0.557%)
 ANC generation                 ...        0 min,  0.041 sec (  0.169%)
 coordinate transformation      ...        0 min,  0.005 sec (  0.020%)
 single point calculation       ...        0 min, 23.289 sec ( 96.412%)
 optimization log               ...        0 min,  0.031 sec (  0.129%)
 hessian update                 ...        0 min,  0.546 sec (  2.261%)
 rational function              ...        0 min,  0.018 sec (  0.073%)

================
 final structure:
================
72
 xtb: 6.3.3 (4ae9cef)
C         1.98082007175767   -3.84512748905202   -0.08122353059055
C         1.73169964855356   -4.10209071505845   -1.54012715445192
F         0.40975326891006   -4.15802399942087   -1.83574594884404
F         2.24344008684878   -5.26126553523452   -1.96811867119463
F         2.23526411057245   -3.15588749103329   -2.35497049693229
C         2.69592445996697   -4.78781533588119    0.64699520746089
C         2.91973079831349   -4.59958273818337    1.99709772060106
C         2.42194008683289   -3.47197300800929    2.62601586653256
C         1.70869840811932   -2.53420137455501    1.90494651067326
C         1.48567728647472   -2.70034278213001    0.54277321988016
C         0.68758258846063   -1.65210249210112   -0.19073330510111
C        -0.78439697896850   -1.62476522228405    0.27017115842837
C        -1.70505363577820   -2.32773885088884   -0.69383742776956
C        -2.32030266783870   -3.54659108314902   -0.41012650675999
C        -2.08276146489257   -4.25289730249500    0.89631030340262
F        -2.46510424139875   -3.54940321708577    1.97400583006028
F        -2.72292684611771   -5.42634964721362    0.97877700430174
F        -0.77516971629817   -4.53946892405576    1.09305511494682
C        -3.15274529046123   -4.14732365016581   -1.34626566104177
C        -3.37797046632002   -3.54496861352896   -2.56909150399271
C        -2.76473769613996   -2.34050073379696   -2.86424440475716
C        -1.93622316487698   -1.74454063100800   -1.93394168025992
N        -1.09786255921399   -0.19973383243337    0.33035500021378
C        -2.35976213241185    0.19462645854287    0.67961988801742
C        -2.52048713360851    1.65285419313405    0.88404242174876
C        -3.01438701547566    2.24185342227100    2.00731357602000
O        -3.03662710677110    3.58345918919272    1.92156672469031
C        -2.57085432740343    3.90397082750069    0.69321375610112
C        -2.23590691600609    2.73348580173308   -0.02079737767189
C        -1.78834996845165    2.83488538781736   -1.33829918997114
C        -1.64849153981628    4.09297639014367   -1.88226352760536
C        -1.94509435066146    5.24296384481245   -1.14786325958797
C        -2.41976750693028    5.16952999361696    0.14591202328937
O        -3.26732772247623   -0.59665945694459    0.79252923453146
C         0.09255894362205    0.61382223408336    0.40411941770141
C         0.26815450368938    1.19769259235831    1.83407327017629
O         0.20700996369687    2.52658474590392    1.94641636979759
O         0.42492793961064    0.48924216597605    2.78313931041019
N         1.16391660843238   -0.30489226409059    0.10646927583421
C         2.49170816242783   -0.01038185665752    0.19530427817934
C         2.76784332697643    1.39798257115671    0.57662725076083
C         3.40783425757627    1.81305668611134    1.70337016849684
O         3.51195385900321    3.15194017295148    1.77603749715342
C         2.94746990994423    3.64898226362968    0.65273747175758
C         2.46730570945095    2.59733962751808   -0.15618407476888
C         1.88491188068188    2.88501812665910   -1.39057523851285
C         1.76795122936247    4.20736089498574   -1.75992652741632
C         2.21713504829291    5.23860108867124   -0.93254488131985
C         2.82132353598621    4.97919451046211    0.28099146380842
O         3.35789493117465   -0.82643552033111   -0.01709097467862
H         3.07490686853534   -5.66820085192627    0.15209687075171
H         3.47863090424388   -5.33485049802568    2.55453690931861
H         2.58609095546057   -3.32054338017957    3.68181057615723
H         1.32733267417487   -1.65417369163483    2.40219353625226
H         0.73594149614448   -1.79911429642769   -1.27485407455913
H        -0.86860741535699   -2.04334576023573    1.27821193319315
H        -3.62374956440389   -5.08931019514119   -1.11326905972826
H        -4.02794708963320   -4.01802760720289   -3.28822193818871
H        -2.93041183820966   -1.86587033403273   -3.81945953036397
H        -1.45981556381720   -0.80338075627009   -2.16579141011232
H        -3.35127701947149    1.80098018905480    2.92508633212113
H        -1.58966789544749    1.94992830066965   -1.92390416039302
H        -1.31591208818675    4.19552403452494   -2.90363769339163
H        -1.81803174929186    6.20880465820060   -1.61096996532847
H        -2.67833007898599    6.04951853661507    0.71121979082328
H         0.05105606690581    1.43101396767237   -0.33632850022570
H         0.08397458577274    2.99597880033276    1.10738804096163
H         3.80224957003738    1.24438666546158    2.52268760701239
H         1.56616783003679    2.09061648118310   -2.04864194076854
H         1.33196463003324    4.45629855531065   -2.71469198387917
H         2.10423085078471    6.26013846918637   -1.26009916053673
H         3.19307969425927    5.76727329041776    0.91462682912739

 Bond Distances (Angstroems)
 ---------------------------
C1-C2=1.5022         C1-C6=1.3894         C1-C10=1.3947        C2-C1=1.5022         C2-F3=1.3558         C2-F4=1.3374         
C2-F5=1.3464         F3-C2=1.3558         F4-C2=1.3374         F5-C2=1.3464         C6-C1=1.3894         C6-C7=1.3814         
C6-H51=1.0787        C7-C6=1.3814         C7-C8=1.3838         C7-H52=1.0788        C8-C7=1.3838         C8-C9=1.3813         
C8-H53=1.0792        C9-C8=1.3813         C9-C10=1.3903        C9-H54=1.0803        C10-C1=1.3947        C10-C9=1.3903        
C10-C11=1.5079       C11-C10=1.5079       C11-C12=1.5427       C11-N39=1.4595       C11-H55=1.0951       C12-C11=1.5427       
C12-C13=1.5070       C12-N23=1.4603       C12-H56=1.0947       C13-C12=1.5070       C13-C14=1.3945       C13-C22=1.3898       
C14-C13=1.3945       C14-C15=1.5040       C14-C19=1.3893       C15-C14=1.5040       C15-F16=1.3426       C15-F17=1.3393       
C15-F18=1.3530       F16-C15=1.3426       F17-C15=1.3393       F18-C15=1.3530       C19-C14=1.3893       C19-C20=1.3816       
C19-H57=1.0786       C20-C19=1.3816       C20-C21=1.3834       C20-H58=1.0786       C21-C20=1.3834       C21-C22=1.3810       
C21-H59=1.0794       C22-C13=1.3898       C22-C21=1.3810       C22-H60=1.0800       N23-C12=1.4603       N23-C24=1.3674       
N23-C35=1.4438       C24-N23=1.3674       C24-C25=1.4812       C24-O34=1.2094       C25-C24=1.4812       C25-C26=1.3611       
C25-C29=1.4379       C26-C25=1.3611       C26-O27=1.3445       C26-H61=1.0725       O27-C26=1.3445       O27-C28=1.3522       
C28-O27=1.3522       C28-C29=1.4114       C28-C33=1.3871       C29-C25=1.4379       C29-C28=1.4114       C29-C30=1.3951       
C30-C29=1.3951       C30-C31=1.3778       C30-H62=1.0796       C31-C30=1.3778       C31-C32=1.3963       C31-H63=1.0790       
C32-C31=1.3963       C32-C33=1.3801       C32-H64=1.0786       C33-C28=1.3871       C33-C32=1.3801       C33-H65=1.0774       
O34-C24=1.2094       C35-N23=1.4438       C35-C36=1.5545       C35-N39=1.4424       C35-H66=1.1035       C36-C35=1.5545       
C36-O37=1.3350       C36-O38=1.1947       O37-C36=1.3350       O37-H67=0.9692       O38-C36=1.1947       N39-C11=1.4595       
N39-C35=1.4424       N39-C40=1.3630       C40-N39=1.3630       C40-C41=1.4850       C40-O50=1.2089       C41-C40=1.4850       
C41-C42=1.3607       C41-C45=1.4373       C42-C41=1.3607       C42-O43=1.3449       C42-H68=1.0725       O43-C42=1.3449       
O43-C44=1.3518       C44-O43=1.3518       C44-C45=1.4110       C44-C49=1.3869       C45-C41=1.4373       C45-C44=1.4110       
C45-C46=1.3949       C46-C45=1.3949       C46-C47=1.3779       C46-H69=1.0797       C47-C46=1.3779       C47-C48=1.3963       
C47-H70=1.0787       C48-C47=1.3963       C48-C49=1.3802       C48-H71=1.0787       C49-C44=1.3869       C49-C48=1.3802       
C49-H72=1.0774       O50-C40=1.2089       H51-C6=1.0787        H52-C7=1.0788        H53-C8=1.0792        H54-C9=1.0803        
H55-C11=1.0951       H56-C12=1.0947       H57-C19=1.0786       H58-C20=1.0786       H59-C21=1.0794       H60-C22=1.0800       
H61-C26=1.0725       H62-C30=1.0796       H63-C31=1.0790       H64-C32=1.0786       H65-C33=1.0774       H66-C35=1.1035       
H67-O37=0.9692       H68-C42=1.0725       H69-C46=1.0797       H70-C47=1.0787       H71-C48=1.0787       H72-C49=1.0774       
 C  H  Rav=1.0810 sigma=0.0073  Rmin=1.0725  Rmax=1.1035    21
 C  C  Rav=1.4171 sigma=0.0534  Rmin=1.3607  Rmax=1.5545    36
 N  C  Rav=1.4227 sigma=0.0413  Rmin=1.3630  Rmax=1.4603     6
 O  H  Rav=0.9692 sigma=0.0000  Rmin=0.9692  Rmax=0.9692     1
 O  C  Rav=1.2927 sigma=0.0688  Rmin=1.1947  Rmax=1.3522     8
 F  C  Rav=1.3457 sigma=0.0068  Rmin=1.3374  Rmax=1.3558     6

 selected bond angles (degree)
 --------------------
C6-C1-C2=118.58                C10-C1-C2=121.07               C10-C1-C6=120.34               F3-C2-C1=112.37                
F4-C2-C1=113.30                F4-C2-F3=105.52                F5-C2-C1=113.92                F5-C2-F3=105.17                
F5-C2-F4=105.80                C7-C6-C1=120.21                H51-C6-C1=119.61               H51-C6-C7=120.18               
C8-C7-C6=119.80                H52-C7-C6=119.74               H52-C7-C8=120.46               C9-C8-C7=120.11                
H53-C8-C7=120.28               H53-C8-C9=119.60               C10-C9-C8=120.87               H54-C9-C8=119.67               
H54-C9-C10=119.45              C9-C10-C1=118.65               C11-C10-C1=122.74              C11-C10-C9=118.58              

 selected dihedral angles (degree)
 ---------------------------------
F3-C2-C1-C6=120.01            F3-C2-C1-C10=301.27           F4-C2-C1-C6=  0.52            F4-C2-C1-C10=181.78           
F5-C2-C1-C6=239.49            F5-C2-C1-C10= 60.75           C7-C6-C1-C2=181.39            C7-C6-C1-C10=  0.14           
H51-C6-C1-C2=  1.35           H51-C6-C1-C10=180.10          C8-C7-C6-C1=  0.41            C8-C7-C6-H51=180.45           
H52-C7-C6-C1=180.19           H52-C7-C6-H51=  0.24          C9-C8-C7-C6=359.70            C9-C8-C7-H52=179.92           
H53-C8-C7-C6=179.56           H53-C8-C7-H52=359.78          C10-C9-C8-C7=359.63           C10-C9-C8-H53=179.77          
H54-C9-C8-C7=180.29           H54-C9-C8-H53=  0.43          C9-C10-C1-C2=177.93           C9-C10-C1-C6=359.21           
C11-C10-C1-C2=359.55          C11-C10-C1-C6=180.84          C1-C10-C9-C8=  0.91           C1-C10-C9-H54=180.25          
C11-C10-C9-C8=179.35          C11-C10-C9-H54=358.69         
           -------------------------------------------------
          |                Final Singlepoint                |
           -------------------------------------------------

          ...................................................
          :                      SETUP                      :
          :.................................................:
          :  # basis functions                 222          :
          :  # atomic orbitals                 222          :
          :  # shells                          122          :
          :  # electrons                       254          :
          :  max. iterations                   250          :
          :  Hamiltonian                  GFN2-xTB          :
          :  restarted?                      false          :
          :  GBSA solvation                  false          :
          :  PC potential                    false          :
          :  electronic temp.          300.0000000     K    :
          :  accuracy                    1.0000000          :
          :  -> integral cutoff          0.2500000E+02      :
          :  -> integral neglect         0.1000000E-07      :
          :  -> SCF convergence          0.1000000E-05 Eh   :
          :  -> wf. convergence          0.1000000E-03 e    :
          :  Broyden damping             0.4000000          :
          ...................................................

 iter      E             dE          RMSdq      gap      omega  full diag
   1   -148.8272004 -0.148827E+03  0.686E-05    3.45       0.0  T
   2   -148.8272004 -0.545128E-10  0.484E-05    3.45     243.3  T
   3   -148.8272004 -0.712532E-10  0.288E-05    3.45     409.7  T

   *** convergence criteria satisfied after 3 iterations ***

         #    Occupation            Energy/Eh            Energy/eV
      -------------------------------------------------------------
         1        2.0000           -0.8748767             -23.8066
       ...           ...                  ...                  ...
       121        2.0000           -0.4297103             -11.6930
       122        2.0000           -0.4281480             -11.6505
       123        2.0000           -0.4192942             -11.4096
       124        2.0000           -0.4184083             -11.3855
       125        2.0000           -0.4158572             -11.3161
       126        2.0000           -0.4120388             -11.2121
       127        2.0000           -0.4107669             -11.1775 (HOMO)
       128                         -0.2841616              -7.7324 (LUMO)
       129                         -0.2813953              -7.6572
       130                         -0.2752306              -7.4894
       131                         -0.2644663              -7.1965
       132                         -0.2580798              -7.0227
       ...                                ...                  ...
       222                          0.6817419              18.5511
      -------------------------------------------------------------
                  HL-Gap            0.1266053 Eh            3.4451 eV
             Fermi-level           -0.3474643 Eh           -9.4550 eV

 SCC (total)                   0 d,  0 h,  0 min,  0.389 sec
 SCC setup                      ...        0 min,  0.021 sec (  5.321%)
 Dispersion                     ...        0 min,  0.014 sec (  3.682%)
 classical contributions        ...        0 min,  0.016 sec (  4.077%)
 integral evaluation            ...        0 min,  0.120 sec ( 30.838%)
 iterations                     ...        0 min,  0.080 sec ( 20.515%)
[...]
       116        2.0000           -0.4397314             -11.9657
       117        2.0000           -0.4368021             -11.8860
       118        2.0000           -0.4346091             -11.8263
       119        2.0000           -0.4342471             -11.8165
       120        2.0000           -0.4305524             -11.7159
       121        2.0000           -0.4297103             -11.6930
       122        2.0000           -0.4281480             -11.6505
       123        2.0000           -0.4192942             -11.4096
       124        2.0000           -0.4184083             -11.3855
       125        2.0000           -0.4158572             -11.3161
       126        2.0000           -0.4120388             -11.2121
       127        2.0000           -0.4107669             -11.1775 (HOMO)
       128                         -0.2841616              -7.7324 (LUMO)
       129                         -0.2813953              -7.6572
       130                         -0.2752306              -7.4894
       131                         -0.2644663              -7.1965
       132                         -0.2580798              -7.0227
       133                         -0.2541897              -6.9169
       134                         -0.2518275              -6.8526
       135                         -0.2478995              -6.7457
       136                         -0.2464499              -6.7062
       137                         -0.2443361              -6.6487
       138                         -0.2409029              -6.5553
       ...                                ...                  ...
       222                          0.6817419              18.5511
      -------------------------------------------------------------
                  HL-Gap            0.1266053 Eh            3.4451 eV
             Fermi-level           -0.3474643 Eh           -9.4550 eV

     #   Z          covCN         q      C6AA      α(0)
     1   6 C        2.976    -0.023    28.584     8.770
     2   6 C        3.336     0.485    17.302     6.588
     3   9 F        0.791    -0.226    11.504     4.007
     4   9 F        0.792    -0.199    11.222     3.957
     5   9 F        0.791    -0.208    11.313     3.973
     6   6 C        2.923    -0.019    28.471     8.750
     7   6 C        2.920    -0.020    28.500     8.754
     8   6 C        2.919    -0.014    28.371     8.735
     9   6 C        2.926    -0.026    28.641     8.776
    10   6 C        2.973     0.024    27.455     8.595
    11   6 C        3.819     0.047    19.764     6.327
    12   6 C        3.825     0.048    19.755     6.325
    13   6 C        2.972     0.026    27.426     8.590
    14   6 C        2.976    -0.020    28.506     8.758
    15   6 C        3.335     0.486    17.293     6.587
    16   9 F        0.791    -0.201    11.248     3.962
    17   9 F        0.792    -0.200    11.234     3.959
    18   9 F        0.791    -0.222    11.466     4.000
    19   6 C        2.923    -0.017    28.445     8.746
    20   6 C        2.921    -0.020    28.505     8.755
    21   6 C        2.919    -0.017    28.424     8.743
    22   6 C        2.928    -0.023    28.572     8.766
    23   7 N        2.765    -0.119    23.593     7.214
    24   6 C        2.759     0.274    22.373     7.746
    25   6 C        3.036    -0.065    29.582     8.921
    26   6 C        3.062     0.096    25.821     8.333
    27   8 O        1.721    -0.176    16.962     5.561
    28   6 C        3.123     0.121    25.177     8.217
    29   6 C        3.088    -0.026    28.543     8.757
    30   6 C        2.911    -0.044    29.096     8.845
    31   6 C        2.921    -0.037    28.923     8.819
    32   6 C        2.926    -0.034    28.849     8.808
    33   6 C        2.908    -0.049    29.213     8.863
    34   8 O        0.859    -0.402    21.724     6.249
    35   6 C        3.747     0.076    19.379     6.279
    36   6 C        2.686     0.345    21.145     7.525
    37   8 O        1.659    -0.358    20.046     6.044
    38   8 O        0.856    -0.343    20.570     6.081
    39   7 N        2.766    -0.115    23.498     7.200
    40   6 C        2.757     0.275    22.346     7.741
    41   6 C        3.037    -0.065    29.586     8.922
    42   6 C        3.063     0.095    25.833     8.335
    43   8 O        1.721    -0.176    16.953     5.559
    44   6 C        3.123     0.123    25.130     8.209
    45   6 C        3.090    -0.024    28.484     8.748
    46   6 C        2.911    -0.045    29.114     8.848
    47   6 C        2.921    -0.039    28.963     8.825
    48   6 C        2.926    -0.035    28.870     8.811
    49   6 C        2.908    -0.048    29.202     8.861
    50   8 O        0.859    -0.403    21.737     6.251
    51   1 H        0.926     0.068     2.111     2.272
    52   1 H        0.926     0.058     2.220     2.330
    53   1 H        0.926     0.059     2.210     2.325
    54   1 H        0.926     0.069     2.097     2.264
    55   1 H        0.924     0.066     2.128     2.281
    56   1 H        0.924     0.072     2.060     2.244
    57   1 H        0.926     0.071     2.074     2.252
    58   1 H        0.926     0.060     2.203     2.321
    59   1 H        0.926     0.056     2.246     2.344
    60   1 H        0.926     0.044     2.392     2.419
    61   1 H        0.926     0.076     2.020     2.223
    62   1 H        0.926     0.036     2.499     2.472
    63   1 H        0.926     0.046     2.369     2.407
    64   1 H        0.926     0.050     2.318     2.381
    65   1 H        0.926     0.059     2.207     2.323
    66   1 H        0.923     0.052     2.294     2.369
    67   1 H        0.804     0.328     0.642     1.258
    68   1 H        0.926     0.073     2.048     2.238
    69   1 H        0.926     0.038     2.481     2.463
    70   1 H        0.926     0.045     2.383     2.414
    71   1 H        0.926     0.049     2.333     2.388
    72   1 H        0.926     0.059     2.211     2.325

 Mol. C6AA /au·bohr⁶  :      73976.552616
 Mol. C8AA /au·bohr⁸  :    1815454.148727
 Mol. α(0) /au        :        423.309917


Wiberg/Mayer (AO) data.
largest (>0.10) Wiberg bond orders for each atom

 ---------------------------------------------------------------------------
     #   Z sym  total        # sym  WBO       # sym  WBO       # sym  WBO
 ---------------------------------------------------------------------------
     1   6 C    3.969 --     6 C    1.411    10 C    1.386     2 C    0.953
                             8 C    0.105
     2   6 C    3.819 --     4 F    0.959     1 C    0.953     5 F    0.942
                             3 F    0.926
     3   9 F    1.053 --     2 C    0.926
     4   9 F    1.081 --     2 C    0.959
     5   9 F    1.072 --     2 C    0.942
     6   6 C    3.987 --     7 C    1.444     1 C    1.411    51 H    0.966
                             9 C    0.109
     7   6 C    3.989 --     6 C    1.444     8 C    1.433    52 H    0.969
                            10 C    0.108
     8   6 C    3.990 --     9 C    1.448     7 C    1.433    53 H    0.969
                             1 C    0.105
     9   6 C    3.987 --     8 C    1.448    10 C    1.409    54 H    0.960
                             6 C    0.109
    10   6 C    3.986 --     9 C    1.409     1 C    1.386    11 C    0.993
                             7 C    0.108
    11   6 C    3.965 --    10 C    0.993    39 N    0.954    12 C    0.953
                            55 H    0.952
    12   6 C    3.964 --    13 C    0.994    23 N    0.954    11 C    0.953
                            56 H    0.951
    13   6 C    3.986 --    22 C    1.409    14 C    1.387    12 C    0.994
                            20 C    0.109
    14   6 C    3.972 --    19 C    1.414    13 C    1.387    15 C    0.951
                            21 C    0.105
    15   6 C    3.823 --    17 F    0.956    14 C    0.951    16 F    0.949
                            18 F    0.929
    16   9 F    1.079 --    15 C    0.949
    17   9 F    1.078 --    15 C    0.956
    18   9 F    1.057 --    15 C    0.929
    19   6 C    3.986 --    20 C    1.443    14 C    1.414    57 H    0.965
                            22 C    0.109
    20   6 C    3.988 --    19 C    1.443    21 C    1.433    58 H    0.969
                            13 C    0.109
    21   6 C    3.990 --    22 C    1.449    20 C    1.433    59 H    0.969
                            14 C    0.105
    22   6 C    3.990 --    21 C    1.449    13 C    1.409    60 H    0.967
                            19 C    0.109
    23   7 N    3.442 --    24 C    1.180    35 C    0.986    12 C    0.954
                            34 O    0.187
    24   6 C    3.949 --    34 O    1.708    23 N    1.180    25 C    0.982
    25   6 C    3.975 --    26 C    1.606    29 C    1.166    24 C    0.982
    26   6 C    3.920 --    25 C    1.606    27 O    1.135    61 H    0.963
    27   8 O    2.435 --    26 C    1.135    28 C    1.085
    28   6 C    3.920 --    33 C    1.352    29 C    1.274    27 O    1.085
    29   6 C    3.983 --    30 C    1.331    28 C    1.274    25 C    1.166
    30   6 C    3.991 --    31 C    1.497    29 C    1.331    62 H    0.966
                            33 C    0.115
    31   6 C    3.990 --    30 C    1.497    32 C    1.382    63 H    0.969
    32   6 C    3.989 --    33 C    1.484    31 C    1.382    64 H    0.970
    33   6 C    3.987 --    32 C    1.484    28 C    1.352    65 H    0.966
                            30 C    0.115
    34   8 O    2.042 --    24 C    1.708    23 N    0.187
    35   6 C    3.970 --    39 N    0.989    23 N    0.986    66 H    0.934
                            36 C    0.897
    36   6 C    3.922 --    38 O    1.803    37 O    1.142    35 C    0.897
    37   8 O    2.225 --    36 C    1.142    67 H    0.857    38 O    0.169
    38   8 O    2.098 --    36 C    1.803    37 O    0.169
    39   7 N    3.454 --    40 C    1.192    35 C    0.989    11 C    0.954
                            50 O    0.192
    40   6 C    3.949 --    50 O    1.706    39 N    1.192    41 C    0.972
    41   6 C    3.975 --    42 C    1.606    45 C    1.167    40 C    0.972
    42   6 C    3.921 --    41 C    1.606    43 O    1.134    68 H    0.963
    43   8 O    2.435 --    42 C    1.134    44 C    1.086
    44   6 C    3.921 --    49 C    1.353    45 C    1.274    43 O    1.086
    45   6 C    3.983 --    46 C    1.332    44 C    1.274    41 C    1.167
    46   6 C    3.991 --    47 C    1.497    45 C    1.332    69 H    0.967
                            49 C    0.116
    47   6 C    3.990 --    46 C    1.497    48 C    1.383    70 H    0.969
    48   6 C    3.990 --    49 C    1.484    47 C    1.383    71 H    0.970
    49   6 C    3.987 --    48 C    1.484    44 C    1.353    72 H    0.966
                            46 C    0.116
    50   8 O    2.043 --    40 C    1.706    39 N    0.192
    51   1 H    0.995 --     6 C    0.966
    52   1 H    0.996 --     7 C    0.969
    53   1 H    0.996 --     8 C    0.969
    54   1 H    0.995 --     9 C    0.960
    55   1 H    0.995 --    11 C    0.952
    56   1 H    0.994 --    12 C    0.951
    57   1 H    0.995 --    19 C    0.965
    58   1 H    0.996 --    20 C    0.969
    59   1 H    0.996 --    21 C    0.969
    60   1 H    0.998 --    22 C    0.967
    61   1 H    0.993 --    26 C    0.963
    62   1 H    0.999 --    30 C    0.966
    63   1 H    0.997 --    31 C    0.969
    64   1 H    0.997 --    32 C    0.970
    65   1 H    0.996 --    33 C    0.966
    66   1 H    0.997 --    35 C    0.934
    67   1 H    0.892 --    37 O    0.857
    68   1 H    0.994 --    42 C    0.963
    69   1 H    0.999 --    46 C    0.967
    70   1 H    0.998 --    47 C    0.969
    71   1 H    0.997 --    48 C    0.970
    72   1 H    0.996 --    49 C    0.966
 ---------------------------------------------------------------------------

Topologies differ in total number of bonds
Writing topology from bond orders to xtbtopo.mol

molecular dipole:
                 x           y           z       tot (Debye)
 q only:       -0.211       2.562      -1.077
   full:       -0.243       2.975      -1.180       8.158
molecular quadrupole (traceless):
                xx          xy          yy          xz          yz          zz
 q only:      -14.914      -2.352      17.354      23.314      -9.710      -2.440
  q+dip:      -24.019      -2.521      19.477      25.246      -9.953       4.542
   full:      -16.375      -2.387      16.184      22.987      -9.862       0.191

           -------------------------------------------------
          |                Geometry Summary                 |
           -------------------------------------------------

      molecular mass/u    :      692.5614438
   center of mass at/Å    :        0.0014582      -0.4209389       0.1315993
  moments of inertia/u·Å² :        0.5109289E+04   0.9235429E+04   0.1131081E+05
rotational constants/cm⁻¹ :        0.3299409E-02   0.1825322E-02   0.1490400E-02

 * 71 selected distances

     #   Z          #   Z                                           value/Å
     2   6 C        3   9 F                                       1.3557512
     2   6 C        4   9 F                                       1.3374383
     2   6 C        5   9 F                                       1.3464202
     1   6 C        6   6 C                                       1.3893658
     6   6 C        7   6 C                                       1.3814114
     7   6 C        8   6 C                                       1.3837765
     8   6 C        9   6 C                                       1.3813292
     1   6 C       10   6 C                                       1.3946578
     9   6 C       10   6 C                                       1.3902724
    11   6 C       12   6 C                                       1.5426938 (max)
    13   6 C       14   6 C                                       1.3944978
    15   6 C       16   9 F                                       1.3425787
    15   6 C       17   9 F                                       1.3392546
    15   6 C       18   9 F                                       1.3530070
    14   6 C       19   6 C                                       1.3893152
    19   6 C       20   6 C                                       1.3816154
    20   6 C       21   6 C                                       1.3834423
    13   6 C       22   6 C                                       1.3897547
    21   6 C       22   6 C                                       1.3809663
    12   6 C       23   7 N                                       1.4603415
    23   7 N       24   6 C                                       1.3674416
    25   6 C       26   6 C                                       1.3611008
    26   6 C       27   8 O                                       1.3445271
    27   8 O       28   6 C                                       1.3522289
    25   6 C       29   6 C                                       1.4378754
    28   6 C       29   6 C                                       1.4113954
    29   6 C       30   6 C                                       1.3951344
    30   6 C       31   6 C                                       1.3777701
    31   6 C       32   6 C                                       1.3963481
    28   6 C       33   6 C                                       1.3870856
    32   6 C       33   6 C                                       1.3800586
    24   6 C       34   8 O                                       1.2093623
    23   7 N       35   6 C                                       1.4437514
    36   6 C       37   8 O                                       1.3350333
    36   6 C       38   8 O                                       1.1946574
    11   6 C       39   7 N                                       1.4595201
    35   6 C       39   7 N                                       1.4423728
    39   7 N       40   6 C                                       1.3629594
    41   6 C       42   6 C                                       1.3606706
    42   6 C       43   8 O                                       1.3448905
    43   8 O       44   6 C                                       1.3518491
    41   6 C       45   6 C                                       1.4372866
    44   6 C       45   6 C                                       1.4109798
    45   6 C       46   6 C                                       1.3948703
    46   6 C       47   6 C                                       1.3779298
    47   6 C       48   6 C                                       1.3963462
    44   6 C       49   6 C                                       1.3869292
    48   6 C       49   6 C                                       1.3802195
    40   6 C       50   8 O                                       1.2088568
     6   6 C       51   1 H                                       1.0787171
     7   6 C       52   1 H                                       1.0787615
     8   6 C       53   1 H                                       1.0791566
     9   6 C       54   1 H                                       1.0803440
    11   6 C       55   1 H                                       1.0951114
    12   6 C       56   1 H                                       1.0947362
    19   6 C       57   1 H                                       1.0786432
    20   6 C       58   1 H                                       1.0786116
    21   6 C       59   1 H                                       1.0794248
    22   6 C       60   1 H                                       1.0800465
    26   6 C       61   1 H                                       1.0724602
    30   6 C       62   1 H                                       1.0796096
    31   6 C       63   1 H                                       1.0790414
    32   6 C       64   1 H                                       1.0786386
    33   6 C       65   1 H                                       1.0774077
    35   6 C       66   1 H                                       1.1035343
    37   8 O       67   1 H                                       0.9692456 (min)
    42   6 C       68   1 H                                       1.0724878
    46   6 C       69   1 H                                       1.0796868
    47   6 C       70   1 H                                       1.0787175
    48   6 C       71   1 H                                       1.0786926
    49   6 C       72   1 H                                       1.0773879

 * 6 distinct bonds (by element types)

   Z      Z             #   av. dist./Å        max./Å        min./Å
   1 H    6 C          21     1.0810103     1.1035343     1.0724602
   6 C    6 C          29     1.3956931     1.5426938     1.3606706
   6 C    7 N           6     1.4227311     1.4603415     1.3629594
   1 H    8 O           1     0.9692456     0.9692456     0.9692456
   6 C    8 O           8     1.2926757     1.3522289     1.1946574
   6 C    9 F           6     1.3457417     1.3557512     1.3374383


optimized geometry written to: xtbopt.xyz


           -------------------------------------------------
          | TOTAL ENERGY             -147.037276586786 Eh   |
          | GRADIENT NORM               0.000464681977 Eh/α |
          | HOMO-LUMO GAP               3.445105123875 eV   |
           -------------------------------------------------

------------------------------------------------------------------------
 * finished run on 2022/03/17 at 01:35:03.058     
------------------------------------------------------------------------
 total:
 * wall-time:     0 d,  0 h,  0 min, 25.342 sec
 *  cpu-time:     0 d,  0 h,  8 min, 30.251 sec
 * ratio c/w:    20.134 speedup
 SCF:
 * wall-time:     0 d,  0 h,  0 min,  0.636 sec
 *  cpu-time:     0 d,  0 h,  0 min,  9.952 sec
 * ratio c/w:    15.638 speedup
 ANC optimizer:
 * wall-time:     0 d,  0 h,  0 min, 24.546 sec
 *  cpu-time:     0 d,  0 h,  8 min, 16.373 sec
 * ratio c/w:    20.222 speedup

