72
 energy: -136.624419663282 gnorm: 0.104716229946 xtb: 6.3.3 (4ae9cef)
C         1.59178700000000    3.64467800000000    0.75905300000000
C         0.92036700000000    3.72062800000000    2.11604200000000
F         1.22238500000000    4.85476700000000    2.81173300000000
F        -0.43861400000000    3.72357500000000    2.00698200000000
F         1.22023800000000    2.68689100000000    2.94814800000000
C         2.41569000000000    4.72371100000000    0.36939800000000
C         3.04526100000000    4.74677100000000   -0.87167600000000
C         2.86142300000000    3.69039700000000   -1.74945500000000
C         2.05229500000000    2.61332700000000   -1.38591500000000
C         1.40443600000000    2.55970700000000   -0.13647300000000
C         0.53782700000000    1.35035700000000    0.21450400000000
C        -0.73221700000000    1.17788400000000   -0.67854100000000
C        -1.94519400000000    1.89374000000000   -0.08364600000000
C        -2.58177000000000    2.97660000000000   -0.74132300000000
C        -2.09322300000000    3.52193500000000   -2.06625900000000
F        -0.81007300000000    3.97092300000000   -1.98365000000000
F        -2.81577600000000    4.58258400000000   -2.52658000000000
F        -2.10001700000000    2.60944300000000   -3.07309600000000
C        -3.69983000000000    3.58628700000000   -0.13553900000000
C        -4.18604200000000    3.14351300000000    1.09186800000000
C        -3.56559600000000    2.08430000000000    1.73824200000000
C        -2.45564400000000    1.46998600000000    1.16106400000000
N        -0.88642300000000   -0.28430700000000   -0.76490700000000
C        -2.01072500000000   -0.88251700000000   -1.30947400000000
C        -2.15080300000000   -2.35574100000000   -1.22763600000000
C        -2.34521500000000   -3.02511700000000   -0.00351900000000
C        -2.47883100000000   -2.29188700000000    1.29989300000000
C        -2.45274300000000   -4.42369900000000   -0.01504500000000
C        -2.42120100000000   -5.13116500000000   -1.21984900000000
C        -2.29145700000000   -4.45172200000000   -2.42881300000000
C        -2.16682700000000   -3.06437600000000   -2.43597300000000
O        -2.91538900000000   -0.25332800000000   -1.85279400000000
C         0.40250300000000   -0.94198400000000   -0.56220200000000
C         1.01142800000000   -1.39526500000000   -1.92299500000000
O         1.76551300000000   -0.46874900000000   -2.55660300000000
O         0.77024600000000   -2.44269900000000   -2.50818100000000
N         1.23672800000000    0.06395300000000    0.10297800000000
C         2.26726600000000   -0.24538800000000    0.97550000000000
C         2.79151500000000   -1.62679400000000    0.95741500000000
C         3.64721700000000   -2.00102800000000   -0.08620200000000
C         4.12556300000000   -3.30759200000000   -0.15398100000000
C         3.76023800000000   -4.23077000000000    0.82551500000000
C         2.92588300000000   -3.84826600000000    1.88053600000000
C         2.43038700000000   -2.53996600000000    1.96278400000000
C         1.56518500000000   -2.13783900000000    3.12442200000000
O         2.74375200000000    0.53770400000000    1.79257300000000
H         2.57020000000000    5.56392500000000    1.04712100000000
H         3.67668900000000    5.58731200000000   -1.15013600000000
H         3.34567800000000    3.70175200000000   -2.72275900000000
H         1.93182200000000    1.81005000000000   -2.10398100000000
H         0.24509900000000    1.40241900000000    1.26693700000000
H        -0.53892000000000    1.50309900000000   -1.70504900000000
H        -4.20034500000000    4.42153200000000   -0.62322100000000
H        -5.04780800000000    3.63020000000000    1.54129700000000
H        -3.94443100000000    1.73296300000000    2.69270500000000
H        -1.98973000000000    0.64397800000000    1.69134600000000
H        -3.19214700000000   -1.46629000000000    1.20039300000000
H        -2.86401500000000   -2.94680700000000    2.09011500000000
H        -1.51013000000000   -1.90845500000000    1.62924300000000
H        -2.58848700000000   -4.97774400000000    0.91166100000000
H        -2.51745600000000   -6.21407000000000   -1.21683100000000
H        -2.28835000000000   -4.99965800000000   -3.36801100000000
H        -2.06925400000000   -2.54053000000000   -3.38366100000000
H         0.28722700000000   -1.82513400000000    0.06980200000000
H         1.96123200000000   -0.87833900000000   -3.42462700000000
H         3.94753800000000   -1.27395300000000   -0.83786000000000
H         4.78721200000000   -3.60389200000000   -0.96531700000000
H         4.13556100000000   -5.25097500000000    0.77981500000000
H         2.67037200000000   -4.57888300000000    2.64503000000000
H         2.11483300000000   -1.46297000000000    3.78972700000000
H         0.65253400000000   -1.64329200000000    2.77679300000000
H         1.25355800000000   -3.00970100000000    3.71114000000000
72
 energy: -136.641646120476 gnorm: 0.041947450499 xtb: 6.3.3 (4ae9cef)
C         1.59392100105474    3.63487434885335    0.74707640328236
C         0.91968049527978    3.71155741909572    2.09513720261385
F         1.22578088127168    4.83802264453465    2.77837870867165
F        -0.43462986055553    3.71777963023015    1.99143096814296
F         1.21268130812451    2.69299221205938    2.93119838725934
C         2.40640116643571    4.70792884320230    0.37180536796772
C         3.03265207726358    4.73110861759618   -0.86157494355571
C         2.84714846774510    3.67597520531018   -1.73598350272384
C         2.04311715662431    2.60535976421349   -1.37210196133244
C         1.40234247799492    2.55465568098451   -0.13372298031536
C         0.53287029604382    1.35626563609448    0.22121918959768
C        -0.72439715404658    1.18297786053195   -0.67810265721547
C        -1.94559070544033    1.88154837540817   -0.09587826603114
C        -2.58011459611364    2.96056880654814   -0.73430294822481
C        -2.08822961616418    3.50782736084425   -2.04985354146519
F        -0.81119016721890    3.96065144441276   -1.97301612797184
F        -2.81189827817457    4.55883555447287   -2.49598426408504
F        -2.09515640456266    2.61023117638930   -3.05824812562023
C        -3.68454779795671    3.57536727249561   -0.14010310906445
C        -4.17013449241951    3.13666225177161    1.07885702443979
C        -3.54966221074590    2.07944286774239    1.71948545222515
C        -2.45044912888694    1.46649166665147    1.13820377322641
N        -0.88387402751298   -0.28114925809118   -0.74278925096219
C        -2.00240869678715   -0.87279508695942   -1.29098948985811
C        -2.12207759722039   -2.35919953966981   -1.21834841618016
C        -2.32913728528295   -3.03162526842157   -0.00647095333440
C        -2.47125498909424   -2.29176277282793    1.29245462164653
C        -2.45742076043147   -4.41800101104644   -0.02740628174323
C        -2.42030125054901   -5.12203352085879   -1.22124021679280
C        -2.29007951764568   -4.44333978227534   -2.42108491469992
C        -2.15030724142479   -3.06494561829441   -2.42037178807135
O        -2.89131078737966   -0.21946792292992   -1.80484895633774
C         0.40278159790380   -0.93405004870532   -0.55648189524733
C         0.97036323883188   -1.37631015395262   -1.92637185392101
O         1.74085326331292   -0.46499575622855   -2.54179824791273
O         0.75677808563358   -2.43928344044170   -2.45299546245931
N         1.22914630587629    0.06682259362956    0.10178821918917
C         2.24124457362297   -0.24431235286978    0.97946099395671
C         2.75870345879833   -1.64142172321228    0.93520263195020
C         3.62151276019314   -2.01453174718701   -0.09280655408848
C         4.12293767248274   -3.30546396908603   -0.14650506035338
C         3.76152844226416   -4.22290918221997    0.82688227941755
C         2.93416241773377   -3.84095576132724    1.87230731950683
C         2.42790580421316   -2.54661298067987    1.95094582663534
C         1.56395360027990   -2.14035581760192    3.10940177373925
O         2.72526957387999    0.56766734516598    1.74505161068976
H         2.55346031552136    5.53902901773674    1.05040899508390
H         3.65930443688940    5.56970083432800   -1.13661044988761
H         3.32881127910279    3.68611265112389   -2.70533949450348
H         1.92277625619684    1.79468583436595   -2.07534335317892
H         0.22187223470704    1.43585535227699    1.26887035574802
H        -0.52024497265076    1.54012210992411   -1.69324033507659
H        -4.17547803875205    4.40519067839787   -0.63241004291350
H        -5.02842587877050    3.62161204991848    1.52510164756880
H        -3.92251017095577    1.73150903380043    2.67393747209088
H        -1.97841103211692    0.64856961549325    1.66437600522485
H        -3.17197961240425   -1.46202610069600    1.18604129148626
H        -2.85396902207181   -2.95189168889443    2.07224019076149
H        -1.51155578887478   -1.89977699129594    1.63013323168785
H        -2.59256643869534   -4.96191032501364    0.89904179401349
H        -2.51407057030081   -6.20020477918060   -1.21592192539367
H        -2.29139210674946   -4.98643002619955   -3.35669301924830
H        -2.06025081084809   -2.53515370025852   -3.35877899205110
H         0.29736952764792   -1.83722596979044    0.05817005201660
H         1.98116331092392   -0.85964607301057   -3.40310203741133
H         3.92333307677428   -1.28432819095252   -0.83283442587133
H         4.78261904626665   -3.59855902331781   -0.95260550679982
H         4.13147152826008   -5.23869482801201    0.77926363801248
H         2.67470697736586   -4.56484346412042    2.63410842694183
H         2.10859789034226   -1.45623477024690    3.76137477378575
H         0.65883861127338   -1.63247194557631    2.77410390575179
H         1.26697139466775   -3.00908216415139    3.69879681757105
72
 energy: -136.647068478721 gnorm: 0.016236878307 xtb: 6.3.3 (4ae9cef)
C         1.58908614476430    3.62111119200357    0.74108231358816
C         0.91033762462766    3.70072023843904    2.08180396607555
F         1.21541880915707    4.82176471417978    2.75365764399447
F        -0.43997091085939    3.70822585244032    1.97140179972766
F         1.19431526047445    2.69363984928147    2.92009700216237
C         2.39535681043717    4.69028051621669    0.37415384360830
C         3.01973027844023    4.71004257793883   -0.85683662908176
C         2.83440713806393    3.65190905221464   -1.72676376628421
C         2.03556970739658    2.58376486865506   -1.35978002590304
C         1.39697043293167    2.54137447227239   -0.12785917082970
C         0.52434480443751    1.35602452799654    0.23120804891745
C        -0.71633615027649    1.18436574442435   -0.67813971602048
C        -1.93731640198697    1.87275114600617   -0.10506697632937
C        -2.57196273056536    2.94702869720041   -0.73302560273056
C        -2.07712038452848    3.49542591743871   -2.04210319755998
F        -0.80465599990386    3.95050388098312   -1.96158324869840
F        -2.79939739032022    4.53768152469694   -2.47941009608158
F        -2.07809667967920    2.60641470643290   -3.04811771641350
C        -3.67101842114977    3.56231675583845   -0.14855645589445
C        -4.15606813289520    3.12390840321977    1.06699626261492
C        -3.53416978174130    2.06637216558935    1.70371992348875
C        -2.43936400581379    1.45658663484810    1.12085166980347
N        -0.88349920958982   -0.27591454569977   -0.72193758336713
C        -2.00300927805515   -0.85562199313661   -1.26965984327014
C        -2.10180686692305   -2.35165054271252   -1.21027536132988
C        -2.31173669802566   -3.02852181098985   -0.00622100357884
C        -2.45726551971328   -2.28701176730505    1.29031636958758
C        -2.44941548103886   -4.40881631870080   -0.03358494394862
C        -2.41337167292079   -5.11061405235256   -1.22294079373741
C        -2.27767079832307   -4.42902492494726   -2.41756973117121
C        -2.13113942548811   -3.05456407532163   -2.40935188522280
O        -2.88673176801818   -0.17625916983927   -1.74464226835180
C         0.40206370115471   -0.92531188053946   -0.54753115417754
C         0.97194455738049   -1.38002960146722   -1.90437255707497
O         1.70035076970622   -0.45141534220161   -2.52623741122517
O         0.73515716406890   -2.44168301127804   -2.40121011440312
N         1.22101439979739    0.06881776304589    0.10611516376678
C         2.23419246111814   -0.23342834138109    0.97548640138666
C         2.73448310259980   -1.64607400937819    0.91808403340713
C         3.59882533754056   -2.01936518303001   -0.10184585251003
C         4.11032952314759   -3.30327875533903   -0.15077433505163
C         3.75748275973026   -4.21770879016460    0.82388626050928
C         2.92871548190152   -3.83617665737844    1.86154994008895
C         2.41572019993983   -2.54897211375928    1.93597607823175
C         1.55845476177181   -2.13689018049106    3.09392858775184
O         2.71368125951898    0.60104683722232    1.70804027987974
H         2.53649270758934    5.51520190662593    1.05436184269799
H         3.64278774981111    5.54727025970845   -1.13079647233753
H         3.31225981435477    3.66042593438287   -2.69440769354096
H         1.91231566838569    1.76356300110483   -2.04826914384952
H         0.20076459793660    1.45271121882371    1.27412847997674
H        -0.49884598393363    1.55658598800432   -1.68534992150137
H        -4.15033393363774    4.39153655104263   -0.64461720749004
H        -5.00918873748740    3.61028257633170    1.51360892039506
H        -3.89939559395784    1.72139674268287    2.65931392879575
H        -1.96338468666410    0.63874656963055    1.63826725944389
H        -3.15226817769272   -1.45740427785551    1.17264615019751
H        -2.83832054271234   -2.95141289497204    2.06246094677251
H        -1.50272517037663   -1.88680928219638    1.63078460002485
H        -2.60006969312101   -4.94284251122271    0.89351752086298
H        -2.51659906624802   -6.18538447348150   -1.21717321081251
H        -2.29017682268313   -4.96642086120095   -3.35287654171171
H        -2.03908685211577   -2.51752506825823   -3.33995884322353
H         0.30200305214852   -1.84373311052773    0.05224927660708
H         1.97648815047541   -0.81560937825504   -3.38902949381049
H         3.88641296623632   -1.29001282951750   -0.84417311545821
H         4.78012198224810   -3.58917341261116   -0.94671046087483
H         4.13750498219785   -5.22690706614863    0.78358474117615
H         2.67857950498153   -4.54977713570121    2.63265208410560
H         2.10803558581818   -1.44676502221087    3.73292083158805
H         0.65930812545023   -1.61936025065242    2.76388569101947
H         1.27049659070590   -3.00232914469750    3.68601668260355
72
 energy: -136.648744574054 gnorm: 0.012795989980 xtb: 6.3.3 (4ae9cef)
C         1.58100234788941    3.61105652282560    0.74412905637476
C         0.89275513902250    3.69430192381003    2.07945598722988
F         1.19201453589867    4.81524399909578    2.74728500679966
F        -0.45637818373736    3.70194471336084    1.95370297748765
F         1.16710944433658    2.69053283434000    2.92085851706518
C         2.38833564566995    4.67773665816584    0.37497773323989
C         3.01235793313860    4.69009973308368   -0.85722379562132
C         2.82867539573827    3.62683393363843   -1.72188140911396
C         2.03246034058446    2.55944611863811   -1.34970537048723
C         1.39217336907918    2.52823378007733   -0.11859096728559
C         0.51720802042818    1.35186649411644    0.24268504492224
C        -0.71083061782358    1.18101267597220   -0.67612817272230
C        -1.93016898360281    1.86658798930443   -0.11059801426325
C        -2.56253499247323    2.94047032604006   -0.73705477149254
C        -2.06112850561404    3.48917533080955   -2.04311232404625
F        -0.78919033117422    3.94390086603428   -1.95204620872532
F        -2.77964032712570    4.52893951371787   -2.48168522111694
F        -2.05319685714942    2.60086497031896   -3.04712041944275
C        -3.66229471619404    3.55417992530049   -0.15391381874190
C        -4.14668269087842    3.11264236024027    1.06166062854261
C        -3.52481523848408    2.05330734198049    1.69675425307045
C        -2.43127543512915    1.44421193364864    1.11309435268434
N        -0.88550069186296   -0.27447402921568   -0.70704188697520
C        -2.01188226894126   -0.84186055568788   -1.24939008954934
C        -2.09848894346995   -2.33893609007851   -1.20466634609599
C        -2.30256901013815   -3.01962369667427   -0.00285797850869
C        -2.44376398551478   -2.27930952505041    1.29397629861570
C        -2.44249862750313   -4.39944632944200   -0.03495061982064
C        -2.40793783441340   -5.09776111644654   -1.22691194236099
C        -2.26378028598659   -4.41176957778306   -2.41922273390613
C        -2.11761859016369   -3.03736728481061   -2.40559911365681
O        -2.90108116432629   -0.14735575094604   -1.69248420198713
C         0.39554059607402   -0.92526725075731   -0.53356292733104
C         0.94727533409574   -1.37458221214643   -1.90111102217018
O         1.67210116068218   -0.44431965457027   -2.51750519481636
O         0.74102962982721   -2.46246092698835   -2.36358955466851
N         1.21201077598266    0.06735688720094    0.11667164947454
C         2.23903307550266   -0.22316669211288    0.97150452584021
C         2.72759603140207   -1.64102329588245    0.90907530925654
C         3.57942818010817   -2.01822450626387   -0.11884347940676
C         4.09735122189838   -3.30000996110355   -0.16393773236374
C         3.75569883045566   -4.21157387461618    0.81861517119154
C         2.92341266443236   -3.83005908804602    1.85426448718672
C         2.40872395402956   -2.54343343762658    1.92621588913803
C         1.55302397233765   -2.12635505388259    3.08216422932340
O         2.72986944397099    0.62631039523951    1.67962365658640
H         2.52641018161903    5.50354701326092    1.05376005032492
H         3.63324238630165    5.52683685730467   -1.13481396924590
H         3.30486147355972    3.63101393614686   -2.68979651154880
H         1.90773709132973    1.73061296626409   -2.02748901150302
H         0.18662517415274    1.45147128649760    1.28224168906989
H        -0.48180123222751    1.55050940836868   -1.68116161483872
H        -4.13790161033759    4.38315046147809   -0.65263218179116
H        -4.99935845950411    3.59788893282720    1.50851926595968
H        -3.88764831570457    1.70620680513721    2.65163420947444
H        -1.95260368279005    0.62335645458964    1.62353767220804
H        -3.13806453220934   -1.45008829648850    1.17237221656357
H        -2.82265847495942   -2.94414388232305    2.06568099002838
H        -1.48888552438170   -1.87725560089329    1.63156834593125
H        -2.59916477375790   -4.93157765214358    0.89228156423603
H        -2.51729841060456   -6.17180096559678   -1.22397190972283
H        -2.27665091231490   -4.94488279894126   -3.35660047751254
H        -2.01802873925545   -2.49433041398907   -3.33205392451783
H         0.29714857304253   -1.84731327298494    0.06308231996102
H         1.98368674830042   -0.79199212250140   -3.37558239773881
H         3.85610513499610   -1.29033196594331   -0.86697781702256
H         4.77085945872326   -3.58327974467618   -0.95732399045323
H         4.14540070919299   -5.21738495220719    0.78476232395757
H         2.67662525252397   -4.53936879040520    2.63057647225240
H         2.10705281181022   -1.43263321650915    3.71395783082758
H         0.65544183906497   -1.60773555184175    2.75012842102770
H         1.26594407255100   -2.98835321125859    3.67831597672001
72
 energy: -136.649906562641 gnorm: 0.009735766055 xtb: 6.3.3 (4ae9cef)
C         1.57122244164563    3.60232959274644    0.75014322156387
C         0.86859090198868    3.69106006763547    2.07846072258206
F         1.15942664917644    4.81402396820724    2.74463881243437
F        -0.48022574650473    3.69892329782095    1.93225956098957
F         1.13024093388356    2.68850438200187    2.92540644692318
C         2.38110811912310    4.66639149986619    0.37499069265716
C         3.00673396054028    4.66806168517804   -0.85757965611650
C         2.82719915975361    3.59796273424745   -1.71504148603425
C         2.03311500417798    2.53194048416181   -1.33632513484914
C         1.38886611901370    2.51400232521091   -0.10591759327900
C         0.51144058896181    1.34412991628235    0.25430585699276
C        -0.70647292336776    1.17595987967864   -0.67292867671038
C        -1.92452155570832    1.86236302928489   -0.11523785224839
C        -2.55245672081446    2.93754055357088   -0.74194345208494
C        -2.04024330355635    3.48503198891799   -2.04495206294933
F        -0.76750332465111    3.93892888664793   -1.93943760480287
F        -2.75351849870642    4.52363046688242   -2.49116602521163
F        -2.01958107519688    2.59412631533237   -3.04684702795942
C        -3.65505023313227    3.54843049684134   -0.15875832657123
C        -4.13994634543302    3.10183568642821    1.05576273719131
C        -3.51964778041479    2.04052504238917    1.69015384224707
C        -2.42595788953728    1.43261722784876    1.10714365192329
N        -0.88756794925745   -0.27468753037793   -0.69733987381216
C        -2.02527019889510   -0.82921829914577   -1.22585269978395
C        -2.10171931762757   -2.32398587200365   -1.19825753556546
C        -2.29854020167452   -3.00884785352944    0.00215152217344
C        -2.43103648051445   -2.27062921272709    1.30075271072346
C        -2.43629404500455   -4.38935293904242   -0.03580592496774
C        -2.40073992766517   -5.08164352789099   -1.23254713930888
C        -2.24736228104496   -4.39080260805823   -2.42208207514672
C        -2.10493515083177   -3.01595026981830   -2.40281292367399
O        -2.92189213971898   -0.12516712557157   -1.63911025980643
C         0.38729140591044   -0.93228387767151   -0.51719322127367
C         0.95080866697022   -1.38862731851989   -1.88028705296135
O         1.63547640011106   -0.43924684388026   -2.50978663086069
O         0.75416377723125   -2.48283899916752   -2.32901660295800
N         1.20188762587410    0.06040593095304    0.13130317670957
C         2.25054799687332   -0.21504017094452    0.96472030521080
C         2.73027946841036   -1.63340881713604    0.90140513028119
C         3.56598287491620   -2.01564080511671   -0.13830075786069
C         4.08469663014988   -3.29725936953484   -0.18135600462235
C         3.75365060763025   -4.20433419767346    0.81050784140404
C         2.92022080124157   -3.82227967673912    1.84667509444338
C         2.40655655019794   -2.53461209576578    1.91699854518714
C         1.54943313651330   -2.11023847956466    3.06922727443816
O         2.75672602268171    0.64673340474561    1.64836662537334
H         2.51621347680847    5.49628261039926    1.04991835213197
H         3.62602222480293    5.50401937782617   -1.14111637929968
H         3.30385174270608    3.59505148625037   -2.68306846897889
H         1.90870845214178    1.69418373050182   -2.00303644486943
H         0.17256544126978    1.44296278352310    1.29030089569336
H        -0.46512854731718    1.53834058498433   -1.67722737510033
H        -4.12944175944511    4.37709433488376   -0.65950890873659
H        -4.99379286279760    3.58492535948382    1.50255638585554
H        -3.88281422037993    1.68910057808341    2.64325257147986
H        -1.94547547336465    0.60801709822375    1.61073407870161
H        -3.12510827477227   -1.44061555467880    1.18160747903228
H        -2.80556805816599   -2.93455882441348    2.07523311987876
H        -1.47341827437468   -1.86982886340352    1.63258570248929
H        -2.59160202498798   -4.92400206417002    0.89035590594165
H        -2.51335057888774   -6.15550650094290   -1.23484614088734
H        -2.25146262511132   -4.91978236275899   -3.36212170154152
H        -1.99739642625154   -2.46671742044440   -3.32561327876703
H         0.28387019970885   -1.85237622362104    0.08012936489246
H         1.95657649771237   -0.76131643332871   -3.37099454039451
H         3.83015304353661   -1.29105548396126   -0.89518892032651
H         4.75177437169609   -3.58275080232466   -0.97950675716544
H         4.15094572531283   -5.20774684558956    0.78218396711264
H         2.67239671586754   -4.52973177744945    2.62476857350866
H         2.10435127651890   -1.41224296100019    3.69606382359126
H         0.65224819335958   -1.59378721981950    2.73178537169924
H         1.25970401069585   -2.96732257925365    3.67125815402861
72
 energy: -136.650672166488 gnorm: 0.009351985332 xtb: 6.3.3 (4ae9cef)
C         1.56128632128837    3.59850389237428    0.75686263549330
C         0.84295442182333    3.69418975398004    2.07676866119404
F         1.12557005009506    4.81975716459666    2.74337065995871
F        -0.50564530726706    3.70278912467844    1.91098168689080
F         1.09097834496901    2.69152486557455    2.93043763149464
C         2.37352458472876    4.65996525245713    0.37495228898684
C         3.00483582320959    4.64939235163681   -0.85504334232496
C         2.83283306742601    3.57127389603685   -1.70411894609887
C         2.03934273688755    2.50768181714932   -1.31913726149504
C         1.38774672393194    2.50291750417545   -0.09135166686712
C         0.50687704585349    1.33689928920422    0.26688863256885
C        -0.70442976750561    1.17197221808200   -0.66817025490867
C        -1.92206798665540    1.86214592089924   -0.11655654389572
C        -2.54405428109705    2.93943565682809   -0.74470709831940
C        -2.01889995490669    3.48452274869506   -2.04395777216078
F        -0.74530488285497    3.93818975921219   -1.92374970146683
F        -2.72696576866239    4.52211716360897   -2.50252948905319
F        -1.98394994527890    2.58911090573552   -3.04378478109939
C        -3.65071320118096    3.54756685728972   -0.16328541741108
C        -4.13948885145248    3.09577256623417    1.04793194817085
C        -3.52281748142140    2.03278304632723    1.68356751850832
C        -2.42668998625689    1.42705099707533    1.10421346606821
N        -0.89007139150895   -0.27566852307761   -0.69457979386376
C        -2.03967940347923   -0.82147066520978   -1.20378271155751
C        -2.10993678507969   -2.31233111708275   -1.19053923917537
C        -2.30094642370272   -3.00180088276867    0.00841016790875
C        -2.42417388783182   -2.26658749334476    1.30985563118332
C        -2.43015604914444   -4.38338200928933   -0.03599224555070
C        -2.38944781931271   -5.06764522491061   -1.23807625630017
C        -2.22994796204159   -4.37206119666016   -2.42427334310623
C        -2.09624220052006   -2.99641156532752   -2.39933103688659
O        -2.94440353497056   -0.11580298870175   -1.59344200143942
C         0.37769479978133   -0.94151274245492   -0.50077393645469
C         0.94908187439634   -1.40613626417001   -1.86148386459845
O         1.59466461191206   -0.44021559497206   -2.50759927923328
O         0.78313763618370   -2.51351236884084   -2.29345588370858
N         1.19286178017968    0.05285568986530    0.14688927430421
C         2.26805565269880   -0.20886307406249    0.95138334817471
C         2.74091741732071   -1.62561938518426    0.89114427803709
C         3.56243647606261   -2.01393066979666   -0.15831926816816
C         4.07281148211127   -3.29850191202237   -0.20252769088095
C         3.74811605389091   -4.19937831839514    0.79759668468184
C         2.91897180304757   -3.81436918868815    1.83700160044932
C         2.41019388050392   -2.52418268787073    1.90635032644968
C         1.55119895382107   -2.09081108051255    3.05481511944724
O         2.78771995838081    0.65764605913648    1.61695133784767
H         2.50479299536415    5.49627940169010    1.04373036094995
H         3.62402318120514    5.48376943727306   -1.14486762130796
H         3.31348157410312    3.55937924437910   -2.67080103929260
H         1.91785465671434    1.66244868458157   -1.97621180085180
H         0.16060252431854    1.43287250686259    1.30033212945721
H        -0.45265266813142    1.52734979550302   -1.67243980543598
H        -4.12397009205772    4.37718764112723   -0.66463260915597
H        -4.99559045140883    3.57684476753213    1.49346531874420
H        -3.88985966867073    1.67698729601760    2.63406091592388
H        -1.94677440023916    0.59941505026750    1.60355862697824
H        -3.11861330651147   -1.43521580732516    1.19921673442923
H        -2.79235141656402   -2.92995744262275    2.08843993772537
H        -1.46254555248860   -1.86843764941036    1.63445469180975
H        -2.58118020138685   -4.92448129155512    0.88731558887706
H        -2.50141863142158   -6.14164626282331   -1.24740704990925
H        -2.21967742123353   -4.89726681667161   -3.36698351699105
H        -1.98301306743503   -2.44132104575990   -3.31867474479192
H         0.26582946752107   -1.85664732008163    0.10053849811908
H         1.92528752317934   -0.74695350785012   -3.36843415373343
H         3.81897654507004   -1.29343779357634   -0.92214790231869
H         4.72723770829717   -3.59104312267981   -1.00926075133382
H         4.14795320360455   -5.20198597113454    0.77301525719874
H         2.66959382751242   -4.52079859759320    2.61586640511103
H         2.10323497838304   -1.38790925582472    3.67884658317066
H         0.65368791396459   -1.57876731284205    2.70979884293220
H         1.25731714993935   -2.94253517499337    3.66341203190217
72
 energy: -136.651267438529 gnorm: 0.009941053101 xtb: 6.3.3 (4ae9cef)
C         1.55079903899811    3.59903782766066    0.76207275939735
C         0.81849069475693    3.70306145502957    2.07303062688783
F         1.09552006855149    4.83064157018513    2.73978753095171
F        -0.52916888530554    3.71307062848771    1.89261873650924
F         1.05460629894296    2.70089033073494    2.93338391843745
C         2.36462272103210    4.65819456728699    0.37546872528706
C         3.00639106305103    4.63540199966275   -0.84868450736973
C         2.84517729407988    3.54828905128850   -1.68869438912172