84
 energy: -123.904757994870 gnorm: 0.102851679714 xtb: 6.3.3 (4ae9cef)
C        -1.43199500000000    1.36806500000000    1.93015000000000
C        -2.11327900000000    2.25536900000000    2.76761800000000
C        -2.86885500000000    3.29077100000000    2.22333700000000
C        -2.94323700000000    3.44311200000000    0.84127400000000
C        -2.25246800000000    2.56536700000000    0.00158100000000
C        -1.48363300000000    1.51568800000000    0.53349200000000
C        -0.70143300000000    0.60461200000000   -0.40951500000000
C         0.82280300000000    0.64489100000000   -0.09545000000000
C         1.68346300000000    0.85768900000000   -1.33465700000000
C         1.50480400000000    0.11094000000000   -2.51108300000000
C         2.28810400000000    0.35111300000000   -3.64067900000000
C         3.27181800000000    1.33596100000000   -3.61025800000000
C         3.47078800000000    2.08185400000000   -2.45357000000000
C         2.68229800000000    1.84497200000000   -1.32485800000000
N         1.07743200000000   -0.62744600000000    0.59785000000000
C         1.99750600000000   -0.87488900000000    1.60308500000000
C         3.08263400000000    0.10022100000000    1.85342500000000
C         4.43248100000000   -0.06075500000000    1.44612200000000
C         5.01231600000000   -1.30032300000000    0.71486600000000
C         6.56477900000000   -1.38143900000000    0.78417100000000
C         4.63991200000000   -1.23817600000000   -0.77257400000000
C         4.52027100000000   -2.64295100000000    1.29507700000000
C         5.29158800000000    1.02502400000000    1.74432400000000
C         4.87316200000000    2.15259100000000    2.45966800000000
C         3.56861600000000    2.24339500000000    2.91793900000000
C         2.67947800000000    1.21857800000000    2.61704100000000
O         1.89463500000000   -1.83194200000000    2.36572200000000
C        -0.05187300000000   -1.55190000000000    0.46747600000000
C         0.39253100000000   -2.88608600000000   -0.21681100000000
O         1.41580300000000   -2.75592200000000   -1.09370200000000
O        -0.14963400000000   -3.98251000000000   -0.11287200000000
N        -1.06913600000000   -0.81163000000000   -0.27819500000000
C        -2.29997400000000   -1.38909200000000   -0.54469400000000
C        -3.26643100000000   -0.66056200000000   -1.41090300000000
C        -2.77020800000000   -0.37008400000000   -2.70331900000000
C        -3.55095300000000    0.27687900000000   -3.65248300000000
C        -4.85515400000000    0.60774200000000   -3.33252600000000
C        -5.37519500000000    0.27414100000000   -2.07589600000000
C        -4.61273100000000   -0.37205700000000   -1.06964800000000
C        -5.31810200000000   -0.77727300000000    0.25318000000000
C        -4.46013100000000   -0.61231700000000    1.52653000000000
C        -5.79261400000000   -2.24070200000000    0.13163900000000
C        -6.58529900000000    0.08036000000000    0.53998600000000
O        -2.59122800000000   -2.52119800000000   -0.17583900000000
H        -0.86678700000000    0.55825400000000    2.38805100000000
H        -2.06707700000000    2.12655900000000    3.84590300000000
H        -3.40334400000000    3.97588000000000    2.87660700000000
H        -3.53617600000000    4.25005100000000    0.41641000000000
H        -2.32575600000000    2.71056600000000   -1.07699200000000
H        -0.89861600000000    0.93171600000000   -1.43346900000000
H         1.03489700000000    1.47215500000000    0.58952700000000
H         0.76068800000000   -0.67630100000000   -2.55959400000000
H         2.13895100000000   -0.24059600000000   -4.53775300000000
H         3.89117500000000    1.51750200000000   -4.48585900000000
H         4.24714300000000    2.83985000000000   -2.42540800000000
H         2.86393900000000    2.44112500000000   -0.43565400000000
H         7.04971600000000   -0.56690900000000    0.23505600000000
H         6.93639400000000   -2.30905600000000    0.32976600000000
H         6.91930000000000   -1.35826300000000    1.82155300000000
H         3.55780100000000   -1.26341900000000   -0.91396000000000
H         5.02068700000000   -0.32277700000000   -1.23965100000000
H         5.06068200000000   -2.08577000000000   -1.32680800000000
H         3.50313800000000   -2.88189100000000    0.97432300000000
H         5.12976800000000   -3.48379000000000    0.94458800000000
H         4.56077200000000   -2.64829000000000    2.38960400000000
H         6.33218400000000    1.02453600000000    1.43286700000000
H         5.58459200000000    2.94555100000000    2.67539000000000
H         3.24826000000000    3.10324900000000    3.50228400000000
H         1.65814400000000    1.28811800000000    2.98222200000000
H        -0.44462500000000   -1.79946500000000    1.45972500000000
H         1.52791900000000   -3.67287700000000   -1.42011700000000
H        -1.76329800000000   -0.67496900000000   -2.98139700000000
H        -3.15233100000000    0.49437700000000   -4.63867900000000
H        -5.48982300000000    1.09444400000000   -4.06900700000000
H        -6.42256500000000    0.51998200000000   -1.91780600000000
H        -5.04682900000000   -0.85025500000000    2.42713700000000
H        -3.59126300000000   -1.26594800000000    1.57475800000000
H        -4.11984700000000    0.42288500000000    1.62771700000000
H        -4.96544900000000   -2.93985800000000   -0.01541300000000
H        -6.47477900000000   -2.36571600000000   -0.71903000000000
H        -6.33281500000000   -2.55952100000000    1.03332100000000
H        -7.39070400000000   -0.10899200000000   -0.17702800000000
H        -6.35195700000000    1.14912000000000    0.52382400000000
H        -7.00577300000000   -0.15133800000000    1.52697100000000
84
 energy: -123.921599914333 gnorm: 0.035886688034 xtb: 6.3.3 (4ae9cef)
C        -1.43263898655355    1.36616436704145    1.92016850937850
C        -2.11398577245078    2.24354067010568    2.75295703508942
C        -2.86318422765490    3.27789358685368    2.21508757939255
C        -2.93373141758506    3.42774621686455    0.83961301729142
C        -2.24872722949599    2.55348310305448    0.00707606541727
C        -1.48406656580722    1.51312856083440    0.53441967691779
C        -0.70302135868881    0.60026018474403   -0.40172150496966
C         0.82369896431374    0.63548006834686   -0.09995456213985
C         1.68532149679003    0.84995360914744   -1.33504908002867
C         1.50568016964770    0.11007597354880   -2.50248237464376
C         2.28772820773690    0.34718699265639   -3.62358890230221
C         3.26600753079993    1.32821422568068   -3.59733457738773
C         3.46090769763295    2.06803718987776   -2.44313936806363
C         2.67578653909178    1.83178727119010   -1.32279895769799
N         1.07192145990853   -0.63194377964747    0.59284530436969
C         1.98568530407948   -0.87961428585470    1.58991070523946
C         3.08715230553549    0.10326290289497    1.81892747603353
C         4.43671562398527   -0.06336820579152    1.43942951150692
C         5.01142922960421   -1.29802923077912    0.71050809052148
C         6.55425487630551   -1.35557631070689    0.79214140841959
C         4.62848629572830   -1.22880375949960   -0.77322551945470
C         4.50733076321120   -2.62884521032786    1.29652672996389
C         5.28877820066819    1.00758338096246    1.74585446376128
C         4.87438369825826    2.13018571210202    2.45016854041580
C         3.57369553489911    2.22213440598901    2.90612052177585
C         2.68890887505302    1.21039255252030    2.58196270827613
O         1.86202783884651   -1.84118976062299    2.32886585917998
C        -0.05484040786524   -1.54920407630086    0.46891027794338
C         0.35019570980322   -2.86237931867899   -0.24326104555988
O         1.39841425408340   -2.73570568395296   -1.08001266250409
O        -0.14471126413032   -3.94500879819192   -0.06925909713915
N        -1.07106330034859   -0.81211953988097   -0.27340253323816
C        -2.29905805817541   -1.38307674527466   -0.52604424128709
C        -3.26378940705235   -0.63213078014269   -1.38839307179815
C        -2.77532113974337   -0.35348462966628   -2.67416494315220
C        -3.55640418228424    0.26423194977460   -3.63246268623018
C        -4.85825968006042    0.59246550941040   -3.30975248248401
C        -5.36856149664287    0.26410474876702   -2.06089661235804
C        -4.61065132941178   -0.36283338517998   -1.05938039829236
C        -5.31795143242862   -0.77023837222616    0.25254109869242
C        -4.44672205292065   -0.60749130321006    1.50906965285498
C        -5.77838638034037   -2.23343210424790    0.12163923356290
C        -6.57751452642546    0.08621187332746    0.51846037982511
O        -2.56011903336363   -2.51511830924788   -0.16578274142710
H        -0.86389547564791    0.56175274199324    2.36922039413656
H        -2.06067874554049    2.11890891907368    3.82660634699605
H        -3.39292386132084    3.96224734649072    2.86573074305101
H        -3.52309441342597    4.23016148244909    0.41444211797543
H        -2.31643515657430    2.69220963934636   -1.06546793808601
H        -0.89401125493172    0.93104600838928   -1.42708965444513
H         1.03761422396772    1.46106048866634    0.58862904189907
H         0.75935149358101   -0.67032035419260   -2.54513210801780
H         2.13338577823128   -0.23650385881660   -4.52088020282002
H         3.87714761984187    1.51413731554822   -4.47200824445334
H         4.22787955562551    2.83072924133078   -2.41494771451461
H         2.84902808052202    2.42374485660834   -0.43321394987691
H         7.03438558147812   -0.54704160060294    0.24124714016881
H         6.90138542074597   -2.28699267236450    0.34020336422161
H         6.90287440289262   -1.34246682909604    1.82483617668020
H         3.54912517172381   -1.25649029057337   -0.90871919855947
H         5.00899847324594   -0.31565255191272   -1.23296385352916
H         5.05604443562977   -2.07779166869306   -1.30947419566902
H         3.48961758310841   -2.85655961355989    0.98955443265963
H         5.13154991765269   -3.45219032606186    0.94184321817320
H         4.54813615172186   -2.62747145810814    2.38442674190135
H         6.32232591169409    0.99575112369781    1.43457858827082
H         5.58051575130923    2.92389678442832    2.65989706563894
H         3.25021729465694    3.07523546927205    3.49085839366312
H         1.67029647812512    1.27118322050258    2.94744482674275
H        -0.43109276874971   -1.83207939955797    1.46446553798735
H         1.55572648599139   -3.64114057403552   -1.41276550843622
H        -1.77193099912760   -0.66147746401947   -2.94412858895346
H        -3.15552993206272    0.48380086684421   -4.61440211680113
H        -5.48926352358845    1.08632769581664   -4.03862069145732
H        -6.40622597458452    0.51080083127356   -1.89160224504221
H        -5.04413836394517   -0.84785078381930    2.39319240320940
H        -3.58617216244406   -1.26933871451114    1.53125082953823
H        -4.10713625349087    0.42373033900355    1.61042622682652
H        -4.93760910089934   -2.91114942090860   -0.01712871381518
H        -6.45771069950733   -2.35210113956304   -0.72512236605028
H        -6.31352400883844   -2.53802380241326    1.02360506008218
H        -7.37730395885421   -0.11054753788553   -0.19450337695499
H        -6.34267851916759    1.15014822626819    0.50954018543426
H        -6.97605696559724   -0.15761400257049    1.50507534855502
84
 energy: -123.927073918153 gnorm: 0.020713109039 xtb: 6.3.3 (4ae9cef)
C        -1.42664124760496    1.35665709381542    1.90957829637372
C        -2.10809318790287    2.22799698220740    2.74075591126775
C        -2.85730389461659    3.26103286065784    2.20643996402050
C        -2.92770142163663    3.40987963246272    0.83330029217589
C        -2.24448258925839    2.53954466305349    0.00352031444207
C        -1.48024087749253    1.50685423981694    0.52969865154504
C        -0.70286518464348    0.59688288017570   -0.40289523680282
C         0.82081518192778    0.62769884714135   -0.09711570175378
C         1.68149511279045    0.83855432969742   -1.32828080479693
C         1.49987943804216    0.10076342430941   -2.48983962435686
C         2.28113672653251    0.33783039051776   -3.60652604016696
C         3.25682497031297    1.31787766691158   -3.58193714599302
C         3.44927988418264    2.05489319632175   -2.42771490990679
C         2.66706698500605    1.81760876111306   -1.31166737201222
N         1.06146885518292   -0.63540205883327    0.59378624135460
C         1.97353504258593   -0.89228788839501    1.57966479889602
C         3.08396878752442    0.09849673720291    1.79176822085899
C         4.43129574491836   -0.06282361179656    1.42757906716088
C         5.00367819061916   -1.28910848766670    0.70474189160834
C         6.53863033295453   -1.33961766357698    0.79030294676004
C         4.61441015791963   -1.21960467148706   -0.77701648317995
C         4.49607849838439   -2.61098525998718    1.29869919777180
C         5.28191794451087    0.99603780338191    1.73983286775298
C         4.87124895386716    2.11430277608200    2.43903193386052
C         3.56842858529432    2.20807731429810    2.88524487307471
C         2.68718812459159    1.20098386774753    2.54791293161252
O         1.83110693085681   -1.86000148415829    2.29906163310168
C        -0.05874254588909   -1.54729697607218    0.47138379600412
C         0.35782898648050   -2.86127617419767   -0.20824295112109
O         1.36765670921927   -2.70040035859188   -1.07720306900524
O        -0.14859512892201   -3.92064047378511   -0.03164947375185
N        -1.07075705383733   -0.81021322169926   -0.27060299547833
C        -2.29516843204185   -1.38012788694575   -0.50885204740509
C        -3.25856370408753   -0.61249151751781   -1.36634915488795
C        -2.77201953234187   -0.33694482023953   -2.64406445147130
C        -3.55202482787870    0.26458499033171   -3.60974491704594
C        -4.85576680037891    0.58852879027116   -3.29031926332486
C        -5.36009965365137    0.26601893466863   -2.04618135949967
C        -4.60424990673947   -0.35096901584397   -1.05078190728623
C        -5.31046379908831   -0.75516304507757    0.24920451812789
C        -4.43102390813882   -0.59858233901882    1.49403266053739
C        -5.75441263739657   -2.22059674835614    0.11195575898452
C        -6.56760222567118    0.09236345542153    0.50814201289200
O        -2.52965778830580   -2.51464390073733   -0.15248843874998
H        -0.85360775467074    0.55421524806324    2.34901541565303
H        -2.05338876531829    2.10210584338294    3.81137345050701
H        -3.38420600270680    3.94410965824627    2.85584755569775
H        -3.51360703507242    4.21026095693404    0.40738069555939
H        -2.30761187567287    2.67063092511002   -1.06630373897188
H        -0.88683954771201    0.92982441879292   -1.42987426221143
H         1.03708797804057    1.45253662918003    0.59296981923412
H         0.74945908287752   -0.67314206854596   -2.52646841058082
H         2.12500513456460   -0.24176235935602   -4.50390879832508
H         3.86315682653418    1.50611279558129   -4.45557542120627
H         4.20984749605090    2.82121567481294   -2.39821930054877
H         2.83171615396049    2.40483500217531   -0.41957866301628
H         7.01057707533972   -0.53038517202020    0.24095337989185
H         6.88244004368710   -2.27081229569119    0.34411983321632
H         6.87661042742558   -1.32147574845928    1.82269785337853
H         3.53613548474523   -1.24950623639348   -0.90133319527007
H         4.99002495642565   -0.30529394743398   -1.23100250449261
H         5.04473007749116   -2.06843262617885   -1.30448413123080
H         3.47646314887008   -2.82553772094106    1.00308981135293
H         5.12173446651019   -3.42854489727098    0.94307924801215
H         4.53842790442424   -2.59805469720983    2.38336224297634
H         6.31544150186443    0.96410273848425    1.44179548545877
H         5.57764401071025    2.90286553161072    2.65357060259842
H         3.24330687870686    3.05056084010329    3.47783116364301
H         1.66594836934504    1.25881168709936    2.90045692899409
H        -0.42592794289782   -1.85413546690314    1.46740574087677
H         1.57148137041762   -3.58441138789242   -1.43987212173525
H        -1.76508698826447   -0.63688290889521   -2.89941553503061
H        -3.15273911967234    0.47033980271970   -4.59228194946833
H        -5.48986645560115    1.07188270979282   -4.01914049448795
H        -6.39447298753156    0.50194974240288   -1.86851144206819
H        -5.02456715831162   -0.84033463970162    2.37395702930344
H        -3.57922497412391   -1.26841580729790    1.48687508356104
H        -4.08396950191000    0.42772425546306    1.58978088802959
H        -4.89784324339975   -2.87511787792763   -0.02194403615968
H        -6.42537424823197   -2.33836968021994   -0.73661672112442
H        -6.28670210863955   -2.52388658680379    1.01128878884587
H        -7.35941382687158   -0.11364452357209   -0.20573831315285
H        -6.33373687236575    1.15378284959598    0.49374004100195
H        -6.95752077519689   -0.15401269445970    1.49351254910178
84
 energy: -123.929084674677 gnorm: 0.016795979941 xtb: 6.3.3 (4ae9cef)
C        -1.41996513535734    1.34430201964846    1.90234871086161
C        -2.10256595359229    2.21284090185001    2.73471344757106
C        -2.85442069141216    3.24544660928794    2.20094615738159
C        -2.92718062342858    3.39683974574913    0.82732843216917
C        -2.24432984358855    2.52857765378084   -0.00440670873736
C        -1.47831222822445    1.49893510289706    0.52321172145137
C        -0.70215576413871    0.59264148732839   -0.40587010025491
C         0.81608000045479    0.62515602015019   -0.08995997573417
C         1.67604218553999    0.82962238598092   -1.31800056104543
C         1.49122968907130    0.08958782990401   -2.47750163469378
C         2.27339235008091    0.32625483833522   -3.59342322795945
C         3.24918685897403    1.30716227916377   -3.56824544418194
C         3.44228813984650    2.04554166908352   -2.41393804846752
C         2.66132046185382    1.80803092899007   -1.29788734925399
N         1.05136618580311   -0.63611354477144    0.59732222337659
C         1.96777102459631   -0.90718341572879    1.57175182342711
C         3.07635014258566    0.08827904064158    1.77894101272876
C         4.42268836451715   -0.06427806761012    1.41779303649895
C         4.99336352847391   -1.28349665070174    0.69600609283572
C         6.52639670486002   -1.33072812575804    0.78051110811228
C         4.59691881336602   -1.21401639728595   -0.78426061329650
C         4.48492597003488   -2.59944213815102    1.29933771417265
C         5.27441237806220    0.99086123570668    1.73623939014349
C         4.86177363739699    2.10757029029671    2.43472098048366
C         3.55329868912415    2.20237740608754    2.86686772661185
C         2.67431374959192    1.19427262389993    2.52464989983967
O         1.81956771535766   -1.88345474606172    2.27913316088299
C        -0.06686629104840   -1.54510064657277    0.47784249086644
C         0.34241505054936   -2.85530198698981   -0.21523656084948
O         1.34844846800716   -2.67379225822715   -1.08425414126985
O        -0.11872160533042   -3.93330309866621    0.02178374163912
N        -1.07327052248022   -0.80976601209137   -0.26528226282072
C        -2.29485378143229   -1.38129419270557   -0.49867524938674
C        -3.25374092051300   -0.60324376158550   -1.35155465845519
C        -2.76159697605431   -0.32283683762463   -2.62420832113009
C        -3.54056608475407    0.27161026556462   -3.59557363544181
C        -4.84866817683131    0.58985458060087   -3.28485323741806
C        -5.35353954560821    0.27562747406092   -2.03981657275740
C        -4.59730408636384   -0.33651500568765   -1.04345282307416
C        -5.29915039406691   -0.74006945200872    0.25005676995709
C        -4.41146208623121   -0.58554847730970    1.48745128419229
C        -5.72615008623933   -2.20981372036930    0.10510829224281
C        -6.55922063656789    0.09971725046826    0.50824797120848
O        -2.52052696187209   -2.51816737802059   -0.14374620538590
H        -0.84238920616317    0.54131508027290    2.33486030961499
H        -2.04731644539881    2.08417620398710    3.80473001251434
H        -3.38131304614421    3.92656183223703    2.85128437798300
H        -3.51402444190492    4.19615365421380    0.40156161566945
H        -2.30567042389243    2.65463196093662   -1.07491353625654
H        -0.87952277130275    0.92460919169859   -1.43426609949173
H         1.03199376319360    1.45049183475329    0.59937811767141
H         0.73829989343303   -0.68195274316223   -2.50933951854446
H         2.11714050971403   -0.25316882306703   -4.49077677124640
H         3.85371385367144    1.49598438635044   -4.44212815291037
H         4.20086426404610    2.81339290930058   -2.38370999457690
H         2.82133683454767    2.39159509933590   -0.40275093210493
H         6.99339093165991   -0.51983695903540    0.22954225476318
H         6.87575928501136   -2.26154394170614    0.34006870492446
H         6.85848529439602   -1.30364556802050    1.81500171940618
H         3.51783081591182   -1.24534453477618   -0.89953625265593
H         4.96603842333687   -0.29625300323235   -1.23606088453320
H         5.02699679050939   -2.06005317709247   -1.31466254761855
H         3.46202430126376   -2.80730445374769    1.01256457184420
H         5.10363240501743   -3.42152394676166    0.94653349566721
H         4.53284927514126   -2.57415459179025    2.38413388412327
H         6.31014614946012    0.94859473250935    1.44810731264858
H         5.56975439396451    2.89179949516463    2.65787501848844
H         3.22390154925975    3.04071386251605    3.46068956119663
H         1.64851818252839    1.25275889405013    2.86308603369147
H        -0.43055911435711   -1.85583006877142    1.47550834961764
H         1.60565917121875   -3.54602701784591   -1.44488556309733
H        -1.74937282784379   -0.61419151333440   -2.86802765147113
H        -3.13945082249827    0.46849332775713   -4.57791205225979
H        -5.48527200537989    1.06264761015389   -4.01756859362388
H        -6.38836253384187    0.50540857027569   -1.85881623968116
H        -4.99471873613888   -0.82615881323098    2.37286134010787
H        -3.56481227524156   -1.25999433882955    1.46371814062028
H        -4.05607091344912    0.43816546517966    1.57638545398788
H        -4.85653190122852   -2.84718927299275   -0.02740107145073
H        -6.38741772954969   -2.33128778446017   -0.74997319503573
H        -6.25861970234652   -2.52335242265305    0.99985572721554
H        -7.34862104705138   -0.11580057031852   -0.20553316321110
H        -6.33024376952189    1.16227016160761    0.48387303496491
H        -6.94703308704261   -0.14279445302048    1.49447732600860
84
 energy: -123.930315677307 gnorm: 0.011710612657 xtb: 6.3.3 (4ae9cef)
C        -1.41614363713567    1.33242317828501    1.89611975759830
C        -2.09988428067063    2.19827765828280    2.73053457001753
C        -2.85501143209407    3.22977849309633    2.19707229042076
C        -2.93165708847015    3.38456230266651    0.82329187164162
C        -2.24869861870473    2.51852876324898   -0.01166152357442
C        -1.47996849663038    1.49077943519374    0.51684725798911
C        -0.70189425184373    0.58636911661429   -0.40734980454306
C         0.81116843845300    0.61911452093913   -0.08148614208449
C         1.67291119339113    0.81934592365299   -1.30597792953306
C         1.48411810423248    0.07755396113884   -2.46469624563454
C         2.26699766272029    0.31293923398251   -3.58068229692705
C         3.24307440507323    1.29457271133802   -3.55488989856029
C         3.43834896246914    2.03518176616197   -2.40158094847233
C         2.65835145090708    1.79816686570481   -1.28436644520244
N         1.03993704950606   -0.63869326787269    0.60978248411482
C         1.96276832193943   -0.91985767482611    1.57412952360707
C         3.06632168247628    0.07914555442998    1.77483930461626
C         4.41259979356319   -0.06627497104736    1.41274601706040
C         4.98141283567785   -1.28053378123251    0.68672399655839
C         6.51510507900449   -1.32369025758563    0.76448678878957
C         4.57436044673206   -1.21017786130178   -0.79141391779175
C         4.47654457999593   -2.59406411660870    1.29774656533223
C         5.26337986045548    0.99012260204720    1.73617292698548
C         4.84545837549584    2.10633252697122    2.43366282238982
C         3.53157684553933    2.20227600628164    2.85096880398756
C         2.65574271086515    1.19173321205259    2.50780091230170
O         1.81790717059121   -1.90304110800134    2.27357135302434
C        -0.07612216656577   -1.54776227387989    0.48908202797883
C         0.35329805041754   -2.86036985135946   -0.19443328896104
O         1.33020415585653   -2.65243325357035   -1.09068291742156
O        -0.08366108184288   -3.94359284203323    0.05830632579151
N        -1.07345849075704   -0.81390431381714   -0.26304072209088
C        -2.29213013569763   -1.38627165892659   -0.49950104400551
C        -3.24634117654187   -0.59812162270498   -1.34504232273708
C        -2.74729178893451   -0.31016005924112   -2.61431352186334
C        -3.52471240861447    0.28167210005071   -3.58833432752312
C        -4.83632214808510    0.59476556745231   -3.28574428038162
C        -5.34379685513295    0.28837665278492   -2.03875286139987
C        -4.58758988585054   -0.32232803933065   -1.03937030340184
C        -5.28327523332404   -0.72595147084120    0.25324837612350
C        -4.38881461105069   -0.56680317772468    1.48565080537599
C        -5.69359147069916   -2.20037392584987    0.10171851501703
C        -6.54850178777954    0.10626007891611    0.51295637256406
O        -2.51447566475355   -2.52676721329819   -0.15079651004064
H        -0.83398203646565    0.52888445960903    2.32277696447854
H        -2.04259872332232    2.06762750449901    3.80056752928144
H        -3.38266893274032    3.90850104034839    2.84933019790312
H        -3.52149943272965    4.18285403775910    0.39892899169028
H        -2.30972954883083    2.64113083114696   -1.08326384168334
H        -0.87101540733676    0.91708768520779   -1.43701869757387
H         1.02260862406956    1.44709824915315    0.60515051700247
H         0.72910338131065   -0.69234039133311   -2.49288956282926
H         2.11045041686174   -0.26733840221000   -4.47775018405748
H         3.84652091682227    1.48303784828350   -4.42967609296427
H         4.19651395473057    2.80353855249726   -2.37176406587220
H         2.81549657138511    2.37916812021222   -0.38692218896134
H         6.97800609598938   -0.51317904851708    0.20746697179142
H         6.86738564409352   -2.25564887663635    0.32888873257191
H         6.84851815934655   -1.28885802711825    1.79937380244229
H         3.49402132383568   -1.24443894465267   -0.89872778527545
H         4.93524202011672   -0.28847371569368   -1.24339919651353
H         5.00388273473837   -2.05180393354642   -1.32933037994267
H         3.45128697919119   -2.80233384626433    1.01946317645979
H         5.08992303957405   -3.42098912286823    0.94808728523462
H         4.53135336977764   -2.55851778838830    2.38294094260966
H         6.29985536428725    0.94644701461131    1.45176560139501
H         5.55370676146952    2.88834599390570    2.66443572131009
H         3.19476963127424    3.04282635115702    3.43698716001221
H         1.62663236622889    1.25021862477167    2.83663891335897
H        -0.44787826792444   -1.85402923349712    1.48422641159516
H         1.61189085509351   -3.50684882872152   -1.46779487894257
H        -1.73248309865165   -0.59784513703207   -2.85192865403160
H        -3.11902662189461    0.47785138395406   -4.56850140273786
H        -5.47418207708050    1.05929527865309   -4.02287645850928
H        -6.37860458723251    0.51876029708714   -1.85567301605288
H        -4.96367546180820   -0.80199424177708    2.37815814805408
H        -3.54563671154137   -1.24376412861996    1.45760434198748
H        -4.02745485959754    0.45589004713218    1.56622918841365
H        -4.81316194458352   -2.82383186788512   -0.02864263219789
H        -6.34496812338568   -2.32727435974517   -0.76100633840072
H        -6.22785979252196   -2.52666075334832    0.99098807364461
H        -7.33994473639382   -0.12059678871884   -0.19665497533115
H        -6.32767538588754    1.17126211566380    0.47767805961393
H        -6.93137192445102   -0.13016348931775    1.50279120389063
84
 energy: -123.931327696344 gnorm: 0.009627760757 xtb: 6.3.3 (4ae9cef)
C        -1.41592529669057    1.32105385414874    1.89170119183488
C        -2.10025508534500    2.18403132939079    2.72867888090746
C        -2.86078707799069    3.21214617589917    2.19554120005234
C        -2.94313675390888    3.36900957645927    0.82214038862646
C        -2.25895944435619    2.50620896655890   -0.01633444250643
C        -1.48589194188563    1.48118571655084    0.51211466643581
C        -0.70317111504813    0.57810332860450   -0.40731538505741
C         0.80528615759979    0.61234374981208   -0.07022073471347
C         1.67185546507653    0.80733676006021   -1.29110570613699
C         1.47882011834044    0.06458625971314   -2.44953898389800
C         2.26184834202674    0.29727436287783   -3.56613437268005
C         3.23873953987728    1.27844181602921   -3.54029240648846
C         3.43722977714264    2.02119217336553   -2.38877596007241
C         2.65822085291333    1.78578745405207   -1.26984163161887
N         1.02574813718914   -0.64049579627607    0.63102057940599
C         1.95729977731995   -0.93086750785823    1.58330667269815
C         3.05320901440724    0.07146996602318    1.77784768658502
C         4.39910396832731   -0.06735677986066    1.41191038825427
C         4.96626700097791   -1.27843335436790    0.67794161583784
C         6.50163836534267   -1.31698840352528    0.73888042945527
C         4.54370840334978   -1.20721213410187   -0.79639163705439