60
 energy: -127.791614885875 gnorm: 0.120094243905 xtb: 6.3.3 (4ae9cef)
C        -2.71562800000000    1.89823700000000   -0.83566000000000
C        -2.21655800000000    2.24276300000000   -2.22384300000000
F        -2.18940000000000    1.16097700000000   -3.04700700000000
F        -0.94938900000000    2.73925000000000   -2.20321100000000
F        -2.96806400000000    3.17960400000000   -2.86512500000000
C        -3.91197800000000    2.49966400000000   -0.39338200000000
C        -4.43285100000000    2.22847100000000    0.86831000000000
C        -3.76928700000000    1.34988500000000    1.71092100000000
C        -2.58451800000000    0.74259000000000    1.29373400000000
C        -2.03069300000000    0.99778400000000    0.02240000000000
C        -0.72693800000000    0.31349900000000   -0.39311700000000
C         0.52262600000000    0.75846700000000    0.42825200000000
C         1.41701700000000    1.73608500000000   -0.32941500000000
C         1.61922800000000    3.06884500000000    0.10933600000000
C         0.93039800000000    3.62981600000000    1.33444400000000
F        -0.42539600000000    3.53234800000000    1.23825900000000
F         1.19004200000000    4.94495300000000    1.56629600000000
F         1.26455400000000    2.97488600000000    2.47808900000000
C         2.47669400000000    3.91055300000000   -0.62644900000000
C         3.11736900000000    3.45904200000000   -1.77833700000000
C         2.91188000000000    2.15792700000000   -2.21843100000000
C         2.07245600000000    1.30508300000000   -1.50329900000000
N         1.20881000000000   -0.50755900000000    0.68982000000000
C         2.39915500000000   -0.58988300000000    1.38169500000000
C         3.21882100000000   -1.76871400000000    1.19009400000000
C         3.34291100000000   -2.52384500000000    0.03969200000000
O         4.20965400000000   -3.55073300000000    0.22678700000000
C         4.68371300000000   -3.44297500000000    1.49372400000000
C         4.12239600000000   -2.35684400000000    2.12192000000000
O         2.68618100000000    0.27717600000000    2.20213300000000
C         0.25489900000000   -1.59939200000000    0.65979100000000
C        -0.35499100000000   -1.94748600000000    2.06045100000000
O         0.05630500000000   -1.18745200000000    3.10481300000000
O        -1.19863300000000   -2.81973700000000    2.22924100000000
N        -0.81840900000000   -1.15129200000000   -0.22324100000000
C        -0.87543200000000   -1.89782400000000   -1.40085900000000
C        -1.76852800000000   -3.03942100000000   -1.37102500000000
C        -1.79928800000000   -4.02166000000000   -2.34212200000000
O        -2.72615400000000   -4.96801900000000   -2.04890600000000
C        -3.31634800000000   -4.59094900000000   -0.88775600000000
C        -2.77322000000000   -3.41234500000000   -0.43327400000000
O        -0.17976900000000   -1.62615200000000   -2.37502600000000
H        -4.45094600000000    3.19310900000000   -1.03862600000000
H        -5.35744500000000    2.70052900000000    1.19143900000000
H        -4.17349400000000    1.12873300000000    2.69558900000000
H        -2.11120400000000    0.05675300000000    1.98884900000000
H        -0.55409400000000    0.50859400000000   -1.45312000000000
H         0.23218500000000    1.15674500000000    1.40459200000000
H         2.64868100000000    4.93710000000000   -0.30183100000000
H         3.77335100000000    4.12421500000000   -2.33417300000000
H         3.40419000000000    1.80473300000000   -3.12107700000000
H         1.93099600000000    0.29229600000000   -1.88115000000000
H         2.90806200000000   -2.46463600000000   -0.94992100000000
H         5.40205000000000   -4.19457600000000    1.79092900000000
H         4.32903700000000   -2.02736500000000    3.13193400000000
H         0.73069700000000   -2.51612700000000    0.29670400000000
H         0.71662200000000   -0.48365700000000    2.93501900000000
H        -1.23743600000000   -4.18283200000000   -3.25117300000000
H        -4.09119900000000   -5.24991400000000   -0.51889700000000
H        -3.07369200000000   -2.88932400000000    0.46419300000000
60
 energy: -127.806298676818 gnorm: 0.049075549254 xtb: 6.3.3 (4ae9cef)
C        -2.70908978214971    1.89378496678134   -0.81789106068027
C        -2.20880885574764    2.23295175811857   -2.19989489733917
F        -2.18581453820624    1.16287577085489   -3.02705166971949
F        -0.94986016615798    2.73318648217309   -2.19498161998442
F        -2.96301262363709    3.15940084584024   -2.82902728130529
C        -3.89659320882377    2.49222201819099   -0.39252572683776
C        -4.41726796014320    2.22130105690837    0.86006477617841
C        -3.75336019021487    1.34268408917725    1.69702366326163
C        -2.57268638646906    0.74396649643993    1.28125634723508
C        -2.02050174308234    1.00346285834819    0.02610603267122
C        -0.72372646991281    0.32017818673552   -0.39364287246783
C         0.51949063602949    0.76240102130185    0.43349190781607
C         1.41755639547053    1.73093529038568   -0.31928329435731
C         1.62217050035679    3.05469389067334    0.10255238863793
C         0.93013687018622    3.61096708422821    1.32015869113047
F        -0.42127317012411    3.52436691380455    1.22888827371806
F         1.19531974625557    4.91556431919703    1.53876877184455
F         1.25736376249814    2.97395571174413    2.46615977973125
C         2.46680611544551    3.89763584824665   -0.62137408954089
C         3.10444868415163    3.44869974333345   -1.76432603632416
C         2.89684328147546    2.15041245914657   -2.19770931731351
C         2.06464911300665    1.30366751080006   -1.48097972304991
N         1.20425364838305   -0.51103958601448    0.68078086249419
C         2.38672818506090   -0.59121688562058    1.39465392099294
C         3.20888555335362   -1.78049518520132    1.18529290118497
C         3.32290372967979   -2.53936779840171    0.04393835146942
O         4.21270252390533   -3.52979666115695    0.22490852172425
C         4.67823038462723   -3.42822349186355    1.48853070622588
C         4.11548938407414   -2.36170831582586    2.11868137343096
O         2.71107738435268    0.30923296984991    2.15797497105524
C         0.24196978988421   -1.59061435992886    0.66050564672645
C        -0.36457169040393   -1.91188761403911    2.05968880357447
O         0.05872740031678   -1.18699280634845    3.10430771062969
O        -1.16845777050840   -2.78809453804463    2.21294031986755
N        -0.82719153584250   -1.14064397166655   -0.21928907077131
C        -0.87702849742019   -1.89648160969530   -1.41484024120206
C        -1.76517150977534   -3.04732680729108   -1.37757390224948
C        -1.79648080696843   -4.02901708264019   -2.34354034840094
O        -2.72053438471328   -4.95250084283801   -2.04691802920310
C        -3.30765587330597   -4.57577662966932   -0.88896774076349
C        -2.76481212560199   -3.41590361070405   -0.42964904075268
O        -0.20700106998066   -1.60916666103304   -2.38737191442046
H        -4.42388311073530    3.17862906547541   -1.04303040936902
H        -5.33678926958160    2.69391518295382    1.17894389440457
H        -4.15231147975434    1.12318536713387    2.67859367591677
H        -2.09223791731603    0.05479581353135    1.96031819985597
H        -0.53487260669916    0.51192547359531   -1.45298734157431
H         0.20216461669347    1.19165224010862    1.39108246757845
H         2.62995899140259    4.91623476977338   -0.29227620609370
H         3.75638252477741    4.11254215050104   -2.31663262892079
H         3.38365784440888    1.79694145403464   -3.09743793572142
H         1.91211090886606    0.29664398612673   -1.84822279829541
H         2.89333321879139   -2.46671655330175   -0.93887048510638
H         5.39368741565884   -4.16977408670309    1.79183059120254
H         4.31289927917180   -2.03083696427744    3.12050878165773
H         0.70344288518313   -2.51825680576376    0.29793436519630
H         0.72227015805293   -0.49478794211329    2.93057266776432
H        -1.23586346127843   -4.17994555180257   -3.24685722627141
H        -4.07919569115127   -5.22423991034140   -0.51636620571752
H        -3.04960903581457   -2.89420152322765    0.46305674857615
60
 energy: -127.810654132282 gnorm: 0.022197896377 xtb: 6.3.3 (4ae9cef)
C        -2.69623597004664    1.89172418072183   -0.80673132647700
C        -2.19343685392305    2.22732136576184   -2.18366136503540
F        -2.17398347150699    1.16238248739807   -3.00826137658174
F        -0.93939382819519    2.72523533320053   -2.18454065941107
F        -2.94589797346718    3.14637292824056   -2.80527687662688
C        -3.87905904907389    2.48759500990150   -0.39080089243847
C        -4.39812508761713    2.21329674047477    0.85869169681138
C        -3.73154262518132    1.33343074698933    1.69127243018370
C        -2.55466205222670    0.73840185574543    1.27324791697056
C        -2.00790724286678    1.00349433879391    0.02526863168327
C        -0.71984926053879    0.32339957207992   -0.39702869942388
C         0.51159366503825    0.76372612839745    0.44154285459443
C         1.40981089229384    1.72342469769242   -0.30729352798744
C         1.61761589018308    3.04126769904264    0.10415669682034
C         0.92190381591893    3.59721134254344    1.31457948325256
F        -0.42558418430617    3.51625373365573    1.21823184477588
F         1.18972808847906    4.89308751000784    1.52345920531551
F         1.23862706826978    2.97050726772395    2.46098264308486
C         2.45571466776126    3.88423232845419   -0.61296027703881
C         3.09170312822523    3.43240120018350   -1.75165188675929
C         2.88222143410574    2.13358047627042   -2.17870919218381
C         2.05227112594932    1.29228198094204   -1.46059085054466
N         1.20308252962001   -0.50832664611483    0.66696355123802
C         2.38844325308030   -0.57262053410299    1.38006752372300
C         3.19018092639205   -1.78714263269555    1.17703610310662
C         3.30465587380004   -2.55052537028282    0.04362573240502
O         4.19385744596526   -3.52707967770535    0.22804071797798
C         4.66892334935288   -3.41398015988047    1.48171616397603
C         4.09615235665862   -2.36234630806378    2.11635485343669
O         2.74385465303738    0.34905335515128    2.09700175872419
C         0.23186445043595   -1.57971191982966    0.66366177741344
C        -0.35504489596387   -1.90260235445948    2.06730265966224
O         0.04897119516150   -1.16569868448224    3.09727729306780
O        -1.17153922616443   -2.75879699500967    2.20229245343618
N        -0.83540313827062   -1.13158426298135   -0.21623801288756
C        -0.87757030835845   -1.88694972221322   -1.43262638007698
C        -1.75135009006500   -3.05121113354876   -1.38176076141485
C        -1.79372434745244   -4.03286707695853   -2.34538953888417
O        -2.71350903989489   -4.94072628246104   -2.04488025042838
C        -3.29302366955137   -4.56390553681994   -0.88638177121621
C        -2.74635928034822   -3.41417240401956   -0.42433798165963
O        -0.23648838391805   -1.57287188308352   -2.40713645728101
H        -4.39770890252451    3.16866709161168   -1.04683290085311
H        -5.31623291552701    2.68290893674577    1.17459954746703
H        -4.12840238195463    1.10868081446953    2.66890207910171
H        -2.06431585666346    0.04426237579868    1.93665994174273
H        -0.51590745367213    0.51361341401796   -1.45482573960748
H         0.17718047646124    1.20529982140797    1.38831925528101
H         2.60892537884135    4.89885344486592   -0.28121028215324
H         3.73979785447355    4.09498996311520   -2.30373925654352
H         3.36396648668884    1.77743913013188   -3.07624562568555
H         1.89388153459090    0.28449441347492   -1.81211099820347
H         2.87085515765762   -2.46874281689300   -0.93257410549701
H         5.39073683495979   -4.14186030985471    1.79188111302126
H         4.28482514572103   -2.02288625009997    3.11209348405070
H         0.67467096626674   -2.51803260237391    0.30161956319683
H         0.72622178039608   -0.49369336795148    2.91492104864711
H        -1.23254614172245   -4.17124871878602   -3.24679332087908
H        -4.06696374788245   -5.20049532821709   -0.50829169399098
H        -3.01047204690182   -2.88881370612315    0.46710898360258
60
 energy: -127.812285246854 gnorm: 0.017948115670 xtb: 6.3.3 (4ae9cef)
C        -2.68423128152955    1.89475701681381   -0.80397010269938
C        -2.17663266243436    2.22878846505202   -2.17858078409809
F        -2.15833122639841    1.16283040453923   -2.99907687042116
F        -0.92248912216269    2.72137231090600   -2.17609891185090
F        -2.92406159984963    3.14671787404460   -2.80013069635455
C        -3.86668617090303    2.48825149161680   -0.38706073112549
C        -4.38363633589965    2.20645226603015    0.86243304474227
C        -3.71563194348265    1.32309944022211    1.69105716819306
C        -2.54046904542513    0.72981353827833    1.26959219081692
C        -1.99882475010021    1.00243348225270    0.02150615167154
C        -0.71785779325605    0.32354683685115   -0.40198550246335
C         0.50348668408165    0.76119573802665    0.44634813204019
C         1.40188720496382    1.71733699321745   -0.29628195708374
C         1.60889002453355    3.03433319195553    0.11066168327282
C         0.90653063050883    3.59205991376647    1.31580407496802
F        -0.43949778305793    3.51145110285290    1.20772207240492
F         1.17363280606484    4.88478485979337    1.52204547835933
F         1.21195259410185    2.96714472575460    2.46340357013410
C         2.44702163347563    3.87495556797258   -0.60737027761598
C         3.08271947440813    3.41647877539711   -1.74441438521496
C         2.87390979485815    2.11528532306306   -2.16585978375540
C         2.04496224249309    1.27729652491379   -1.44503401707338
N         1.19759839304988   -0.50803739330745    0.66002100696634
C         2.38864626313281   -0.55734553692794    1.36172785149296
C         3.17071104993067   -1.79008139387420    1.17202883914275
C         3.28582127895725   -2.55928197091596    0.04339688220243
O         4.18290661696689   -3.52527312088577    0.22730231638817
C         4.65518876507811   -3.40848298082793    1.47984435840722
C         4.08157969910303   -2.35564710615912    2.11268636410801
O         2.77301167008212    0.38532304066550    2.03469651918228
C         0.22191372627799   -1.57560957997415    0.66439485828539
C        -0.37873624827983   -1.87191749002540    2.06888692074445
O         0.06203080143034   -1.15699159987065    3.09711174892444
O        -1.17583085800388   -2.74993289889301    2.20927617736612
N        -0.83908821745493   -1.12787278595650   -0.22079242814540
C        -0.87631110959592   -1.87675011187600   -1.45013921579562
C        -1.73297831381711   -3.05190680517153   -1.38681222012966
C        -1.79042789489471   -4.03353118009585   -2.35042915861719
O        -2.70974313097918   -4.93441527057926   -2.04383812482787
C        -3.27715988089614   -4.55645989273980   -0.88033074631525
C        -2.72056150093847   -3.41057732081494   -0.41947381525164
O        -0.26340026236197   -1.53251262070786   -2.43147728242504
H        -4.38185860385154    3.16959258322127   -1.04400932126157
H        -5.30139340691442    2.67380209586301    1.17983089743590
H        -4.10993581393360    1.09363751562109    2.66790017385746
H        -2.04339665563032    0.03048770755893    1.92225396691512
H        -0.50285809424455    0.51430650971212   -1.45737657734524
H         0.16001745447177    1.19936260692897    1.39033191394708
H         2.59600982468128    4.88940588842421   -0.27602841313267
H         3.72988879525881    4.07691356073383   -2.29853881136451
H         3.35372076500217    1.75443394642933   -3.06160272446107
H         1.88222860826393    0.26642299285770   -1.78529413348981
H         2.84114975817756   -2.47621666464795   -0.92795682483926
H         5.38534730417070   -4.12560432856657    1.79561537570735
H         4.26427242005312   -2.00696571014116    3.10592708651603
H         0.65342620844934   -2.52247284678084    0.30951553676525
H         0.74052806419443   -0.49144194442173    2.89976198980223
H        -1.23037576775631   -4.16398188361300   -3.25407553699968
H        -4.05486327002056   -5.18370861932331   -0.49446103004067
H        -2.96372381214907   -2.88105623423849    0.47541303343831
60
 energy: -127.813519904125 gnorm: 0.016726186110 xtb: 6.3.3 (4ae9cef)
C        -2.67402166951751    1.90052691162006   -0.80360990404495
C        -2.15913744016612    2.23560336199234   -2.17612300805002
F        -2.14148299602532    1.16786338877015   -2.99463082489695
F        -0.90223441874874    2.72099903272055   -2.16542518256052
F        -2.89920761954518    3.15704677592146   -2.79955359143052
C        -3.85628779507728    2.49305526330062   -0.38049052229514
C        -4.37064012919423    2.20158068658647    0.86912324642485
C        -3.70348138411992    1.31212040752903    1.69273210912280
C        -2.53095463874045    0.71862885539879    1.26611740904215
C        -1.99373216973149    0.99998714751569    0.01618858833772
C        -0.71727876544005    0.32205313295693   -0.40602432751176
C         0.49566425772575    0.75555785215968    0.45108822753572
C         1.39430414105750    1.71164960898703   -0.28443521285859
C         1.59745347337356    3.02991006857298    0.11874683051066
C         0.88458606419267    3.58969142162235    1.31795920892926
F        -0.46121110875289    3.50782091014788    1.19275457881527
F         1.14950803105092    4.88159720407461    1.52591933220296
F         1.17490213375481    2.96265152724043    2.46822429936800
C         2.43822658548680    3.86672408930821   -0.60328216765100
C         3.07510889329224    3.39988921830873   -1.73775215359782
C         2.86900270809798    2.09584182132657   -2.15329110820598
C         2.04042432655850    1.26113158036669   -1.42943585487774
N         1.18973108678728   -0.51165782971872    0.65818929340853
C         2.39142543795722   -0.54496318847465    1.33622980757699
C         3.15378788364412   -1.79274122418529    1.16617323335126
C         3.26809241481718   -2.56908327372649    0.04190706933108
O         4.16664734748536   -3.53291763034503    0.22933165818428
C         4.64194320389942   -3.40638969072227    1.47945373447748
C         4.07022263882088   -2.34724233990009    2.10709355772750
O         2.80437021727894    0.41736512726664    1.96182942537177
C         0.21234617371189   -1.57725100781910    0.66547176855317
C        -0.37944330977288   -1.86213043895826    2.07786464049739
O         0.06465316716906   -1.13135463341497    3.09265860967939
O        -1.19781016874955   -2.72272782562926    2.22296638718141
N        -0.83967416790707   -1.12789857393275   -0.22981320105181
C        -0.87536617263806   -1.86507631796419   -1.46964951326130
C        -1.70878314492019   -3.05314636696516   -1.39372129692612
C        -1.78536628366165   -4.03353372666783   -2.35881813001116
O        -2.70522552623718   -4.93054029092767   -2.04196319340748
C        -3.25547689899785   -4.55115326783235   -0.87018874793368
C        -2.68624443931822   -3.40736706974697   -0.41468599595342
O        -0.29518911693225   -1.48704128214068   -2.45982218971802
H        -4.36905499502836    3.17937685638123   -1.03458199307246
H        -5.28792099223985    2.66727307833232    1.19071676180631
H        -4.09519076052394    1.07753347734198    2.66981820733484
H        -2.02972807467734    0.01283752880460    1.90898388201629
H        -0.49271018060758    0.51481643880281   -1.45845084081748
H         0.14600777744060    1.18476806879113    1.39574993350401
H         2.58534553029496    4.88275474052565   -0.27481702592903
H         3.72240050290575    4.05755532280703   -2.29518229246829
H         3.34952100931364    1.72881965974122   -3.04641911490392
H         1.87529571278214    0.24642846552215   -1.75938952037020
H         2.80803080914090   -2.49066108783446   -0.92414720888968
H         5.37891199002919   -4.11458535378231    1.80159964239392
H         4.24736011591847   -1.98904971203430    3.09879767760537
H         0.63565710292600   -2.52974587667684    0.31991155342761
H         0.75513489055581   -0.48186939072191    2.87820290042720
H        -1.23061033836082   -4.15775446256320   -3.26795021750875
H        -4.03588148213539   -5.16953473044261   -0.47332695069904
H        -2.90672143970230   -2.87404343761669    0.48517471675749
60
 energy: -127.814431258691 gnorm: 0.013133115903 xtb: 6.3.3 (4ae9cef)
C        -2.66896509725466    1.90785091080237   -0.80362648073311
C        -2.14611315950531    2.24850055719821   -2.17311688682293
F        -2.12915951956844    1.18214133409350   -2.99560958996104
F        -0.88504735017018    2.72665582404616   -2.15161083010259
F        -2.87802334335036    3.17822257385476   -2.79690490235062
C        -3.84922684148434    2.50258388312562   -0.37209896302572
C        -4.36208240085241    2.20230604812066    0.87644154525776
C        -3.69924566598874    1.30397130934227    1.69426916979242
C        -2.53064105594632    0.70767720742270    1.26166002365720
C        -1.99507324054305    0.99678942268648    0.01074102163452
C        -0.71807614865321    0.32136668381534   -0.40981442844213
C         0.48971775366343    0.75074885817793    0.45401372160094
C         1.38943393995443    1.70852434571139   -0.27595939649965
C         1.58573448918950    3.02886822220113    0.12384498133938
C         0.85993592081116    3.58922984083694    1.31635909867255
F        -0.48623344022078    3.50617037941866    1.17206343951360
F         1.12236890080187    4.88159736505344    1.53081814045085
F         1.13306821620608    2.95703662886371    2.47000030746723
C         2.42992118644480    3.86213238096413   -0.60175121779506
C         3.07117210627603    3.38831919576321   -1.73141174210512
C         2.87055568839408    2.08159261735463   -2.14209943265554
C         2.04094283650514    1.24984926808351   -1.41693013557448
N         1.18156522583673   -0.51623878674115    0.66132525709658
C         2.39861539505221   -0.53758148542725    1.30494257198485
C         3.14439159188625   -1.79643908202529    1.15896234764978
C         3.25443608480897   -2.58215451749659    0.04005360488172
O         4.14584489132726   -3.55264165573319    0.23601770587354
C         4.63045255662174   -3.41079163297584    1.48163968466444
C         4.06318449850733   -2.34251737533368    2.10084456972261
O         2.83380835326948    0.43685790521082    1.88862686301038
C         0.20258192066378   -1.58018762569114    0.66704645619788
C        -0.39227160147660   -1.84514178668816    2.08494393577701
O         0.07407900593741   -1.11291619412585    3.09117067241775
O        -1.22326356570114   -2.69286979227544    2.24489523509869
N        -0.83613876496541   -1.12968521222015   -0.24350251017153
C        -0.87457904356449   -1.85575562854820   -1.48666173050834
C        -1.68287673101501   -3.05738827722446   -1.40097607438861
C        -1.77833873077639   -4.03496366507022   -2.36819194491709
O        -2.69648418575357   -4.93201771111032   -2.03737018338260
C        -3.22802361179767   -4.55168054216262   -0.85637830819603
C        -2.64879733198786   -3.40828146506900   -0.41000743386140
O        -0.32582917338938   -1.45199310902447   -2.48402848963356
H        -4.35942400263965    3.19838415911501   -1.01969838303501
H        -5.27785299383499    2.66845190111787    1.20385385514329
H        -4.09000009356083    1.06400276429471    2.67127070453844
H        -2.02997650424012   -0.00456460999166    1.89753036684986
H        -0.48842554635753    0.51730991620549   -1.45977299645115
H         0.13733688535452    1.17044941777817    1.40176287347589
H         2.57564900861043    4.88089430896320   -0.27824915531012
H         3.71935869669479    4.04356822361452   -2.29170191771853
H         3.35524372687163    1.70891482641103   -3.03146777119198
H         1.87817005192687    0.23170548027876   -1.73898491964506
H         2.78178173802734   -2.51311591879661   -0.92176958217430
H         5.37045250584678   -4.11357193343016    1.80941681848955
H         4.24047847515243   -1.97395014357747    3.08960971576662
H         0.62175486164081   -2.53764625376721    0.33476501560552
H         0.77019270120874   -0.47456216423242    2.85939907849202
H        -1.23462844262989   -4.15608191466413   -3.28540933744751
H        -4.00703708935153   -5.16454557040516   -0.44720451424715
H        -2.85039653691238   -2.87339070611854    0.49401747622491
60
 energy: -127.815262342661 gnorm: 0.017427692225 xtb: 6.3.3 (4ae9cef)
C        -2.66635925648773    1.91742845461052   -0.80117528755138
C        -2.13637786794866    2.26841082101069   -2.16602372649444
F        -2.12040285386010    1.20875855895758   -2.99904611693068
F        -0.87160668156457    2.74060728732087   -2.13325144554122
F        -2.86075662093317    3.20931662700983   -2.78570233674453
C        -3.84277334940948    2.51687170298453   -0.36224484398917
C        -4.35723461044127    2.20831007286360    0.88312291829042
C        -3.70261128598295    1.29723470446292    1.69370243259787
C        -2.53812004411695    0.69714369601673    1.25555660865644
C        -1.99981215924544    0.99444327752477    0.00682085919436
C        -0.72005497994341    0.32161561540727   -0.41355187143896
C         0.48472373611245    0.74770859599549    0.45526367155927
C         1.38685697204250    1.70668211610425   -0.27064100170367
C         1.57304075585267    3.02972644076625    0.12466062083930
C         0.83314838599456    3.58933789950276    1.30897830474825
F        -0.51290571141441    3.50626156293560    1.14601970328369
F         1.09352918371249    4.88179751312811    1.53235054724181
F         1.08850478958892    2.95145809198299    2.46592358221499
C         2.41969699406504    3.86139437321169   -0.60172227641825
C         3.06995296616901    3.38285679312266   -1.72374100531308
C         2.87849508644679    2.07308808261133   -2.12991126179555
C         2.04709598073380    1.24305972363166   -1.40561202041422
N         1.17239169967090   -0.52074462055405    0.67042729425460
C         2.41046216151919   -0.53488814338872    1.26880074791132
C         3.13976273636464   -1.80524337111000    1.14963060506282
C         3.23721775457710   -2.60763679155516    0.04067166354459
O         4.12550606461916   -3.58207412896612    0.24536707384055
C         4.61612436816576   -3.42564168571933    1.48745709349415
C         4.06174677683770   -2.34168095207929    2.09230266511981
O         2.88125833022298    0.46250640559825    1.79275175592529
C         0.19062385396765   -1.58145340613079    0.67230805546986
C        -0.40922212768363   -1.82822150968522    2.09355175226814
O         0.07919165170742   -1.09809667406986    3.09304814673010
O        -1.25726938309491   -2.65599692552629    2.26849153321244
N        -0.83048459140091   -1.13187987273359   -0.25850159104652
C        -0.87392409758156   -1.84827910685011   -1.50012034953483
C        -1.65532379775871   -3.06624881556405   -1.40728736420926
C        -1.76771488146405   -4.03918679303101   -2.37681973010608
O        -2.68086677102691   -4.93909027482157   -2.03161007659018
C        -3.19274708263036   -4.56132190397814   -0.84064375149337
C        -2.60606944907691   -3.41877934794033   -0.40261868767126
O        -0.36344927316837   -1.41935558189447   -2.50786258708587
H        -4.34865782833422    3.22492247727238   -1.00131634260877
H        -5.26923998342989    2.67854414889869    1.21716954368686
H        -4.09428870906089    1.05188058267906    2.66949061416873
H        -2.04278971021983   -0.02322226439444    1.88579742891743
H        -0.48897414250962    0.52228669963193   -1.46184566325538
H         0.12972099896973    1.16254248031057    1.40480931728134
H         2.56211074944806    4.88311132720395   -0.28380634508448
H         3.72029967839125    4.03629872232793   -2.28449834538656
H         3.37099293556197    1.69627032042699   -3.01382080977402
H         1.89023672797093    0.22242783114556   -1.72255690067087
H         2.75792165591164   -2.55031925718131   -0.91863313997103
H         5.35482545511473   -4.12649011534146    1.82126022233211
H         4.24729779526566   -1.95901532188080    3.07471792872820
H         0.60843415679858   -2.54369155982288    0.35577603787980
H         0.77823351554182   -0.46929968632252    2.84718399729131
H        -1.24018375698632   -4.15825510590067   -3.30407641588638
H        -3.96615270130634   -5.17276487643818   -0.41963036144765
H        -2.79303220926386   -2.88542591377725    0.50485593041146
60
 energy: -127.816148979609 gnorm: 0.015457285435 xtb: 6.3.3 (4ae9cef)
C        -2.66490666587692    1.92992005821619   -0.79564851788442
C        -2.12969108396010    2.29593157018865   -2.15439310233958
F        -2.11527846885657    1.24848945472791   -3.00408086866671
F        -0.86212666108247    2.76399832176267   -2.11112721336473
F        -2.84838335732810    3.25023646631502   -2.76463536034584
C        -3.83573043930510    2.53642690024493   -0.35074256705110
C        -4.35540151908717    2.22042663356940    0.88951184023850
C        -3.71277803210445    1.29275659813917    1.69109804915366
C        -2.55260178798636    0.68737905620338    1.24792965485484
C        -2.00679319792220    0.99329714612295    0.00478554621892
C        -0.72227784039281    0.32399561803865   -0.41787551976252
C         0.48020117857885    0.74911304286601    0.45530687443570
C         1.38623070671789    1.70722372074285   -0.26928132414256
C         1.55942494585622    3.03383498147934    0.11958272815922
C         0.80584512695018    3.59194111017458    1.29445285274417
F        -0.53934111934670    3.50998375699000    1.11575762645548
F         1.06474218732740    4.88418262904055    1.52747141748891
F         1.04518391262593    2.94901515305201    2.45445717100025
C         2.40726018408055    3.86575784994275   -0.60508267884616