72
 energy: -162.011083596452 gnorm: 0.000338271905 xtb: 6.3.3 (4ae9cef)
C        -2.01650565565059   -1.54360962977431   -1.54321630299986
C        -1.05801638486650   -1.27322454512896   -2.67706434956077
F        -1.69420402426170   -1.08550195024361   -3.84023922601809
F        -0.24401165557189   -0.22051536853272   -2.53649071903462
F        -0.24569189829629   -2.33410084725224   -2.87065181676261
C        -3.13433134913177   -2.28464520027299   -1.92099482761852
C        -4.06897198658975   -2.69303522166563   -0.99148970751198
C        -3.87370737306437   -2.38556620028488    0.34214037337672
C        -2.76468890060922   -1.65553277499422    0.71958392319781
C        -1.82185110441183   -1.20269845152339   -0.20120560944765
C        -0.68077704297819   -0.38183670627032    0.36057534435168
C         0.72773896044420   -0.95764745140746    0.10244409261442
C         1.31069120690034   -1.61384848414803    1.33267976681591
C         1.46741194066280   -2.99593404624492    1.44918832653316
C         0.99082009352246   -3.92643386597347    0.36676669339597
F         1.08846737660868   -5.21718252850579    0.71123838846047
F        -0.32342931813656   -3.73175693484114    0.08370538461605
F         1.64099106311748   -3.79773256713295   -0.79425837153463
C         2.05305998824324   -3.54349694191806    2.58431893308932
C         2.47724102535605   -2.72467188572809    3.61397763314111
C         2.29612068217106   -1.35597414282058    3.52096303007017
C         1.71198385723847   -0.81063839268810    2.39337102087281
N         1.51801157406453    0.19898778991928   -0.30633919036157
C         2.83442426100675    0.03661731910374   -0.60525245314628
C         3.48345661579946    1.20932511538811   -1.27646398769249
C         4.42346180006233    2.00698085266738   -0.62856903560008
C         4.74158912881724    1.75850317650337    0.81758645993859
F         5.36412215438082    2.79527776842316    1.39974243941971
F         5.53322245552322    0.69612746741195    1.01474255244154
F         3.63500386131680    1.54245972859306    1.56419828273103
C         5.05634576964960    3.03961934995496   -1.30583226531973
C         4.75744553724495    3.27303055072151   -2.63589390234304
C         3.83126285594679    2.47831673694719   -3.28944155859209
C         3.19771948797848    1.45032780127994   -2.61442876755617
O         3.41826157207471   -0.99810254059925   -0.37785143698025
C         0.72697590624805    1.38698636765202   -0.49920529026029
C         1.19591558835507    2.54007418564559    0.41618696342539
O         0.74520900613449    2.40303918108473    1.66135771664556
O         1.91962552448648    3.42153535288262    0.05826127582419
N        -0.61461753206049    0.97342255330776   -0.16028114814966
C        -1.57062635307581    1.92888141352873   -0.09185045088220
C        -2.89926913956884    1.49000228755285    0.45107815872920
C        -3.04861641323517    1.43205128604555    1.83256381840288
C        -4.27039348289300    1.10945168066505    2.39498799600139
C        -5.36059801903079    0.84241211005530    1.58330577487719
C        -5.23129516123724    0.91481474370448    0.20887790545055
C        -4.00527126473127    1.24367791719682   -0.35628391617212
C        -3.92652353988003    1.35001775148482   -1.85410227762509
F        -4.67637725618237    0.40435829469478   -2.45504116391422
F        -2.68917879194171    1.20137946613486   -2.34245165921341
F        -4.38475018539838    2.52606677489624   -2.30409629833089
O        -1.34298973041416    3.07994336306710   -0.39593758027058
H        -3.26847989732259   -2.53833554975577   -2.96084842872991
H        -4.93093570308910   -3.25739033480479   -1.30857351590533
H        -4.57893452584532   -2.71356140067739    1.08969454320349
H        -2.62037126915793   -1.42606178358313    1.76460454149413
H        -0.83073366289133   -0.32891773527726    1.44925510250049
H         0.72500815825260   -1.67078065290761   -0.72603126248418
H         2.18092299415087   -4.61235961260299    2.65467619223015
H         2.94582221106723   -3.15718222423295    4.48394105522505
H         2.61780291057915   -0.70876812522224    4.32222612046189
H         1.58334729921669    0.25738549020097    2.32193846127627
H         5.77276298504736    3.65853495807797   -0.78866326039102
H         5.24820597548749    4.07825960758821   -3.15977200438612
H         3.59820813078976    2.65936429516181   -4.32749503654905
H         2.48195966520927    0.82199021538341   -3.12290031270052
H         0.77037781499163    1.76668805082796   -1.53102751049881
H         1.06807994532652    3.13340230805366    2.21514126906457
H        -2.19910707727450    1.65574929246992    2.46077870825971
H        -4.37294871705066    1.07052334494212    3.46878163379791
H        -6.31452976219029    0.59008435555382    2.01893878275979
H        -6.07634520543481    0.72137779224617   -0.43357402016032
