      -----------------------------------------------------------      
     |                   =====================                   |     
     |                           x T B                           |     
     |                   =====================                   |     
     |                         S. Grimme                         |     
     |          Mulliken Center for Theoretical Chemistry        |     
     |                    University of Bonn                     |     
      -----------------------------------------------------------      

   * xtb version 6.3.3 (4ae9cef) compiled by 'conda@95abc7406d43' on 2020-10-14

   xtb is free software: you can redistribute it and/or modify it under
   the terms of the GNU Lesser General Public License as published by
   the Free Software Foundation, either version 3 of the License, or
   (at your option) any later version.
   
   xtb is distributed in the hope that it will be useful,
   but WITHOUT ANY WARRANTY; without even the implied warranty of
   MERCHANTABILITY or FITNESS FOR A PARTICULAR PURPOSE.  See the
   GNU Lesser General Public License for more details.
   
   Cite this work as:
   * C. Bannwarth, E. Caldeweyher, S. Ehlert, A. Hansen, P. Pracht,
     J. Seibert, S. Spicher, S. Grimme, WIREs Comput. Mol. Sci., 2020,
     e01493. DOI: 10.1002/wcms.1493
   
   for GFN2-xTB:
   * S. Grimme, C. Bannwarth, P. Shushkov, J. Chem. Theory Comput., 2017,
     13, 1989-2009. DOI: 10.1021/acs.jctc.7b00118
   for GFN1-xTB:
   * C. Bannwarth, S. Ehlert and S. Grimme., J. Chem. Theory Comput., 2019,
     15, 1652-1671. DOI: 10.1021/acs.jctc.8b01176
   for GFN0-xTB:
   * P. Pracht, E. Caldeweyher, S. Ehlert, S. Grimme, ChemRxiv, 2019, preprint.
     DOI: 10.26434/chemrxiv.8326202.v1
   for GFN-FF:
   * S. Spicher and S. Grimme, Angew. Chem. Int. Ed., 2020, 59, 15665-15673.
     DOI: 10.1002/anie.202004239
   
   for DFT-D4:
   * E. Caldeweyher, C. Bannwarth and S. Grimme, J. Chem. Phys., 2017,
     147, 034112. DOI: 10.1063/1.4993215
   * E. Caldeweyher, S. Ehlert, A. Hansen, H. Neugebauer, S. Spicher,
     C. Bannwarth and S. Grimme, J. Chem. Phys., 2019, 150, 154122.
     DOI: 10.1063/1.5090222
   * E. Caldeweyher, J.-M. Mewes, S. Ehlert and S. Grimme, Phys. Chem. Chem. Phys.
     2020, 22, 8499-8512. DOI: 10.1039/D0CP00502A
   
   for sTDA-xTB:
   * S. Grimme and C. Bannwarth, J. Chem. Phys., 2016, 145, 054103.
     DOI: 10.1063/1.4959605
   
   in the mass-spec context:
   * V. Asgeirsson, C. Bauer and S. Grimme, Chem. Sci., 2017, 8, 4879.
     DOI: 10.1039/c7sc00601b
   * J. Koopman and S. Grimme, ACS Omega 2019, 4, 12, 15120-15133.
     DOI: 10.1021/acsomega.9b02011
   
   for metadynamics refer to:
   * S. Grimme, J. Chem. Theory Comput., 2019, 155, 2847-2862
     DOI: 10.1021/acs.jctc.9b00143
   
   with help from (in alphabetical order)
   C. Bannwarth, F. Bohle, G. Brandenburg, E. Caldeweyher, M. Checinski,
   S. Dohm, S. Ehlert, S. Ehrlich, F. März, H. Neugebauer, J. Pisarek,
   P. Pracht, P. Shushkov, and S. Spicher.
   
 * started run on 2022/03/16 at 23:52:29.188     

           -------------------------------------------------
          |                Calculation Setup                |
           -------------------------------------------------

          program call               : xtb acid_328.xyz --opt --chrg 0 --uhf 0 --gfn 2
          coordinate file            : acid_328.xyz
          omp threads                :                    64
          number of atoms            :                    54
          number of electrons        :                   182
          charge                     :                     0
          spin                       :                   0.0
          first test random number   :      0.06435974336455

   ID    Z sym.   atoms
    1    6 C      1-14, 16-19, 21, 24, 25, 29-32, 34
    2    7 N      15, 28
    3   35 Br     20, 33
    4   16 S      22, 35
    5    8 O      23, 26, 27, 36
    6    1 H      37-54

           -------------------------------------------------
          |                 G F N 2 - x T B                 |
           -------------------------------------------------

        Reference                      10.1021/acs.jctc.8b01176
      * Hamiltonian:
        H0-scaling (s, p, d)           1.850000    2.230000    2.230000
        zeta-weighting                 0.500000
      * Dispersion:
        s8                             2.700000
        a1                             0.520000
        a2                             5.000000
        s9                             5.000000
      * Repulsion:
        kExp                           1.500000    1.000000
        rExp                           1.000000
      * Coulomb:
        alpha                          2.000000
        third order                    shell-resolved
        anisotropic                    true
        a3                             3.000000
        a5                             4.000000
        cn-shift                       1.200000
        cn-exp                         4.000000
        max-rad                        5.000000


          ...................................................
          :                      SETUP                      :
          :.................................................:
          :  # basis functions                 186          :
          :  # atomic orbitals                 182          :
          :  # shells                           94          :
          :  # electrons                       182          :
          :  max. iterations                   250          :
          :  Hamiltonian                  GFN2-xTB          :
          :  restarted?                      false          :
          :  GBSA solvation                  false          :
          :  PC potential                    false          :
          :  electronic temp.          300.0000000     K    :
          :  accuracy                    1.0000000          :
          :  -> integral cutoff          0.2500000E+02      :
          :  -> integral neglect         0.1000000E-07      :
          :  -> SCF convergence          0.1000000E-05 Eh   :
          :  -> wf. convergence          0.1000000E-03 e    :
          :  Broyden damping             0.4000000          :
          ...................................................

 iter      E             dE          RMSdq      gap      omega  full diag
   1   -102.7091374 -0.102709E+03  0.491E+00    2.94       0.0  T
   2   -102.8480868 -0.138949E+00  0.287E+00    3.05       1.0  T
   3   -102.8460144  0.207242E-02  0.132E+00    3.05       1.0  T
   4   -102.8702969 -0.242825E-01  0.404E-01    2.93       1.0  T
   5   -102.8724499 -0.215298E-02  0.261E-01    2.98       1.0  T
   6   -102.8734805 -0.103056E-02  0.139E-01    2.97       1.0  T
   7   -102.8737560 -0.275537E-03  0.880E-02    2.98       1.0  T
   8   -102.8737960 -0.399724E-04  0.663E-02    2.98       1.0  T
   9   -102.8738437 -0.477503E-04  0.367E-02    2.98       1.0  T
  10   -102.8738609 -0.171651E-04  0.155E-02    2.99       1.0  T
  11   -102.8738640 -0.315444E-05  0.924E-03    2.99       1.5  T
  12   -102.8738647 -0.665984E-06  0.365E-03    2.99       3.7  T
  13   -102.8738651 -0.355836E-06  0.168E-03    2.99       8.1  T
  14   -102.8738651 -0.220316E-07  0.993E-04    2.99      13.7  T
  15   -102.8738651 -0.731480E-08  0.537E-04    2.99      25.4  T

   *** convergence criteria satisfied after 15 iterations ***

         #    Occupation            Energy/Eh            Energy/eV
      -------------------------------------------------------------
         1        2.0000           -0.8516076             -23.1734
       ...           ...                  ...                  ...
        85        2.0000           -0.4187537             -11.3949
        86        2.0000           -0.4168395             -11.3428
        87        2.0000           -0.4156239             -11.3097
        88        2.0000           -0.4135692             -11.2538
        89        2.0000           -0.4124648             -11.2237
        90        2.0000           -0.4111654             -11.1884
        91        2.0000           -0.4083033             -11.1105 (HOMO)
        92                         -0.2985652              -8.1244 (LUMO)
        93                         -0.2944148              -8.0114
        94                         -0.2870067              -7.8098
        95                         -0.2580181              -7.0210
        96                         -0.2544428              -6.9237
       ...                                ...                  ...
       182                          0.6532119              17.7748
      -------------------------------------------------------------
                  HL-Gap            0.1097380 Eh            2.9861 eV
             Fermi-level           -0.3534342 Eh           -9.6174 eV

 SCC (total)                   0 d,  0 h,  0 min,  0.501 sec
 SCC setup                      ...        0 min,  0.018 sec (  3.532%)
 Dispersion                     ...        0 min,  0.021 sec (  4.193%)
 classical contributions        ...        0 min,  0.018 sec (  3.589%)
 integral evaluation            ...        0 min,  0.067 sec ( 13.464%)
 iterations                     ...        0 min,  0.232 sec ( 46.403%)
 molecular gradient             ...        0 min,  0.142 sec ( 28.415%)
 printout                       ...        0 min,  0.002 sec (  0.386%)

         :::::::::::::::::::::::::::::::::::::::::::::::::::::
         ::                     SUMMARY                     ::
         :::::::::::::::::::::::::::::::::::::::::::::::::::::
         :: total energy            -101.624118392589 Eh    ::
         :: gradient norm              0.108500211944 Eh/a0 ::
         :: HOMO-LUMO gap              2.986124290077 eV    ::
         ::.................................................::
         :: SCC energy              -102.873865087719 Eh    ::
         :: -> isotropic ES            0.122861684925 Eh    ::
         :: -> anisotropic ES          0.003378562331 Eh    ::
         :: -> anisotropic XC          0.032928133785 Eh    ::
         :: -> dispersion             -0.082622690830 Eh    ::
         :: repulsion energy           1.247212551779 Eh    ::
         :: add. restraining           0.000000000000 Eh    ::
         :: total charge              -0.000000000000 e     ::
         :::::::::::::::::::::::::::::::::::::::::::::::::::::

      ----------------------------------------------------------- 
     |                   =====================                   |
     |                        A N C O P T                        |
     |                   =====================                   |
     |               Approximate Normal Coordinate               |
     |                Rational Function Optimizer                |
      ----------------------------------------------------------- 

          ...................................................
          :                      SETUP                      :
          :.................................................:
          :   optimization level            normal          :
          :   max. optcycles                   200          :
          :   ANC micro-cycles                  20          :
          :   degrees of freedom               156          :
          :.................................................:
          :   RF solver                   davidson          :
          :   write xtbopt.log                true          :
          :   linear?                        false          :
          :   energy convergence         0.5000000E-05 Eh   :
          :   grad. convergence          0.1000000E-02 Eh/α :
          :   maximium RF displ.         1.0000000          :
          :   Hlow (freq-cutoff)         0.1000000E-01      :
          :   Hmax (freq-cutoff)         5.0000000          :
          :   S6 in model hess.         20.0000000          :
          ...................................................

generating ANC from model Hessian ...
Using Lindh-Hessian (1995)
 Shifting diagonal of input Hessian by    9.7653940250150562E-003
 Lowest  eigenvalues of input Hessian
    0.000000    0.000000    0.000000    0.000000    0.000000    0.000000
    0.010000    0.010136    0.010224    0.010394    0.010643    0.010774
    0.010893    0.011016    0.011220    0.011314    0.011879    0.012519
 Highest eigenvalues
    1.938099    1.944523    1.948241    2.204461    2.241376    2.248609


........................................................................
.............................. CYCLE    1 ..............................
........................................................................
   1   -102.8738651 -0.102874E+03  0.243E-04    2.99       0.0  T
   2   -102.8738651 -0.230941E-09  0.178E-04    2.99      76.4  T
   3   -102.8738651 -0.335660E-10  0.141E-04    2.99      96.2  T
     SCC iter.                  ...        0 min,  0.047 sec
     gradient                   ...        0 min,  0.147 sec
 * total energy  :  -101.6241184 Eh     change       -0.7368413E-08 Eh
   gradient norm :     0.1084999 Eh/α   predicted     0.0000000E+00 (-100.00%)
   displ. norm   :     0.3574772 α      lambda       -0.1698802E-01
   maximum displ.:     0.1291626 α      in ANC's #19, #26, #24, ...

........................................................................
.............................. CYCLE    2 ..............................
........................................................................
   1   -102.9425641 -0.102943E+03  0.168E-01    3.05       0.0  T
   2   -102.9426953 -0.131218E-03  0.101E-01    3.05       1.0  T
   3   -102.9426710  0.243148E-04  0.460E-02    3.05       1.0  T
   4   -102.9427233 -0.523280E-04  0.163E-02    3.05       1.0  T
   5   -102.9427284 -0.514793E-05  0.735E-03    3.05       1.9  T
   6   -102.9427300 -0.153647E-05  0.349E-03    3.05       3.9  T
   7   -102.9427301 -0.137526E-06  0.234E-03    3.05       5.8  T
   8   -102.9427302 -0.693517E-07  0.149E-03    3.05       9.1  T
   9   -102.9427302 -0.128573E-07  0.929E-04    3.05      14.6  T
  10   -102.9427302 -0.828611E-08  0.541E-04    3.05      25.1  T
     SCC iter.                  ...        0 min,  0.154 sec
     gradient                   ...        0 min,  0.160 sec
 * total energy  :  -101.6357692 Eh     change       -0.1165076E-01 Eh
   gradient norm :     0.0442580 Eh/α   predicted    -0.9579472E-02 ( -17.78%)
   displ. norm   :     0.3566106 α      lambda       -0.5755978E-02
   maximum displ.:     0.1926123 α      in ANC's #19, #14, #21, ...

........................................................................
.............................. CYCLE    3 ..............................
........................................................................
   1   -102.9770581 -0.102977E+03  0.127E-01    3.08       0.0  T
   2   -102.9771287 -0.706362E-04  0.765E-02    3.07       1.0  T
   3   -102.9771094  0.193113E-04  0.363E-02    3.07       1.0  T
   4   -102.9771467 -0.372570E-04  0.142E-02    3.07       1.0  T
   5   -102.9771508 -0.415225E-05  0.603E-03    3.07       2.3  T
   6   -102.9771516 -0.806505E-06  0.279E-03    3.07       4.9  T
   7   -102.9771518 -0.148795E-06  0.165E-03    3.07       8.3  T
   8   -102.9771518 -0.326358E-07  0.101E-03    3.07      13.4  T
   9   -102.9771518 -0.322269E-08  0.596E-04    3.07      22.8  T
  10   -102.9771518 -0.424676E-08  0.314E-04    3.07      43.3  T
     SCC iter.                  ...        0 min,  0.152 sec
     gradient                   ...        0 min,  0.135 sec
 * total energy  :  -101.6393139 Eh     change       -0.3544709E-02 Eh
   gradient norm :     0.0145439 Eh/α   predicted    -0.3243989E-02 (  -8.48%)
   displ. norm   :     0.2504484 α      lambda       -0.1204118E-02
   maximum displ.:     0.1293260 α      in ANC's #19, #14, #9, ...

........................................................................
.............................. CYCLE    4 ..............................
........................................................................
   1   -102.9784628 -0.102978E+03  0.863E-02    3.07       0.0  T
   2   -102.9784789 -0.160949E-04  0.496E-02    3.07       1.0  T
   3   -102.9784680  0.109445E-04  0.207E-02    3.07       1.0  T
   4   -102.9784824 -0.144474E-04  0.739E-03    3.07       1.8  T
   5   -102.9784838 -0.141564E-05  0.348E-03    3.07       3.9  T
   6   -102.9784840 -0.135706E-06  0.159E-03    3.07       8.6  T
   7   -102.9784840 -0.555672E-07  0.961E-04    3.07      14.2  T
   8   -102.9784840 -0.679104E-08  0.671E-04    3.07      20.3  T
     SCC iter.                  ...        0 min,  0.136 sec
     gradient                   ...        0 min,  0.137 sec
 * total energy  :  -101.6401207 Eh     change       -0.8068305E-03 Eh
   gradient norm :     0.0087439 Eh/α   predicted    -0.6399001E-03 ( -20.69%)
   displ. norm   :     0.2480090 α      lambda       -0.5725982E-03
   maximum displ.:     0.1281931 α      in ANC's #14, #9, #6, ...

........................................................................
.............................. CYCLE    5 ..............................
........................................................................
   1   -102.9769389 -0.102977E+03  0.827E-02    3.06       0.0  T
   2   -102.9769427 -0.388484E-05  0.464E-02    3.06       1.0  T
   3   -102.9769341  0.868438E-05  0.164E-02    3.06       1.0  T
   4   -102.9769442 -0.101668E-04  0.523E-03    3.06       2.6  T
   5   -102.9769446 -0.380151E-06  0.277E-03    3.06       4.9  T
   6   -102.9769447 -0.998738E-07  0.123E-03    3.06      11.0  T
   7   -102.9769447 -0.240956E-07  0.872E-04    3.06      15.6  T
   8   -102.9769447 -0.298219E-08  0.471E-04    3.06      28.9  T
     SCC iter.                  ...        0 min,  0.126 sec
     gradient                   ...        0 min,  0.133 sec
 * total energy  :  -101.6405238 Eh     change       -0.4030871E-03 Eh
   gradient norm :     0.0069261 Eh/α   predicted    -0.3039098E-03 ( -24.60%)
   displ. norm   :     0.3004354 α      lambda       -0.4380865E-03
   maximum displ.:     0.1439614 α      in ANC's #14, #9, #6, ...

........................................................................
.............................. CYCLE    6 ..............................
........................................................................
   1   -102.9746595 -0.102975E+03  0.965E-02    3.05       0.0  T
   2   -102.9746625 -0.305581E-05  0.545E-02    3.05       1.0  T
   3   -102.9746522  0.103587E-04  0.169E-02    3.05       1.0  T
   4   -102.9746642 -0.120181E-04  0.515E-03    3.05       2.6  T
   5   -102.9746644 -0.220650E-06  0.282E-03    3.05       4.8  T
   6   -102.9746646 -0.172482E-06  0.124E-03    3.05      11.0  T
   7   -102.9746646 -0.161425E-07  0.912E-04    3.05      14.9  T
   8   -102.9746646 -0.414404E-08  0.523E-04    3.05      26.0  T
     SCC iter.                  ...        0 min,  0.130 sec
     gradient                   ...        0 min,  0.138 sec
 * total energy  :  -101.6408511 Eh     change       -0.3273347E-03 Eh
   gradient norm :     0.0066365 Eh/α   predicted    -0.2388216E-03 ( -27.04%)
   displ. norm   :     0.3801052 α      lambda       -0.4434346E-03
   maximum displ.:     0.1696432 α      in ANC's #9, #6, #14, ...

........................................................................
.............................. CYCLE    7 ..............................
........................................................................
   1   -102.9733195 -0.102973E+03  0.122E-01    3.04       0.0  T
   2   -102.9733255 -0.598120E-05  0.697E-02    3.04       1.0  T
   3   -102.9733048  0.206921E-04  0.229E-02    3.04       1.0  T
   4   -102.9733287 -0.238934E-04  0.622E-03    3.04       2.2  T
   5   -102.9733292 -0.439419E-06  0.346E-03    3.04       3.9  T
   6   -102.9733294 -0.237214E-06  0.155E-03    3.04       8.8  T
   7   -102.9733294 -0.285976E-07  0.113E-03    3.04      12.0  T
   8   -102.9733294 -0.880584E-08  0.688E-04    3.04      19.8  T
   9   -102.9733294 -0.370237E-08  0.309E-04    3.04      44.0  T
     SCC iter.                  ...        0 min,  0.132 sec
     gradient                   ...        0 min,  0.136 sec
 * total energy  :  -101.6411966 Eh     change       -0.3455064E-03 Eh
   gradient norm :     0.0071436 Eh/α   predicted    -0.2537519E-03 ( -26.56%)
   displ. norm   :     0.4473695 α      lambda       -0.4772281E-03
   maximum displ.:     0.1912482 α      in ANC's #9, #6, #14, ...

........................................................................
.............................. CYCLE    8 ..............................
........................................................................
   1   -102.9731766 -0.102973E+03  0.147E-01    3.03       0.0  T
   2   -102.9731855 -0.899418E-05  0.842E-02    3.03       1.0  T
   3   -102.9731539  0.316573E-04  0.280E-02    3.03       1.0  T
   4   -102.9731903 -0.363834E-04  0.728E-03    3.03       1.9  T
   5   -102.9731910 -0.687647E-06  0.400E-03    3.03       3.4  T
   6   -102.9731913 -0.310450E-06  0.181E-03    3.03       7.5  T
   7   -102.9731913 -0.439083E-07  0.129E-03    3.03      10.6  T
   8   -102.9731913 -0.105857E-07  0.805E-04    3.03      16.9  T
   9   -102.9731913 -0.475204E-08  0.370E-04    3.03      36.8  T
     SCC iter.                  ...        0 min,  0.142 sec
     gradient                   ...        0 min,  0.145 sec
 * total energy  :  -101.6415791 Eh     change       -0.3824921E-03 Eh
   gradient norm :     0.0080209 Eh/α   predicted    -0.2863742E-03 ( -25.13%)
   displ. norm   :     0.5101910 α      lambda       -0.5297564E-03
   maximum displ.:     0.2065677 α      in ANC's #9, #6, #11, ...

........................................................................
.............................. CYCLE    9 ..............................
........................................................................
   1   -102.9738431 -0.102974E+03  0.170E-01    3.02       0.0  T
   2   -102.9738544 -0.112765E-04  0.978E-02    3.02       1.0  T
   3   -102.9738045  0.498655E-04  0.349E-02    3.02       1.0  T
   4   -102.9738615 -0.570542E-04  0.843E-03    3.02       1.6  T
   5   -102.9738623 -0.757692E-06  0.474E-03    3.02       2.9  T
   6   -102.9738628 -0.463456E-06  0.214E-03    3.02       6.4  T
   7   -102.9738628 -0.581784E-07  0.152E-03    3.02       9.0  T
   8   -102.9738628 -0.135305E-07  0.947E-04    3.02      14.4  T
   9   -102.9738628 -0.652483E-08  0.437E-04    3.02      31.1  T
     SCC iter.                  ...        0 min,  0.137 sec
     gradient                   ...        0 min,  0.128 sec
 * total energy  :  -101.6420032 Eh     change       -0.4240742E-03 Eh
   gradient norm :     0.0089467 Eh/α   predicted    -0.3338373E-03 ( -21.28%)
   displ. norm   :     0.5163547 α      lambda       -0.5277948E-03
   maximum displ.:     0.1969086 α      in ANC's #6, #11, #9, ...

........................................................................
.............................. CYCLE   10 ..............................
........................................................................
   1   -102.9752175 -0.102975E+03  0.175E-01    3.01       0.0  T
   2   -102.9752287 -0.111588E-04  0.101E-01    3.01       1.0  T
   3   -102.9751751  0.535321E-04  0.363E-02    3.01       1.0  T
   4   -102.9752363 -0.612163E-04  0.868E-03    3.01       1.6  T
   5   -102.9752370 -0.630207E-06  0.496E-03    3.01       2.7  T
   6   -102.9752375 -0.557408E-06  0.226E-03    3.01       6.0  T
   7   -102.9752376 -0.536921E-07  0.162E-03    3.01       8.4  T
   8   -102.9752376 -0.130589E-07  0.103E-03    3.01      13.2  T
   9   -102.9752376 -0.915391E-08  0.464E-04    3.01      29.3  T
  10   -102.9752376 -0.357375E-08  0.215E-04    3.01      63.3  T
     SCC iter.                  ...        0 min,  0.157 sec
     gradient                   ...        0 min,  0.146 sec
 * total energy  :  -101.6424231 Eh     change       -0.4199119E-03 Eh
   gradient norm :     0.0080340 Eh/α   predicted    -0.3342588E-03 ( -20.40%)
   displ. norm   :     0.5292686 α      lambda       -0.4778051E-03
   maximum displ.:     0.2005848 α      in ANC's #11, #6, #8, ...

........................................................................
.............................. CYCLE   11 ..............................
........................................................................
   1   -102.9749063 -0.102975E+03  0.180E-01    3.00       0.0  T
   2   -102.9749179 -0.116750E-04  0.103E-01    3.00       1.0  T
   3   -102.9748555  0.624372E-04  0.392E-02    3.01       1.0  T
   4   -102.9749271 -0.715492E-04  0.905E-03    3.01       1.5  T
   5   -102.9749275 -0.396972E-06  0.529E-03    3.01       2.6  T
   6   -102.9749282 -0.732127E-06  0.235E-03    3.01       5.8  T
   7   -102.9749282 -0.458678E-07  0.170E-03    3.01       8.0  T
   8   -102.9749282 -0.124470E-07  0.110E-03    3.01      12.4  T
   9   -102.9749283 -0.128995E-07  0.456E-04    3.01      29.8  T
  10   -102.9749283 -0.306156E-08  0.240E-04    3.01      56.8  T
     SCC iter.                  ...        0 min,  0.152 sec
     gradient                   ...        0 min,  0.150 sec
 * total energy  :  -101.6427975 Eh     change       -0.3743700E-03 Eh
   gradient norm :     0.0070096 Eh/α   predicted    -0.3058356E-03 ( -18.31%)
   displ. norm   :     0.4679425 α      lambda       -0.4093926E-03
   maximum displ.:     0.1711513 α      in ANC's #8, #11, #5, ...

........................................................................
.............................. CYCLE   12 ..............................
........................................................................
   1   -102.9771939 -0.102977E+03  0.158E-01    3.01       0.0  T
   2   -102.9772047 -0.108319E-04  0.897E-02    3.01       1.0  T
   3   -102.9771676  0.370648E-04  0.309E-02    3.01       1.0  T
   4   -102.9772107 -0.430420E-04  0.819E-03    3.01       1.7  T
   5   -102.9772112 -0.465902E-06  0.466E-03    3.01       2.9  T
   6   -102.9772117 -0.504873E-06  0.214E-03    3.01       6.4  T
   7   -102.9772117 -0.456947E-07  0.151E-03    3.01       9.0  T
   8   -102.9772117 -0.632203E-08  0.999E-04    3.01      13.6  T
   9   -102.9772117 -0.122795E-07  0.399E-04    3.01      34.1  T
     SCC iter.                  ...        0 min,  0.137 sec
     gradient                   ...        0 min,  0.126 sec
 * total energy  :  -101.6430922 Eh     change       -0.2946712E-03 Eh
   gradient norm :     0.0063181 Eh/α   predicted    -0.2495191E-03 ( -15.32%)
   displ. norm   :     0.5146940 α      lambda       -0.3304672E-03
   maximum displ.:     0.1960799 α      in ANC's #8, #11, #5, ...

........................................................................
.............................. CYCLE   13 ..............................
........................................................................
   1   -102.9701333 -0.102970E+03  0.175E-01    2.99       0.0  T
   2   -102.9701449 -0.116482E-04  0.998E-02    2.99       1.0  T
   3   -102.9700800  0.649482E-04  0.402E-02    3.00       1.0  T
   4   -102.9701544 -0.744721E-04  0.911E-03    3.00       1.5  T
   5   -102.9701548 -0.343587E-06  0.533E-03    3.00       2.6  T
   6   -102.9701555 -0.754139E-06  0.237E-03    3.00       5.7  T
   7   -102.9701556 -0.478980E-07  0.173E-03    3.00       7.9  T
   8   -102.9701556 -0.127466E-07  0.109E-03    3.00      12.5  T
   9   -102.9701556 -0.129871E-07  0.447E-04    3.00      30.5  T
  10   -102.9701556 -0.217337E-08  0.230E-04    3.00      59.3  T
     SCC iter.                  ...        0 min,  0.150 sec
     gradient                   ...        0 min,  0.136 sec
 * total energy  :  -101.6432689 Eh     change       -0.1767933E-03 Eh
   gradient norm :     0.0095679 Eh/α   predicted    -0.2090072E-03 (  18.22%)
   displ. norm   :     0.3074681 α      lambda       -0.4278925E-03
   maximum displ.:     0.1285122 α      in ANC's #8, #12, #5, ...

........................................................................
.............................. CYCLE   14 ..............................
........................................................................
   1   -102.9806527 -0.102981E+03  0.870E-02    3.02       0.0  T
   2   -102.9806597 -0.704824E-05  0.493E-02    3.02       1.0  T
   3   -102.9806471  0.126039E-04  0.196E-02    3.02       1.0  T
   4   -102.9806624 -0.152945E-04  0.594E-03    3.02       2.3  T
   5   -102.9806630 -0.602374E-06  0.343E-03    3.02       4.0  T
   6   -102.9806632 -0.170430E-06  0.184E-03    3.02       7.4  T
   7   -102.9806632 -0.338477E-07  0.133E-03    3.02      10.2  T
   8   -102.9806632 -0.906711E-08  0.894E-04    3.02      15.2  T
   9   -102.9806632 -0.105346E-07  0.359E-04    3.02      37.9  T
     SCC iter.                  ...        0 min,  0.141 sec
     gradient                   ...        0 min,  0.124 sec
 * total energy  :  -101.6434733 Eh     change       -0.2043055E-03 Eh
   gradient norm :     0.0094612 Eh/α   predicted    -0.2341726E-03 (  14.62%)
   displ. norm   :     0.2968641 α      lambda       -0.2297630E-03
   maximum displ.:     0.1295004 α      in ANC's #8, #1, #5, ...

........................................................................
.............................. CYCLE   15 ..............................
........................................................................
   1   -102.9763968 -0.102976E+03  0.100E-01    3.02       0.0  T
   2   -102.9764018 -0.490942E-05  0.563E-02    3.02       1.0  T
   3   -102.9763852  0.165694E-04  0.215E-02    3.02       1.0  T
   4   -102.9764045 -0.192745E-04  0.610E-03    3.02       2.2  T
   5   -102.9764048 -0.338582E-06  0.323E-03    3.02       4.2  T
   6   -102.9764050 -0.211188E-06  0.154E-03    3.02       8.8  T
   7   -102.9764050 -0.163703E-07  0.112E-03    3.02      12.1  T
   8   -102.9764050 -0.103178E-07  0.686E-04    3.02      19.8  T
   9   -102.9764050 -0.225754E-08  0.310E-04    3.02      43.9  T
     SCC iter.                  ...        0 min,  0.137 sec
     gradient                   ...        0 min,  0.149 sec
 * total energy  :  -101.6436195 Eh     change       -0.1462929E-03 Eh
   gradient norm :     0.0084891 Eh/α   predicted    -0.1250062E-03 ( -14.55%)
   displ. norm   :     0.2428903 α      lambda       -0.2567207E-03
   maximum displ.:     0.1375177 α      in ANC's #8, #4, #1, ...

........................................................................
.............................. CYCLE   16 ..............................
........................................................................
   1   -102.9751108 -0.102975E+03  0.731E-02    3.01       0.0  T
   2   -102.9751137 -0.289774E-05  0.409E-02    3.01       1.0  T
   3   -102.9751086  0.503130E-05  0.124E-02    3.01       1.1  T
   4   -102.9751146 -0.600159E-05  0.461E-03    3.01       3.0  T
   5   -102.9751149 -0.225005E-06  0.242E-03    3.01       5.6  T
   6   -102.9751150 -0.118638E-06  0.129E-03    3.01      10.6  T
   7   -102.9751150 -0.107287E-07  0.931E-04    3.01      14.6  T
   8   -102.9751150 -0.683887E-08  0.576E-04    3.01      23.6  T
     SCC iter.                  ...        0 min,  0.127 sec
     gradient                   ...        0 min,  0.121 sec
 * total energy  :  -101.6437967 Eh     change       -0.1771243E-03 Eh
   gradient norm :     0.0050517 Eh/α   predicted    -0.1359391E-03 ( -23.25%)
   displ. norm   :     0.2768656 α      lambda       -0.1924130E-03
   maximum displ.:     0.1567181 α      in ANC's #8, #4, #1, ...

........................................................................
.............................. CYCLE   17 ..............................
........................................................................
   1   -102.9754348 -0.102975E+03  0.820E-02    3.01       0.0  T
   2   -102.9754386 -0.382943E-05  0.455E-02    3.01       1.0  T
   3   -102.9754336  0.501872E-05  0.127E-02    3.01       1.1  T
   4   -102.9754396 -0.608037E-05  0.522E-03    3.01       2.6  T
   5   -102.9754400 -0.341071E-06  0.263E-03    3.01       5.2  T
   6   -102.9754401 -0.117094E-06  0.151E-03    3.01       9.0  T
   7   -102.9754401 -0.229514E-07  0.107E-03    3.01      12.8  T
   8   -102.9754401 -0.678379E-08  0.659E-04    3.01      20.6  T
   9   -102.9754401 -0.440728E-08  0.263E-04    3.01      51.7  T
     SCC iter.                  ...        0 min,  0.143 sec
     gradient                   ...        0 min,  0.155 sec
 * total energy  :  -101.6439337 Eh     change       -0.1369912E-03 Eh
   gradient norm :     0.0051059 Eh/α   predicted    -0.1035879E-03 ( -24.38%)
   displ. norm   :     0.2866444 α      lambda       -0.1788201E-03
   maximum displ.:     0.1692415 α      in ANC's #8, #4, #1, ...

........................................................................
.............................. CYCLE   18 ..............................
........................................................................
   1   -102.9774897 -0.102977E+03  0.862E-02    3.02       0.0  T
   2   -102.9774940 -0.433546E-05  0.477E-02    3.02       1.0  T
   3   -102.9774879  0.611422E-05  0.132E-02    3.02       1.0  T
   4   -102.9774954 -0.753714E-05  0.511E-03    3.02       2.7  T
   5   -102.9774958 -0.346994E-06  0.262E-03    3.02       5.2  T
   6   -102.9774959 -0.113736E-06  0.142E-03    3.02       9.6  T
   7   -102.9774959 -0.173330E-07  0.106E-03    3.02      12.9  T
   8   -102.9774959 -0.749026E-08  0.632E-04    3.02      21.5  T
   9   -102.9774959 -0.440701E-08  0.277E-04    3.02      49.1  T
     SCC iter.                  ...        0 min,  0.136 sec
     gradient                   ...        0 min,  0.140 sec
 * total energy  :  -101.6440550 Eh     change       -0.1213552E-03 Eh
   gradient norm :     0.0044122 Eh/α   predicted    -0.9675733E-04 ( -20.27%)
   displ. norm   :     0.4063984 α      lambda       -0.1664086E-03
   maximum displ.:     0.2388457 α      in ANC's #8, #4, #1, ...

........................................................................
.............................. CYCLE   19 ..............................
........................................................................
   1   -102.9750705 -0.102975E+03  0.126E-01    3.00       0.0  T
   2   -102.9750757 -0.512758E-05  0.699E-02    3.01       1.0  T
   3   -102.9750616  0.141114E-04  0.208E-02    3.00       1.0  T
   4   -102.9750782 -0.166556E-04  0.754E-03    3.00       1.8  T
   5   -102.9750785 -0.313662E-06  0.385E-03    3.00       3.5  T
   6   -102.9750790 -0.450041E-06  0.200E-03    3.00       6.8  T
   7   -102.9750790 -0.186853E-07  0.143E-03    3.00       9.5  T
   8   -102.9750790 -0.132636E-07  0.768E-04    3.00      17.7  T
   9   -102.9750790 -0.745771E-08  0.309E-04    3.00      44.0  T
     SCC iter.                  ...        0 min,  0.137 sec
     gradient                   ...        0 min,  0.141 sec
 * total energy  :  -101.6441362 Eh     change       -0.8118966E-04 Eh
   gradient norm :     0.0072725 Eh/α   predicted    -0.9695129E-04 (  19.41%)
   displ. norm   :     0.2042045 α      lambda       -0.1848111E-03
   maximum displ.:     0.1342751 α      in ANC's #4, #8, #14, ...

........................................................................
.............................. CYCLE   20 ..............................
........................................................................
   1   -102.9804881 -0.102980E+03  0.633E-02    3.03       0.0  T
   2   -102.9804909 -0.283343E-05  0.359E-02    3.03       1.0  T
   3   -102.9804817  0.918799E-05  0.170E-02    3.03       1.0  T
   4   -102.9804926 -0.109305E-04  0.412E-03    3.03       3.3  T
   5   -102.9804929 -0.305042E-06  0.224E-03    3.03       6.1  T
   6   -102.9804930 -0.580768E-07  0.110E-03    3.03      12.4  T
   7   -102.9804930 -0.806658E-08  0.863E-04    3.03      15.8  T
   8   -102.9804930 -0.427289E-08  0.485E-04    3.03      28.0  T
     SCC iter.                  ...        0 min,  0.121 sec
     gradient                   ...        0 min,  0.126 sec
 * total energy  :  -101.6442123 Eh     change       -0.7604897E-04 Eh
   gradient norm :     0.0073261 Eh/α   predicted    -0.9626169E-04 (  26.58%)
   displ. norm   :     0.1693493 α      lambda       -0.1109186E-03
   maximum displ.:     0.0889190 α      in ANC's #8, #4, #1, ...
 * RMSD in coord.:     0.7177102 α      energy gain  -0.2009386E-01 Eh

generating ANC from model Hessian ...
Using Lindh-Hessian (1995)
 Shifting diagonal of input Hessian by    9.7657607856788103E-003
 Lowest  eigenvalues of input Hessian
    0.000000    0.000000    0.000000    0.000000    0.000000    0.000000
    0.010000    0.010107    0.010277    0.010495    0.010666    0.010839
    0.010936    0.011119    0.011333    0.011549    0.011900    0.012353
 Highest eigenvalues
    2.009591    2.025902    2.029100    2.348066    2.352008    2.398778


........................................................................
.............................. CYCLE   21 ..............................
........................................................................
   1   -102.9789286 -0.102979E+03  0.542E-02    3.02       0.0  T
   2   -102.9789315 -0.288023E-05  0.305E-02    3.02       1.0  T
   3   -102.9789288  0.271131E-05  0.100E-02    3.02       1.4  T
   4   -102.9789323 -0.344214E-05  0.337E-03    3.02       4.0  T
   5   -102.9789324 -0.182696E-06  0.190E-03    3.02       7.1  T
   6   -102.9789325 -0.691798E-07  0.795E-04    3.02      17.1  T
   7   -102.9789325 -0.537388E-08  0.611E-04    3.02      22.3  T
     SCC iter.                  ...        0 min,  0.108 sec
     gradient                   ...        0 min,  0.141 sec
 * total energy  :  -101.6442817 Eh     change       -0.6949689E-04 Eh
   gradient norm :     0.0042047 Eh/α   predicted     0.0000000E+00 (-100.00%)
   displ. norm   :     0.0504137 α      lambda       -0.5912316E-04
   maximum displ.:     0.0209687 α      in ANC's #5, #9, #8, ...

........................................................................
.............................. CYCLE   22 ..............................
........................................................................
   1   -102.9787726 -0.102979E+03  0.174E-02    3.02       0.0  T
   2   -102.9787729 -0.253198E-06  0.101E-02    3.02       1.3  T
   3   -102.9787726  0.280969E-06  0.290E-03    3.02       4.7  T
   4   -102.9787729 -0.346893E-06  0.897E-04    3.02      15.2  T
   5   -102.9787730 -0.119943E-07  0.526E-04    3.02      25.9  T
     SCC iter.                  ...        0 min,  0.075 sec
     gradient                   ...        0 min,  0.117 sec
 * total energy  :  -101.6443290 Eh     change       -0.4727760E-04 Eh
   gradient norm :     0.0017480 Eh/α   predicted    -0.2967116E-04 ( -37.24%)
   displ. norm   :     0.2199314 α      lambda       -0.1028035E-03
   maximum displ.:     0.0982885 α      in ANC's #5, #9, #8, ...

........................................................................
.............................. CYCLE   23 ..............................
........................................................................
   1   -102.9776507 -0.102978E+03  0.690E-02    3.01       0.0  T
   2   -102.9776531 -0.237669E-05  0.397E-02    3.01       1.0  T
   3   -102.9776505  0.258731E-05  0.854E-03    3.01       1.6  T
   4   -102.9776538 -0.326617E-05  0.299E-03    3.01       4.5  T
   5   -102.9776539 -0.133680E-06  0.167E-03    3.01       8.2  T
   6   -102.9776539 -0.423630E-07  0.982E-04    3.01      13.9  T
   7   -102.9776539 -0.439159E-08  0.686E-04    3.01      19.8  T
     SCC iter.                  ...        0 min,  0.107 sec
     gradient                   ...        0 min,  0.139 sec
 * total energy  :  -101.6444042 Eh     change       -0.7512431E-04 Eh
   gradient norm :     0.0054554 Eh/α   predicted    -0.5256120E-04 ( -30.03%)
   displ. norm   :     0.0629026 α      lambda       -0.3796906E-04
   maximum displ.:     0.0304013 α      in ANC's #5, #9, #7, ...

........................................................................
.............................. CYCLE   24 ..............................
........................................................................
   1   -102.9778716 -0.102978E+03  0.180E-02    3.01       0.0  T
   2   -102.9778718 -0.197345E-06  0.102E-02    3.01       1.3  T
   3   -102.9778715  0.357815E-06  0.327E-03    3.01       4.2  T
   4   -102.9778719 -0.409670E-06  0.115E-03    3.01      11.8  T
   5   -102.9778719 -0.269125E-07  0.597E-04    3.01      22.8  T
   6   -102.9778719 -0.429704E-08  0.321E-04    3.01      42.4  T
     SCC iter.                  ...        0 min,  0.099 sec
     gradient                   ...        0 min,  0.139 sec
 * total energy  :  -101.6444383 Eh     change       -0.3412324E-04 Eh
   gradient norm :     0.0039126 Eh/α   predicted    -0.1911194E-04 ( -43.99%)
   displ. norm   :     0.2551926 α      lambda       -0.1272358E-03
   maximum displ.:     0.1170033 α      in ANC's #5, #9, #2, ...

........................................................................
.............................. CYCLE   25 ..............................
........................................................................
   1   -102.9783243 -0.102978E+03  0.709E-02    3.01       0.0  T
   2   -102.9783267 -0.239807E-05  0.402E-02    3.01       1.0  T
   3   -102.9783217  0.504401E-05  0.121E-02    3.01       1.1  T
   4   -102.9783274 -0.574224E-05  0.419E-03    3.01       3.2  T
   5   -102.9783277 -0.342767E-06  0.207E-03    3.01       6.6  T
   6   -102.9783278 -0.515682E-07  0.109E-03    3.01      12.5  T
   7   -102.9783278 -0.101130E-07  0.810E-04    3.01      16.8  T
   8   -102.9783278 -0.288352E-08  0.405E-04    3.01      33.6  T
     SCC iter.                  ...        0 min,  0.127 sec
     gradient                   ...        0 min,  0.158 sec
 * total energy  :  -101.6445239 Eh     change       -0.8563807E-04 Eh
   gradient norm :     0.0019981 Eh/α   predicted    -0.6776504E-04 ( -20.87%)
   displ. norm   :     0.3131181 α      lambda       -0.5049137E-04
   maximum displ.:     0.1438922 α      in ANC's #9, #5, #2, ...

........................................................................
.............................. CYCLE   26 ..............................
........................................................................
   1   -102.9778123 -0.102978E+03  0.832E-02    3.00       0.0  T
   2   -102.9778150 -0.271539E-05  0.473E-02    2.99       1.0  T
   3   -102.9778095  0.546575E-05  0.127E-02    2.99       1.1  T
   4   -102.9778158 -0.623042E-05  0.457E-03    2.99       3.0  T
   5   -102.9778161 -0.365684E-06  0.221E-03    2.99       6.2  T
   6   -102.9778162 -0.711641E-07  0.119E-03    2.99      11.4  T
   7   -102.9778162 -0.153779E-07  0.881E-04    2.99      15.4  T
   8   -102.9778162 -0.324957E-08  0.433E-04    2.99      31.4  T
     SCC iter.                  ...        0 min,  0.123 sec
     gradient                   ...        0 min,  0.124 sec
 * total energy  :  -101.6445720 Eh     change       -0.4810716E-04 Eh
   gradient norm :     0.0033674 Eh/α   predicted    -0.2634632E-04 ( -45.23%)
   displ. norm   :     0.1265477 α      lambda       -0.3263103E-04
   maximum displ.:     0.0564422 α      in ANC's #9, #5, #2, ...

........................................................................
.............................. CYCLE   27 ..............................
........................................................................
   1   -102.9783696 -0.102978E+03  0.328E-02    2.99       0.0  T
   2   -102.9783700 -0.342837E-06  0.186E-02    2.99       1.0  T
   3   -102.9783695  0.429764E-06  0.386E-03    2.99       3.5  T
   4   -102.9783700 -0.509044E-06  0.169E-03    2.99       8.1  T
   5   -102.9783701 -0.398490E-07  0.788E-04    2.99      17.3  T
   6   -102.9783701 -0.133205E-07  0.434E-04    2.99      31.3  T
     SCC iter.                  ...        0 min,  0.093 sec
     gradient                   ...        0 min,  0.133 sec
 * total energy  :  -101.6445996 Eh     change       -0.2759868E-04 Eh
   gradient norm :     0.0024034 Eh/α   predicted    -0.1658032E-04 ( -39.92%)
   displ. norm   :     0.2171163 α      lambda       -0.5272639E-04
   maximum displ.:     0.0942050 α      in ANC's #9, #2, #4, ...

........................................................................
.............................. CYCLE   28 ..............................
........................................................................
   1   -102.9787300 -0.102979E+03  0.564E-02    2.98       0.0  T
   2   -102.9787312 -0.121673E-05  0.317E-02    2.98       1.0  T
   3   -102.9787302  0.103287E-05  0.627E-03    2.98       2.2  T
   4   -102.9787314 -0.123872E-05  0.296E-03    2.98       4.6  T
   5   -102.9787315 -0.133671E-06  0.138E-03    2.98       9.8  T
   6   -102.9787316 -0.454435E-07  0.706E-04    2.98      19.3  T
   7   -102.9787316 -0.333939E-08  0.516E-04    2.98      26.4  T
     SCC iter.                  ...        0 min,  0.111 sec
     gradient                   ...        0 min,  0.116 sec
 * total energy  :  -101.6446381 Eh     change       -0.3846034E-04 Eh
   gradient norm :     0.0013797 Eh/α   predicted    -0.2761922E-04 ( -28.19%)
   displ. norm   :     0.2740613 α      lambda       -0.3185989E-04
   maximum displ.:     0.1192889 α      in ANC's #2, #4, #9, ...

........................................................................
.............................. CYCLE   29 ..............................
........................................................................
   1   -102.9784652 -0.102978E+03  0.709E-02    2.98       0.0  T
   2   -102.9784670 -0.183737E-05  0.396E-02    2.98       1.0  T
   3   -102.9784659  0.112034E-05  0.702E-03    2.98       1.9  T
   4   -102.9784674 -0.144011E-05  0.340E-03    2.98       4.0  T
   5   -102.9784675 -0.170331E-06  0.155E-03    2.98       8.8  T
   6   -102.9784676 -0.646366E-07  0.805E-04    2.98      16.9  T
   7   -102.9784676 -0.503397E-08  0.582E-04    2.98      23.4  T
     SCC iter.                  ...        0 min,  0.111 sec
     gradient                   ...        0 min,  0.124 sec
 * total energy  :  -101.6446716 Eh     change       -0.3353626E-04 Eh
   gradient norm :     0.0023698 Eh/α   predicted    -0.1646459E-04 ( -50.91%)
   displ. norm   :     0.1300517 α      lambda       -0.2906586E-04
   maximum displ.:     0.0607697 α      in ANC's #2, #4, #3, ...

........................................................................
.............................. CYCLE   30 ..............................
........................................................................
   1   -102.9786728 -0.102979E+03  0.321E-02    2.97       0.0  T
   2   -102.9786732 -0.429944E-06  0.179E-02    2.97       1.0  T
   3   -102.9786728  0.382263E-06  0.368E-03    2.97       3.7  T
   4   -102.9786733 -0.490163E-06  0.160E-03    2.97       8.5  T
   5   -102.9786734 -0.320220E-07  0.758E-04    2.97      17.9  T
   6   -102.9786734 -0.125001E-07  0.405E-04    2.97      33.6  T
     SCC iter.                  ...        0 min,  0.091 sec
     gradient                   ...        0 min,  0.123 sec
 * total energy  :  -101.6446981 Eh     change       -0.2653223E-04 Eh
   gradient norm :     0.0021798 Eh/α   predicted    -0.1478062E-04 ( -44.29%)
   displ. norm   :     0.3291405 α      lambda       -0.7839958E-04
   maximum displ.:     0.1527530 α      in ANC's #2, #4, #3, ...

........................................................................
.............................. CYCLE   31 ..............................
........................................................................
   1   -102.9780612 -0.102978E+03  0.794E-02    2.97       0.0  T
   2   -102.9780635 -0.237364E-05  0.443E-02    2.97       1.0  T
   3   -102.9780605  0.302709E-05  0.101E-02    2.97       1.3  T
   4   -102.9780642 -0.370135E-05  0.416E-03    2.97       3.3  T
   5   -102.9780644 -0.171766E-06  0.207E-03    2.97       6.6  T
   6   -102.9780645 -0.114911E-06  0.912E-04    2.97      14.9  T
   7   -102.9780645 -0.879368E-08  0.682E-04    2.97      20.0  T
     SCC iter.                  ...        0 min,  0.111 sec
     gradient                   ...        0 min,  0.134 sec
 * total energy  :  -101.6447610 Eh     change       -0.6287243E-04 Eh
   gradient norm :     0.0018846 Eh/α   predicted    -0.4347761E-04 ( -30.85%)
   displ. norm   :     0.5765190 α      lambda       -0.6657539E-04
   maximum displ.:     0.2710655 α      in ANC's #2, #4, #3, ...

........................................................................
.............................. CYCLE   32 ..............................
........................................................................
   1   -102.9759842 -0.102976E+03  0.134E-01    2.96       0.0  T
   2   -102.9759895 -0.531442E-05  0.751E-02    2.96       1.0  T
   3   -102.9759797  0.978895E-05  0.178E-02    2.96       1.0  T
   4   -102.9759915 -0.117725E-04  0.690E-03    2.96       2.0  T
   5   -102.9759918 -0.323096E-06  0.337E-03    2.96       4.0  T
   6   -102.9759922 -0.374715E-06  0.144E-03    2.96       9.5  T
   7   -102.9759922 -0.171706E-07  0.108E-03    2.96      12.6  T
   8   -102.9759922 -0.717240E-08  0.566E-04    2.96      24.0  T
   9   -102.9759922 -0.313898E-08  0.285E-04    2.96      47.7  T
     SCC iter.                  ...        0 min,  0.137 sec
     gradient                   ...        0 min,  0.129 sec
 * total energy  :  -101.6448137 Eh     change       -0.5264032E-04 Eh
   gradient norm :     0.0035633 Eh/α   predicted    -0.3820816E-04 ( -27.42%)
   displ. norm   :     0.0682984 α      lambda       -0.2876614E-04
   maximum displ.:     0.0322102 α      in ANC's #2, #1, #3, ...

........................................................................
.............................. CYCLE   33 ..............................
........................................................................
   1   -102.9778874 -0.102978E+03  0.150E-02    2.96       0.0  T
   2   -102.9778877 -0.232700E-06  0.854E-03    2.96       1.6  T
   3   -102.9778874  0.263927E-06  0.322E-03    2.96       4.2  T
   4   -102.9778877 -0.332147E-06  0.948E-04    2.96      14.3  T
   5   -102.9778878 -0.136394E-07  0.559E-04    2.96      24.3  T
     SCC iter.                  ...        0 min,  0.078 sec
     gradient                   ...        0 min,  0.122 sec
 * total energy  :  -101.6448346 Eh     change       -0.2095193E-04 Eh
   gradient norm :     0.0021905 Eh/α   predicted    -0.1445003E-04 ( -31.03%)
   displ. norm   :     0.2007661 α      lambda       -0.4185329E-04
   maximum displ.:     0.1005001 α      in ANC's #2, #1, #3, ...

........................................................................
.............................. CYCLE   34 ..............................
........................................................................
   1   -102.9788661 -0.102979E+03  0.469E-02    2.96       0.0  T
   2   -102.9788671 -0.951875E-06  0.266E-02    2.96       1.0  T
   3   -102.9788663  0.791725E-06  0.549E-03    2.96       2.5  T
   4   -102.9788672 -0.959759E-06  0.227E-03    2.96       6.0  T
   5   -102.9788673 -0.809523E-07  0.120E-03    2.96      11.4  T
   6   -102.9788673 -0.394084E-07  0.487E-04    2.96      27.9  T
   7   -102.9788674 -0.296505E-08  0.357E-04    2.96      38.1  T
     SCC iter.                  ...        0 min,  0.110 sec
     gradient                   ...        0 min,  0.139 sec
 * total energy  :  -101.6448653 Eh     change       -0.3065216E-04 Eh
   gradient norm :     0.0013550 Eh/α   predicted    -0.2177308E-04 ( -28.97%)
   displ. norm   :     0.3644944 α      lambda       -0.3014420E-04
   maximum displ.:     0.1847956 α      in ANC's #2, #1, #7, ...

........................................................................
.............................. CYCLE   35 ..............................
........................................................................
   1   -102.9781924 -0.102978E+03  0.866E-02    2.95       0.0  T
   2   -102.9781943 -0.191684E-05  0.489E-02    2.94       1.0  T
   3   -102.9781913  0.300956E-05  0.102E-02    2.94       1.3  T
   4   -102.9781947 -0.345066E-05  0.433E-03    2.94       3.1  T
   5   -102.9781950 -0.290823E-06  0.196E-03    2.94       7.0  T
   6   -102.9781951 -0.105200E-06  0.903E-04    2.94      15.1  T
   7   -102.9781951 -0.742249E-08  0.677E-04    2.94      20.1  T
     SCC iter.                  ...        0 min,  0.108 sec
     gradient                   ...        0 min,  0.140 sec
 * total energy  :  -101.6448924 Eh     change       -0.2718075E-04 Eh
   gradient norm :     0.0019482 Eh/α   predicted    -0.1596281E-04 ( -41.27%)
   displ. norm   :     0.1705164 α      lambda       -0.1454187E-04
   maximum displ.:     0.0896612 α      in ANC's #2, #1, #7, ...

........................................................................
.............................. CYCLE   36 ..............................
........................................................................
   1   -102.9780324 -0.102978E+03  0.428E-02    2.94       0.0  T
   2   -102.9780329 -0.448360E-06  0.239E-02    2.94       1.0  T
   3   -102.9780319  0.973342E-06  0.564E-03    2.94       2.4  T
   4   -102.9780330 -0.112341E-05  0.233E-03    2.94       5.8  T
   5   -102.9780331 -0.603912E-07  0.103E-03    2.94      13.2  T
   6   -102.9780331 -0.308711E-07  0.513E-04    2.94      26.5  T
   7   -102.9780331 -0.124324E-08  0.386E-04    2.94      35.3  T
     SCC iter.                  ...        0 min,  0.115 sec
     gradient                   ...        0 min,  0.143 sec
 * total energy  :  -101.6449113 Eh     change       -0.1886214E-04 Eh
   gradient norm :     0.0019178 Eh/α   predicted    -0.7367885E-05 ( -60.94%)
   displ. norm   :     0.3582608 α      lambda       -0.3834681E-04
   maximum displ.:     0.1862831 α      in ANC's #2, #1, #7, ...

........................................................................
.............................. CYCLE   37 ..............................
........................................................................
   1   -102.9779959 -0.102978E+03  0.943E-02    2.93       0.0  T
   2   -102.9779984 -0.243475E-05  0.526E-02    2.92       1.0  T
   3   -102.9779920  0.638411E-05  0.139E-02    2.92       1.0  T
   4   -102.9779992 -0.726338E-05  0.525E-03    2.92       2.6  T
   5   -102.9779996 -0.319932E-06  0.230E-03    2.92       5.9  T
   6   -102.9779997 -0.136865E-06  0.110E-03    2.92      12.4  T
   7   -102.9779997 -0.828561E-08  0.838E-04    2.92      16.2  T
   8   -102.9779997 -0.405477E-08  0.451E-04    2.92      30.2  T
     SCC iter.                  ...        0 min,  0.126 sec
     gradient                   ...        0 min,  0.148 sec
 * total energy  :  -101.6449520 Eh     change       -0.4072329E-04 Eh
   gradient norm :     0.0023592 Eh/α   predicted    -0.2026803E-04 ( -50.23%)
   displ. norm   :     0.2948984 α      lambda       -0.3300851E-04
   maximum displ.:     0.1538527 α      in ANC's #2, #1, #7, ...

........................................................................
.............................. CYCLE   38 ..............................
........................................................................
   1   -102.9768548 -0.102977E+03  0.782E-02    2.91       0.0  T
   2   -102.9768563 -0.154478E-05  0.434E-02    2.91       1.0  T
   3   -102.9768511  0.525877E-05  0.123E-02    2.91       1.1  T
   4   -102.9768571 -0.599065E-05  0.439E-03    2.91       3.1  T
   5   -102.9768572 -0.159594E-06  0.187E-03    2.91       7.3  T
   6   -102.9768573 -0.109350E-06  0.872E-04    2.91      15.6  T
   7   -102.9768573 -0.492284E-08  0.658E-04    2.91      20.7  T
     SCC iter.                  ...        0 min,  0.110 sec
     gradient                   ...        0 min,  0.136 sec
 * total energy  :  -101.6449753 Eh     change       -0.2328862E-04 Eh
   gradient norm :     0.0021060 Eh/α   predicted    -0.1793979E-04 ( -22.97%)
   displ. norm   :     0.2242950 α      lambda       -0.2519667E-04
   maximum displ.:     0.1179473 α      in ANC's #2, #1, #7, ...

........................................................................
.............................. CYCLE   39 ..............................
........................................................................
   1   -102.9775201 -0.102978E+03  0.594E-02    2.90       0.0  T
   2   -102.9775209 -0.798647E-06  0.328E-02    2.90       1.0  T
   3   -102.9775182  0.265307E-05  0.889E-03    2.90       1.5  T
   4   -102.9775213 -0.304038E-05  0.341E-03    2.90       4.0  T
   5   -102.9775214 -0.961647E-07  0.148E-03    2.90       9.2  T
   6   -102.9775214 -0.618543E-07  0.779E-04    2.90      17.5  T
   7   -102.9775214 -0.322997E-08  0.590E-04    2.90      23.1  T
     SCC iter.                  ...        0 min,  0.109 sec
     gradient                   ...        0 min,  0.138 sec
 * total energy  :  -101.6449961 Eh     change       -0.2077566E-04 Eh
   gradient norm :     0.0019796 Eh/α   predicted    -0.1323303E-04 ( -36.31%)
   displ. norm   :     0.3915298 α      lambda       -0.3074572E-04
   maximum displ.:     0.2107373 α      in ANC's #1, #2, #8, ...

........................................................................
.............................. CYCLE   40 ..............................
........................................................................
   1   -102.9781504 -0.102978E+03  0.101E-01    2.89       0.0  T
   2   -102.9781528 -0.239712E-05  0.560E-02    2.89       1.0  T
   3   -102.9781454  0.740683E-05  0.148E-02    2.89       1.0  T
   4   -102.9781538 -0.847982E-05  0.576E-03    2.89       2.4  T
   5   -102.9781541 -0.281750E-06  0.259E-03    2.89       5.2  T
   6   -102.9781543 -0.199646E-06  0.128E-03    2.89      10.6  T
   7   -102.9781543 -0.957975E-08  0.991E-04    2.89      13.7  T
   8   -102.9781543 -0.655129E-08  0.416E-04    2.89      32.7  T
     SCC iter.                  ...        0 min,  0.126 sec
     gradient                   ...        0 min,  0.124 sec
 * total energy  :  -101.6450294 Eh     change       -0.3330673E-04 Eh
   gradient norm :     0.0018513 Eh/α   predicted    -0.1642536E-04 ( -50.68%)
   displ. norm   :     0.2640513 α      lambda       -0.1858602E-04
   maximum displ.:     0.1521175 α      in ANC's #1, #2, #8, ...

........................................................................
.............................. CYCLE   41 ..............................
........................................................................
   1   -102.9781130 -0.102978E+03  0.652E-02    2.89       0.0  T
   2   -102.9781141 -0.109091E-05  0.362E-02    2.88       1.0  T
   3   -102.9781125  0.161230E-05  0.782E-03    2.88       1.7  T
   4   -102.9781144 -0.187581E-05  0.365E-03    2.88       3.7  T
   5   -102.9781145 -0.145431E-06  0.169E-03    2.88       8.0  T
   6   -102.9781146 -0.924828E-07  0.814E-04    2.88      16.7  T
   7   -102.9781146 -0.385818E-08  0.631E-04    2.88      21.6  T
     SCC iter.                  ...        0 min,  0.111 sec
     gradient                   ...        0 min,  0.116 sec
 * total energy  :  -101.6450509 Eh     change       -0.2149205E-04 Eh
   gradient norm :     0.0016694 Eh/α   predicted    -0.9585862E-05 ( -55.40%)
   displ. norm   :     0.2079021 α      lambda       -0.1894476E-04
   maximum displ.:     0.1314534 α      in ANC's #1, #2, #8, ...

........................................................................
.............................. CYCLE   42 ..............................
........................................................................
   1   -102.9787364 -0.102979E+03  0.516E-02    2.88       0.0  T
   2   -102.9787372 -0.799743E-06  0.286E-02    2.88       1.0  T
   3   -102.9787359  0.121043E-05  0.653E-03    2.88       2.1  T
   4   -102.9787374 -0.147295E-05  0.287E-03    2.88       4.7  T
   5   -102.9787375 -0.766614E-07  0.127E-03    2.88      10.7  T
   6   -102.9787375 -0.408477E-07  0.685E-04    2.88      19.9  T
   7   -102.9787375 -0.247303E-08  0.536E-04    2.88      25.4  T
     SCC iter.                  ...        0 min,  0.107 sec
     gradient                   ...        0 min,  0.131 sec
 * total energy  :  -101.6450708 Eh     change       -0.1992885E-04 Eh
   gradient norm :     0.0019781 Eh/α   predicted    -0.9658250E-05 ( -51.54%)
   displ. norm   :     0.2480156 α      lambda       -0.2120269E-04
   maximum displ.:     0.1557197 α      in ANC's #1, #2, #8, ...
 * RMSD in coord.:     0.6326782 α      energy gain  -0.8585697E-03 Eh

generating ANC from model Hessian ...
Using Lindh-Hessian (1995)
 Shifting diagonal of input Hessian by    9.7650536477218355E-003
 Lowest  eigenvalues of input Hessian
    0.000000    0.000000    0.000000    0.000000    0.000000    0.000000
    0.010000    0.010104    0.010280    0.010525    0.010641    0.010879
    0.010946    0.011139    0.011350    0.011767    0.011991    0.012591
 Highest eigenvalues
    2.011028    2.027761    2.030522    2.338981    2.341147    2.399359


........................................................................
.............................. CYCLE   43 ..............................
........................................................................
   1   -102.9776783 -0.102978E+03  0.626E-02    2.87       0.0  T
   2   -102.9776794 -0.110960E-05  0.346E-02    2.87       1.0  T
   3   -102.9776787  0.712103E-06  0.636E-03    2.87       2.1  T
   4   -102.9776796 -0.913925E-06  0.325E-03    2.87       4.2  T
   5   -102.9776797 -0.126996E-06  0.142E-03    2.87       9.6  T
   6   -102.9776798 -0.668550E-07  0.713E-04    2.87      19.1  T
   7   -102.9776798 -0.237927E-08  0.538E-04    2.87      25.3  T
     SCC iter.                  ...        0 min,  0.108 sec
     gradient                   ...        0 min,  0.143 sec
 * total energy  :  -101.6450963 Eh     change       -0.2545819E-04 Eh
   gradient norm :     0.0020729 Eh/α   predicted     0.0000000E+00 (-100.00%)
   displ. norm   :     0.0268889 α      lambda       -0.1514734E-04
   maximum displ.:     0.0140636 α      in ANC's #7, #1, #5, ...

........................................................................
.............................. CYCLE   44 ..............................
........................................................................
   1   -102.9776220 -0.102978E+03  0.925E-03    2.87       0.0  T
   2   -102.9776221 -0.788408E-07  0.536E-03    2.87       2.5  T
   3   -102.9776220  0.135763E-06  0.199E-03    2.87       6.8  T
   4   -102.9776221 -0.164181E-06  0.584E-04    2.87      23.3  T
   5   -102.9776221 -0.735484E-08  0.291E-04    2.87      46.7  T
     SCC iter.                  ...        0 min,  0.077 sec
     gradient                   ...        0 min,  0.146 sec
 * total energy  :  -101.6451084 Eh     change       -0.1209815E-04 Eh
   gradient norm :     0.0009610 Eh/α   predicted    -0.7582091E-05 ( -37.33%)
   displ. norm   :     0.1131908 α      lambda       -0.2457794E-04
   maximum displ.:     0.0603778 α      in ANC's #7, #1, #5, ...

........................................................................
.............................. CYCLE   45 ..............................
........................................................................
   1   -102.9774904 -0.102977E+03  0.359E-02    2.87       0.0  T
   2   -102.9774911 -0.708445E-06  0.205E-02    2.87       1.0  T
   3   -102.9774893  0.180442E-05  0.684E-03    2.88       2.0  T
   4   -102.9774914 -0.208857E-05  0.201E-03    2.87       6.8  T
   5   -102.9774915 -0.732279E-07  0.100E-03    2.87      13.6  T
   6   -102.9774915 -0.191137E-07  0.402E-04    2.87      33.9  T
   7   -102.9774915 -0.269142E-08  0.267E-04    2.87      51.0  T
     SCC iter.                  ...        0 min,  0.108 sec
     gradient                   ...        0 min,  0.131 sec
 * total energy  :  -101.6451300 Eh     change       -0.2166637E-04 Eh
   gradient norm :     0.0023346 Eh/α   predicted    -0.1236480E-04 ( -42.93%)
   displ. norm   :     0.0584451 α      lambda       -0.1417116E-04
   maximum displ.:     0.0310869 α      in ANC's #7, #1, #8, ...

........................................................................
.............................. CYCLE   46 ..............................
........................................................................
   1   -102.9775718 -0.102978E+03  0.189E-02    2.87       0.0  T
   2   -102.9775719 -0.895653E-07  0.107E-02    2.88       1.3  T
   3   -102.9775716  0.249732E-06  0.265E-03    2.88       5.1  T
   4   -102.9775719 -0.285849E-06  0.936E-04    2.88      14.5  T
   5   -102.9775719 -0.110367E-07  0.399E-04    2.88      34.1  T
     SCC iter.                  ...        0 min,  0.079 sec
     gradient                   ...        0 min,  0.123 sec
 * total energy  :  -101.6451431 Eh     change       -0.1307597E-04 Eh
   gradient norm :     0.0021092 Eh/α   predicted    -0.7112329E-05 ( -45.61%)
   displ. norm   :     0.1969373 α      lambda       -0.4660669E-04
   maximum displ.:     0.1021480 α      in ANC's #7, #1, #8, ...

........................................................................
.............................. CYCLE   47 ..............................
........................................................................
   1   -102.9775924 -0.102978E+03  0.650E-02    2.87       0.0  T
   2   -102.9775933 -0.899630E-06  0.368E-02    2.87       1.0  T
   3   -102.9775912  0.212812E-05  0.801E-03    2.87       1.7  T
   4   -102.9775937 -0.247044E-05  0.313E-03    2.87       4.3  T
   5   -102.9775938 -0.115138E-06  0.134E-03    2.87      10.2  T
   6   -102.9775938 -0.497938E-07  0.605E-04    2.87      22.5  T
   7   -102.9775938 -0.256347E-08  0.429E-04    2.87      31.7  T
     SCC iter.                  ...        0 min,  0.110 sec
     gradient                   ...        0 min,  0.153 sec
 * total energy  :  -101.6451796 Eh     change       -0.3643963E-04 Eh
   gradient norm :     0.0015227 Eh/α   predicted    -0.2427318E-04 ( -33.39%)
   displ. norm   :     0.3528616 α      lambda       -0.3755158E-04
   maximum displ.:     0.1839303 α      in ANC's #7, #1, #8, ...

........................................................................
.............................. CYCLE   48 ..............................
........................................................................
   1   -102.9767512 -0.102977E+03  0.118E-01    2.87       0.0  T
   2   -102.9767540 -0.284840E-05  0.668E-02    2.87       1.0  T
   3   -102.9767489  0.515444E-05  0.131E-02    2.87       1.0  T
   4   -102.9767549 -0.605448E-05  0.563E-03    2.87       2.4  T
   5   -102.9767554 -0.410017E-06  0.241E-03    2.87       5.6  T
   6   -102.9767555 -0.166772E-06  0.108E-03    2.87      12.6  T
   7   -102.9767555 -0.672462E-08  0.761E-04    2.87      17.9  T
   8   -102.9767555 -0.275183E-08  0.392E-04    2.87      34.7  T
     SCC iter.                  ...        0 min,  0.122 sec
     gradient                   ...        0 min,  0.137 sec
 * total energy  :  -101.6452116 Eh     change       -0.3206433E-04 Eh
   gradient norm :     0.0029352 Eh/α   predicted    -0.1981564E-04 ( -38.20%)
   displ. norm   :     0.0844268 α      lambda       -0.1998710E-04
   maximum displ.:     0.0443550 α      in ANC's #7, #1, #8, ...

........................................................................
.............................. CYCLE   49 ..............................
........................................................................
   1   -102.9774762 -0.102977E+03  0.285E-02    2.87       0.0  T
   2   -102.9774764 -0.203637E-06  0.161E-02    2.87       1.0  T
   3   -102.9774763  0.137770E-06  0.269E-03    2.87       5.1  T
   4   -102.9774764 -0.174775E-06  0.138E-03    2.87       9.9  T
   5   -102.9774765 -0.266950E-07  0.665E-04    2.87      20.5  T
   6   -102.9774765 -0.119113E-07  0.322E-04    2.87      42.3  T
     SCC iter.                  ...        0 min,  0.091 sec
     gradient                   ...        0 min,  0.129 sec
 * total energy  :  -101.6452295 Eh     change       -0.1790037E-04 Eh
   gradient norm :     0.0022872 Eh/α   predicted    -0.1008228E-04 ( -43.68%)
   displ. norm   :     0.3023037 α      lambda       -0.6523070E-04
   maximum displ.:     0.1561484 α      in ANC's #7, #1, #8, ...

........................................................................
.............................. CYCLE   50 ..............................
........................................................................
   1   -102.9781375 -0.102978E+03  0.102E-01    2.87       0.0  T
   2   -102.9781401 -0.253872E-05  0.571E-02    2.87       1.0  T
   3   -102.9781389  0.122405E-05  0.904E-03    2.87       1.5  T
   4   -102.9781405 -0.163124E-05  0.481E-03    2.87       2.8  T
   5   -102.9781409 -0.382883E-06  0.208E-03    2.87       6.5  T
   6   -102.9781410 -0.106019E-06  0.114E-03    2.87      12.0  T
   7   -102.9781410 -0.482385E-08  0.836E-04    2.87      16.3  T
   8   -102.9781410 -0.544142E-08  0.426E-04    2.87      31.9  T
     SCC iter.                  ...        0 min,  0.120 sec
     gradient                   ...        0 min,  0.133 sec
 * total energy  :  -101.6452777 Eh     change       -0.4815097E-04 Eh
   gradient norm :     0.0014135 Eh/α   predicted    -0.3559736E-04 ( -26.07%)
   displ. norm   :     0.5102759 α      lambda       -0.4381765E-04
   maximum displ.:     0.2597842 α      in ANC's #7, #1, #8, ...

........................................................................
.............................. CYCLE   51 ..............................
........................................................................
   1   -102.9756768 -0.102976E+03  0.170E-01    2.86       0.0  T
   2   -102.9756838 -0.707492E-05  0.955E-02    2.85       1.0  T
   3   -102.9756784  0.547649E-05  0.166E-02    2.86       1.0  T
   4   -102.9756850 -0.664409E-05  0.847E-03    2.86       1.6  T
   5   -102.9756862 -0.116864E-05  0.369E-03    2.86       3.7  T
   6   -102.9756865 -0.378279E-06  0.200E-03    2.86       6.8  T
   7   -102.9756866 -0.242230E-07  0.148E-03    2.86       9.2  T
   8   -102.9756866 -0.155178E-07  0.752E-04    2.86      18.1  T
   9   -102.9756866 -0.676810E-08  0.369E-04    2.86      36.9  T
     SCC iter.                  ...        0 min,  0.138 sec
     gradient                   ...        0 min,  0.132 sec
 * total energy  :  -101.6453134 Eh     change       -0.3570644E-04 Eh
   gradient norm :     0.0038005 Eh/α   predicted    -0.2444446E-04 ( -31.54%)
   displ. norm   :     0.1098751 α      lambda       -0.3779429E-04
   maximum displ.:     0.0503840 α      in ANC's #11, #1, #4, ...

........................................................................
.............................. CYCLE   52 ..............................
........................................................................
   1   -102.9776329 -0.102978E+03  0.334E-02    2.86       0.0  T
   2   -102.9776333 -0.443810E-06  0.183E-02    2.86       1.0  T
   3   -102.9776330  0.320779E-06  0.407E-03    2.86       3.3  T
   4   -102.9776334 -0.418250E-06  0.212E-03    2.86       6.4  T
   5   -102.9776335 -0.418677E-07  0.117E-03    2.86      11.7  T
   6   -102.9776335 -0.331062E-07  0.621E-04    2.86      21.9  T
   7   -102.9776335 -0.148623E-08  0.454E-04    2.86      30.0  T
     SCC iter.                  ...        0 min,  0.107 sec
     gradient                   ...        0 min,  0.070 sec
 * total energy  :  -101.6453400 Eh     change       -0.2660726E-04 Eh
   gradient norm :     0.0022270 Eh/α   predicted    -0.1913640E-04 ( -28.08%)
   displ. norm   :     0.2485727 α      lambda       -0.4213542E-04
   maximum displ.:     0.1190913 α      in ANC's #1, #7, #8, ...

........................................................................
.............................. CYCLE   53 ..............................
........................................................................
   1   -102.9781476 -0.102978E+03  0.785E-02    2.85       0.0  T
   2   -102.9781492 -0.159323E-05  0.433E-02    2.85       1.0  T
   3   -102.9781487  0.455661E-06  0.720E-03    2.85       1.9  T
   4   -102.9781493 -0.573839E-06  0.429E-03    2.85       3.2  T
   5   -102.9781497 -0.380521E-06  0.169E-03    2.85       8.0  T
   6   -102.9781497 -0.454444E-07  0.112E-03    2.85      12.1  T
   7   -102.9781497 -0.125918E-08  0.826E-04    2.85      16.5  T
   8   -102.9781497 -0.899426E-08  0.309E-04    2.85      44.1  T
     SCC iter.                  ...        0 min,  0.121 sec
     gradient                   ...        0 min,  0.146 sec
 * total energy  :  -101.6453757 Eh     change       -0.3575522E-04 Eh
   gradient norm :     0.0017396 Eh/α   predicted    -0.2237030E-04 ( -37.43%)
   displ. norm   :     0.6538260 α      lambda       -0.7219393E-04
   maximum displ.:     0.3164522 α      in ANC's #1, #7, #8, ...

........................................................................
.............................. CYCLE   54 ..............................
........................................................................
   1   -102.9756521 -0.102976E+03  0.206E-01    2.83       0.0  T
   2   -102.9756631 -0.109827E-04  0.113E-01    2.83       1.0  T
   3   -102.9756567  0.639767E-05  0.209E-02    2.83       1.0  T
   4   -102.9756639 -0.723711E-05  0.120E-02    2.83       1.1  T
   5   -102.9756667 -0.276397E-05  0.494E-03    2.83       2.8  T
   6   -102.9756671 -0.480376E-06  0.311E-03    2.83       4.4  T
   7   -102.9756672 -0.443055E-07  0.232E-03    2.83       5.9  T
   8   -102.9756672 -0.484308E-07  0.949E-04    2.83      14.3  T
   9   -102.9756673 -0.173504E-07  0.388E-04    2.83      35.1  T
     SCC iter.                  ...        0 min,  0.138 sec
     gradient                   ...        0 min,  0.158 sec
 * total energy  :  -101.6454247 Eh     change       -0.4899805E-04 Eh
   gradient norm :     0.0050188 Eh/α   predicted    -0.4296837E-04 ( -12.31%)
   displ. norm   :     0.1144306 α      lambda       -0.6988553E-04
   maximum displ.:     0.0464341 α      in ANC's #7, #10, #5, ...

........................................................................
.............................. CYCLE   55 ..............................
........................................................................
   1   -102.9791699 -0.102979E+03  0.433E-02    2.85       0.0  T
   2   -102.9791710 -0.104034E-05  0.252E-02    2.85       1.0  T
   3   -102.9791674  0.359828E-05  0.100E-02    2.85       1.4  T
   4   -102.9791716 -0.421018E-05  0.252E-03    2.85       5.4  T
   5   -102.9791717 -0.100298E-06  0.163E-03    2.85       8.4  T
   6   -102.9791717 -0.498336E-07  0.925E-04    2.85      14.7  T
   7   -102.9791717 -0.363403E-08  0.682E-04    2.85      20.0  T
     SCC iter.                  ...        0 min,  0.106 sec
     gradient                   ...        0 min,  0.135 sec
 * total energy  :  -101.6454502 Eh     change       -0.2549493E-04 Eh
   gradient norm :     0.0038125 Eh/α   predicted    -0.3540944E-04 (  38.89%)
   displ. norm   :     0.0935317 α      lambda       -0.2880416E-04
   maximum displ.:     0.0481472 α      in ANC's #1, #7, #8, ...

........................................................................
.............................. CYCLE   56 ..............................
........................................................................
   1   -102.9780585 -0.102978E+03  0.285E-02    2.84       0.0  T
   2   -102.9780588 -0.293364E-06  0.160E-02    2.84       1.0  T
   3   -102.9780579  0.895094E-06  0.500E-03    2.84       2.7  T
   4   -102.9780590 -0.102910E-05  0.166E-03    2.84       8.2  T
   5   -102.9780590 -0.265712E-07  0.928E-04    2.84      14.7  T
   6   -102.9780590 -0.208079E-07  0.499E-04    2.84      27.3  T
     SCC iter.                  ...        0 min,  0.092 sec
     gradient                   ...        0 min,  0.149 sec
 * total energy  :  -101.6454735 Eh     change       -0.2330782E-04 Eh
   gradient norm :     0.0023557 Eh/α   predicted    -0.1453990E-04 ( -37.62%)
   displ. norm   :     0.2364703 α      lambda       -0.4747841E-04
   maximum displ.:     0.1201274 α      in ANC's #1, #8, #4, ...

........................................................................
.............................. CYCLE   57 ..............................
........................................................................
   1   -102.9764650 -0.102976E+03  0.702E-02    2.84       0.0  T
   2   -102.9764665 -0.150016E-05  0.387E-02    2.84       1.0  T
   3   -102.9764623  0.419486E-05  0.112E-02    2.84       1.2  T
   4   -102.9764671 -0.482120E-05  0.427E-03    2.84       3.2  T
   5   -102.9764673 -0.184920E-06  0.209E-03    2.84       6.5  T
   6   -102.9764674 -0.957460E-07  0.116E-03    2.84      11.7  T
   7   -102.9764674 -0.603555E-08  0.891E-04    2.84      15.3  T
   8   -102.9764674 -0.594986E-08  0.395E-04    2.84      34.4  T
     SCC iter.                  ...        0 min,  0.125 sec
     gradient                   ...        0 min,  0.132 sec
 * total energy  :  -101.6455034 Eh     change       -0.2983074E-04 Eh
   gradient norm :     0.0019707 Eh/α   predicted    -0.2506702E-04 ( -15.97%)
   displ. norm   :     0.3554570 α      lambda        0.1726106E-04
   maximum displ.:     0.1817091 α      in ANC's #1, #8, #4, ...

........................................................................
.............................. CYCLE   58 ..............................
........................................................................
   1   -102.9728366 -0.102973E+03  0.105E-01    2.82       0.0  T
   2   -102.9728399 -0.337482E-05  0.580E-02    2.82       1.0  T
   3   -102.9728274  0.125446E-04  0.188E-02    2.83       1.0  T
   4   -102.9728418 -0.143694E-04  0.626E-03    2.83       2.2  T
   5   -102.9728421 -0.335634E-06  0.313E-03    2.83       4.3  T
   6   -102.9728423 -0.238197E-06  0.165E-03    2.83       8.3  T
   7   -102.9728424 -0.144481E-07  0.126E-03    2.83      10.8  T
   8   -102.9728424 -0.947085E-08  0.596E-04    2.83      22.8  T
   9   -102.9728424 -0.720453E-08  0.224E-04    2.83      60.6  T
     SCC iter.                  ...        0 min,  0.137 sec
     gradient                   ...        0 min,  0.126 sec
 * total energy  :  -101.6454626 Eh     change        0.4074449E-04 Eh
   gradient norm :     0.0072214 Eh/α   predicted     0.9110047E-05 ( -77.64%)
   displ. norm   :     0.1424706 α      lambda       -0.7560696E-04
   maximum displ.:     0.0714358 α      in ANC's #1, #7, #8, ...

........................................................................
.............................. CYCLE   59 ..............................
........................................................................
   1   -102.9758592 -0.102976E+03  0.473E-02    2.83       0.0  T
   2   -102.9758600 -0.766054E-06  0.265E-02    2.83       1.0  T
   3   -102.9758563  0.374660E-05  0.101E-02    2.83       1.3  T
   4   -102.9758605 -0.428224E-05  0.276E-03    2.83       4.9  T
   5   -102.9758606 -0.678147E-07  0.154E-03    2.83       8.8  T
   6   -102.9758607 -0.610837E-07  0.737E-04    2.83      18.5  T
   7   -102.9758607 -0.216477E-08  0.548E-04    2.83      24.8  T
     SCC iter.                  ...        0 min,  0.103 sec
[...]
         1        2.0000           -0.8504980             -23.1432
       ...           ...                  ...                  ...
        85        2.0000           -0.4208039             -11.4507
        86        2.0000           -0.4183120             -11.3828
        87        2.0000           -0.4168704             -11.3436
        88        2.0000           -0.4146190             -11.2824
        89        2.0000           -0.4121953             -11.2164
        90        2.0000           -0.4093226             -11.1382
        91        2.0000           -0.4071394             -11.0788 (HOMO)
        92                         -0.3035528              -8.2601 (LUMO)
        93                         -0.2968812              -8.0785
        94                         -0.2826544              -7.6914
        95                         -0.2489098              -6.7732
        96                         -0.2447613              -6.6603
       ...                                ...                  ...
       182                          0.6657318              18.1155
      -------------------------------------------------------------
                  HL-Gap            0.1035865 Eh            2.8187 eV
             Fermi-level           -0.3553461 Eh           -9.6695 eV

 SCC (total)                   0 d,  0 h,  0 min,  0.322 sec
 SCC setup                      ...        0 min,  0.010 sec (  3.147%)
 Dispersion                     ...        0 min,  0.014 sec (  4.239%)
 classical contributions        ...        0 min,  0.013 sec (  4.018%)
 integral evaluation            ...        0 min,  0.096 sec ( 29.760%)
 iterations                     ...        0 min,  0.047 sec ( 14.739%)
 molecular gradient             ...        0 min,  0.140 sec ( 43.541%)
 printout                       ...        0 min,  0.002 sec (  0.530%)

         :::::::::::::::::::::::::::::::::::::::::::::::::::::
         ::                     SUMMARY                     ::
         :::::::::::::::::::::::::::::::::::::::::::::::::::::
         :: total energy            -101.645641335812 Eh    ::
         :: gradient norm              0.000814027675 Eh/a0 ::
         :: HOMO-LUMO gap              2.818732655332 eV    ::
         ::.................................................::
         :: SCC energy              -102.978415677618 Eh    ::
         :: -> isotropic ES            0.123303743819 Eh    ::
         :: -> anisotropic ES          0.002729177493 Eh    ::
         :: -> anisotropic XC          0.029450515087 Eh    ::
         :: -> dispersion             -0.085471314222 Eh    ::
         :: repulsion energy           1.330645068471 Eh    ::
         :: add. restraining           0.000000000000 Eh    ::
         :: total charge              -0.000000000000 e     ::
         :::::::::::::::::::::::::::::::::::::::::::::::::::::

           -------------------------------------------------
          |                Property Printout                |
           -------------------------------------------------

    * Orbital Energies and Occupations

         #    Occupation            Energy/Eh            Energy/eV
      -------------------------------------------------------------
         1        2.0000           -0.8504980             -23.1432
       ...           ...                  ...                  ...
        79        2.0000           -0.4339007             -11.8070
        80        2.0000           -0.4318509             -11.7513
        81        2.0000           -0.4282075             -11.6521
        82        2.0000           -0.4261031             -11.5949
        83        2.0000           -0.4233663             -11.5204
        84        2.0000           -0.4222301             -11.4895
        85        2.0000           -0.4208039             -11.4507
        86        2.0000           -0.4183120             -11.3828
        87        2.0000           -0.4168704             -11.3436
        88        2.0000           -0.4146190             -11.2824
        89        2.0000           -0.4121953             -11.2164
        90        2.0000           -0.4093226             -11.1382
        91        2.0000           -0.4071394             -11.0788 (HOMO)
        92                         -0.3035528              -8.2601 (LUMO)
        93                         -0.2968812              -8.0785
        94                         -0.2826544              -7.6914
        95                         -0.2489098              -6.7732
        96                         -0.2447613              -6.6603
        97                         -0.2416657              -6.5761
        98                         -0.2407830              -6.5520
        99                         -0.2370374              -6.4501
       100                         -0.2350576              -6.3962
       101                         -0.2349299              -6.3928
       102                         -0.2341294              -6.3710
       ...                                ...                  ...
       182                          0.6657318              18.1155
      -------------------------------------------------------------
                  HL-Gap            0.1035865 Eh            2.8187 eV
             Fermi-level           -0.3553461 Eh           -9.6695 eV

     #   Z          covCN         q      C6AA      α(0)
     1   6 C        2.923    -0.034    28.856     8.809
     2   6 C        2.920    -0.028    28.701     8.785
     3   6 C        2.920    -0.030    28.748     8.792
     4   6 C        2.920    -0.026    28.656     8.778
     5   6 C        2.924    -0.036    28.888     8.814
     6   6 C        2.970     0.002    27.968     8.675
     7   6 C        3.840     0.036    19.943     6.353
     8   6 C        3.833     0.039    19.904     6.348
     9   6 C        2.973     0.007    27.866     8.659
    10   6 C        2.924    -0.029    28.729     8.790
    11   6 C        2.920    -0.025    28.619     8.773
    12   6 C        2.921    -0.027    28.674     8.781
    13   6 C        2.920    -0.026    28.643     8.776
    14   6 C        2.924    -0.028    28.705     8.786
    15   7 N        2.764    -0.110    23.393     7.183
    16   6 C        2.772     0.270    22.433     7.757
    17   6 C        2.990    -0.017    28.413     8.744
    18   6 C        3.160    -0.035    28.526     8.731
    19   6 C        3.125     0.074    26.157     8.375
    20  35 Br       1.032    -0.139   188.854    22.158
    21   6 C        2.998    -0.024    28.585     8.770
    22  16 S        2.332    -0.012   141.542    20.024
    23   8 O        0.861    -0.420    22.081     6.300
    24   6 C        3.769     0.086    19.187     6.242
    25   6 C        2.688     0.355    20.977     7.495
    26   8 O        1.659    -0.352    19.942     6.028
    27   8 O        0.856    -0.385    21.381     6.199
    28   7 N        2.768    -0.113    23.473     7.196
    29   6 C        2.808     0.272    22.406     7.755
    30   6 C        3.002    -0.024    28.583     8.770
    31   6 C        3.138    -0.060    29.258     8.853
    32   6 C        3.128     0.073    26.186     8.378
    33  35 Br       1.030    -0.147   189.087    22.171
    34   6 C        2.994    -0.037    28.905     8.819
    35  16 S        2.352     0.076   137.983    19.770
    36   8 O        0.860    -0.410    21.886     6.272
    37   1 H        0.926     0.034     2.534     2.489
    38   1 H        0.926     0.040     2.452     2.449
    39   1 H        0.926     0.039     2.460     2.453
    40   1 H        0.926     0.041     2.437     2.441
    41   1 H        0.926     0.036     2.498     2.472
    42   1 H        0.924     0.091     1.866     2.136
    43   1 H        0.924     0.077     2.006     2.215
    44   1 H        0.926     0.038     2.470     2.457
    45   1 H        0.926     0.041     2.432     2.438
    46   1 H        0.926     0.040     2.454     2.450
    47   1 H        0.926     0.038     2.478     2.462
    48   1 H        0.926     0.019     2.753     2.595
    49   1 H        0.926     0.087     1.907     2.160
    50   1 H        0.926     0.075     2.030     2.228
    51   1 H        0.923     0.078     2.004     2.214
    52   1 H        0.804     0.348     0.592     1.208
    53   1 H        0.926     0.086     1.923     2.168
    54   1 H        0.926     0.074     2.046     2.237

 Mol. C6AA /au·bohr⁶  :      57175.036510
 Mol. C8AA /au·bohr⁸  :    1747820.246176
 Mol. α(0) /au        :        381.185404


Wiberg/Mayer (AO) data.
largest (>0.10) Wiberg bond orders for each atom

 ---------------------------------------------------------------------------
     #   Z sym  total        # sym  WBO       # sym  WBO       # sym  WBO
 ---------------------------------------------------------------------------
     1   6 C    3.991 --     2 C    1.439     6 C    1.417    37 H    0.967
                             4 C    0.110
     2   6 C    3.992 --     3 C    1.443     1 C    1.439    38 H    0.970
                             5 C    0.112
     3   6 C    3.992 --     2 C    1.443     4 C    1.434    39 H    0.971
                             6 C    0.110
     4   6 C    3.991 --     5 C    1.449     3 C    1.434    40 H    0.970
                             1 C    0.110
     5   6 C    3.991 --     4 C    1.449     6 C    1.407    41 H    0.966
                             2 C    0.112
     6   6 C    3.984 --     1 C    1.417     5 C    1.407     7 C    0.986
                             3 C    0.110
     7   6 C    3.957 --     6 C    0.986    28 N    0.962     8 C    0.955
                            42 H    0.938
     8   6 C    3.957 --     9 C    0.987     7 C    0.955    15 N    0.953
                            43 H    0.949
     9   6 C    3.984 --    10 C    1.414    14 C    1.412     8 C    0.987
                            12 C    0.109
    10   6 C    3.990 --    11 C    1.444     9 C    1.414    44 H    0.968
                            13 C    0.111
    11   6 C    3.992 --    10 C    1.444    12 C    1.440    45 H    0.970
                            14 C    0.112
    12   6 C    3.990 --    11 C    1.440    13 C    1.438    46 H    0.971
                             9 C    0.109
    13   6 C    3.992 --    14 C    1.446    12 C    1.438    47 H    0.971
                            10 C    0.111
    14   6 C    3.992 --    13 C    1.446     9 C    1.412    48 H    0.969
                            11 C    0.112
    15   7 N    3.469 --    16 C    1.204    24 C    0.989     8 C    0.953
                            23 O    0.187
    16   6 C    3.956 --    23 O    1.652    15 N    1.204    17 C    1.020
    17   6 C    3.943 --    18 C    1.554    22 S    1.144    16 C    1.020
                            21 C    0.109
    18   6 C    3.983 --    17 C    1.554    19 C    1.272    49 H    0.958
    19   6 C    3.938 --    21 C    1.560    18 C    1.272    20 Br   0.992
    20  35 Br   1.134 --    19 C    0.992
    21   6 C    3.947 --    19 C    1.560    22 S    1.204    50 H    0.966
                            17 C    0.109
    22  16 S    2.672 --    21 C    1.204    17 C    1.144
    23   8 O    2.014 --    16 C    1.652    15 N    0.187
    24   6 C    3.973 --    15 N    0.989    28 N    0.989    51 H    0.926
                            25 C    0.904
    25   6 C    3.919 --    27 O    1.767    26 O    1.172    24 C    0.904
    26   8 O    2.235 --    25 C    1.172    52 H    0.852    27 O    0.184
    27   8 O    2.065 --    25 C    1.767    26 O    0.184
    28   7 N    3.455 --    29 C    1.173    24 C    0.989     7 C    0.962
                            36 O    0.180
    29   6 C    3.951 --    36 O    1.677    28 N    1.173    30 C    1.022
    30   6 C    3.949 --    31 C    1.543    35 S    1.161    29 C    1.022
                            34 C    0.102
    31   6 C    3.981 --    30 C    1.543    32 C    1.273    53 H    0.949
    32   6 C    3.936 --    34 C    1.554    31 C    1.273    33 Br   0.988
    33  35 Br   1.126 --    32 C    0.988
    34   6 C    3.950 --    32 C    1.554    35 S    1.230    54 H    0.967
                            30 C    0.102
    35  16 S    2.695 --    34 C    1.230    30 C    1.161
    36   8 O    2.032 --    29 C    1.677    28 N    0.180
    37   1 H    0.999 --     1 C    0.967
    38   1 H    0.998 --     2 C    0.970
    39   1 H    0.998 --     3 C    0.971
    40   1 H    0.998 --     4 C    0.970
    41   1 H    0.999 --     5 C    0.966
    42   1 H    0.991 --     7 C    0.938
    43   1 H    0.993 --     8 C    0.949
    44   1 H    0.998 --    10 C    0.968
    45   1 H    0.998 --    11 C    0.970
    46   1 H    0.998 --    12 C    0.971
    47   1 H    0.998 --    13 C    0.971
    48   1 H    1.000 --    14 C    0.969
    49   1 H    0.992 --    18 C    0.958
    50   1 H    0.994 --    21 C    0.966
    51   1 H    0.994 --    24 C    0.926
    52   1 H    0.878 --    26 O    0.852
    53   1 H    0.993 --    31 C    0.949
    54   1 H    0.994 --    34 C    0.967
 ---------------------------------------------------------------------------

Topologies differ in total number of bonds
Writing topology from bond orders to xtbtopo.mol

molecular dipole:
                 x           y           z       tot (Debye)
 q only:        0.249      -0.493       0.598
   full:        0.397      -0.488       0.774       2.534
molecular quadrupole (traceless):
                xx          xy          yy          xz          yz          zz
 q only:      -25.098       8.373       0.141       3.825      10.736      24.957
  q+dip:      -30.124      17.057      -4.783       3.889      18.058      34.907
   full:      -27.153      13.183      -4.476       6.386      17.506      31.629

           -------------------------------------------------
          |                Geometry Summary                 |
           -------------------------------------------------

      molecular mass/u    :      646.3697234
   center of mass at/Å    :       -0.2052667       1.1018807      -0.9068339
  moments of inertia/u·Å² :        0.7076027E+04   0.8119681E+04   0.1099900E+05
rotational constants/cm⁻¹ :        0.2382358E-02   0.2076145E-02   0.1532652E-02

 * 53 selected distances

     #   Z          #   Z                                           value/Å
     1   6 C        2   6 C                                       1.3846526
     2   6 C        3   6 C                                       1.3834990
     3   6 C        4   6 C                                       1.3847480
     4   6 C        5   6 C                                       1.3829120
     1   6 C        6   6 C                                       1.3884496
     5   6 C        6   6 C                                       1.3899295
     7   6 C        8   6 C                                       1.5444700
     9   6 C       10   6 C                                       1.3872417
    10   6 C       11   6 C                                       1.3833058
    11   6 C       12   6 C                                       1.3841713
    12   6 C       13   6 C                                       1.3840351
     9   6 C       14   6 C                                       1.3891703
    13   6 C       14   6 C                                       1.3828256
     8   6 C       15   7 N                                       1.4604892
    15   7 N       16   6 C                                       1.3577214
    17   6 C       18   6 C                                       1.3688872
    18   6 C       19   6 C                                       1.4080996
    19   6 C       20  35 Br                                      1.8866363
    19   6 C       21   6 C                                       1.3612755
    17   6 C       22  16 S                                       1.7404211
    21   6 C       22  16 S                                       1.7121957
    16   6 C       23   8 O                                       1.2164139
    15   7 N       24   6 C                                       1.4400036
    25   6 C       26   8 O                                       1.3237952
    25   6 C       27   8 O                                       1.1990399
     7   6 C       28   7 N                                       1.4558130
    24   6 C       28   7 N                                       1.4396456
    28   7 N       29   6 C                                       1.3684313
    30   6 C       31   6 C                                       1.3677118
    31   6 C       32   6 C                                       1.4095434
    32   6 C       33  35 Br                                      1.8886124 (max)
    32   6 C       34   6 C                                       1.3625708
    30   6 C       35  16 S                                       1.7354420
    34   6 C       35  16 S                                       1.7111297
    29   6 C       36   8 O                                       1.2136449
     1   6 C       37   1 H                                       1.0799055
     2   6 C       38   1 H                                       1.0798314
     3   6 C       39   1 H                                       1.0795524
     4   6 C       40   1 H                                       1.0796659
     5   6 C       41   1 H                                       1.0797987
     7   6 C       42   1 H                                       1.0970744
     8   6 C       43   1 H                                       1.0938275
    10   6 C       44   1 H                                       1.0798880
    11   6 C       45   1 H                                       1.0795777
    12   6 C       46   1 H                                       1.0795679
    13   6 C       47   1 H                                       1.0798493
    14   6 C       48   1 H                                       1.0807542
    18   6 C       49   1 H                                       1.0745060
    21   6 C       50   1 H                                       1.0717680
    24   6 C       51   1 H                                       1.0981831
    26   8 O       52   1 H                                       0.9715817 (min)
    31   6 C       53   1 H                                       1.0751861
    34   6 C       54   1 H                                       1.0716264

 * 7 distinct bonds (by element types)

   Z      Z             #   av. dist./Å        max./Å        min./Å
   1 H    6 C          17     1.0812096     1.0981831     1.0716264
   6 C    6 C          19     1.3919736     1.5444700     1.3612755
   6 C    7 N           6     1.4203507     1.4604892     1.3577214
   1 H    8 O           1     0.9715817     0.9715817     0.9715817
   6 C    8 O           4     1.2382235     1.3237952     1.1990399
   6 C   16 S           4     1.7247971     1.7404211     1.7111297
   6 C   35 Br          2     1.8876244     1.8886124     1.8866363


optimized geometry written to: xtbopt.xyz


           -------------------------------------------------
          | TOTAL ENERGY             -101.645641335812 Eh   |
          | GRADIENT NORM               0.000814027675 Eh/α |
          | HOMO-LUMO GAP               2.818732655332 eV   |
           -------------------------------------------------

------------------------------------------------------------------------
 * finished run on 2022/03/16 at 23:52:58.744     
------------------------------------------------------------------------
 total:
 * wall-time:     0 d,  0 h,  0 min, 29.557 sec
 *  cpu-time:     0 d,  0 h, 11 min, 24.208 sec
 * ratio c/w:    23.149 speedup
 SCF:
 * wall-time:     0 d,  0 h,  0 min,  0.501 sec
 *  cpu-time:     0 d,  0 h,  0 min,  8.862 sec
 * ratio c/w:    17.680 speedup
 ANC optimizer:
 * wall-time:     0 d,  0 h,  0 min, 28.929 sec
 *  cpu-time:     0 d,  0 h, 11 min, 11.536 sec
 * ratio c/w:    23.214 speedup

