78
 energy: -134.512313492203 gnorm: 0.154852482641 xtb: 6.3.3 (4ae9cef)
C         0.88934400000000    0.61233800000000    2.00141500000000
C         1.75623800000000    0.81506000000000    3.07815500000000
C         2.91982000000000    0.04557000000000    3.21888500000000
C         3.80692900000000    0.24660600000000    4.28901600000000
C         4.96397100000000   -0.52458100000000    4.41056200000000
C         5.24796000000000   -1.50532600000000    3.46486400000000
C         4.37514000000000   -1.71763100000000    2.39647500000000
C         3.20629100000000   -0.95091000000000    2.26070200000000
C         2.32009800000000   -1.14992200000000    1.18816800000000
C         1.16126000000000   -0.36758500000000    1.03837900000000
C         0.25637500000000   -0.59256200000000   -0.16804500000000
C        -1.13960800000000   -1.14074300000000    0.24600800000000
C        -1.66116800000000   -2.29820300000000   -0.60226400000000
C        -1.36492400000000   -2.45153600000000   -1.96765100000000
C        -1.87371600000000   -3.52653500000000   -2.72007800000000
C        -1.57108100000000   -3.67409600000000   -4.08382100000000
C        -2.08473000000000   -4.74467600000000   -4.81771300000000
C        -2.90678300000000   -5.68119300000000   -4.19861600000000
C        -3.21822300000000   -5.54782200000000   -2.84479600000000
C        -2.70893300000000   -4.47586400000000   -2.09422100000000
C        -3.01503600000000   -4.32278300000000   -0.73582700000000
C        -2.50083900000000   -3.24979800000000   -0.00334600000000
N        -2.01346400000000    0.02950000000000    0.13762700000000
C        -3.13647000000000    0.16905100000000    0.92682300000000
C        -3.87538400000000    1.40764000000000    0.83009200000000
C        -5.07761600000000    1.55044500000000    0.16840100000000
O        -5.53312900000000    2.82612200000000    0.25927300000000
C        -4.63726900000000    3.51305800000000    1.01824700000000
C        -3.59978300000000    2.67836800000000    1.41895100000000
C        -2.59747900000000    3.21544600000000    2.24888100000000
C        -2.67113700000000    4.56792600000000    2.61254700000000
C        -3.72235500000000    5.37495000000000    2.17229600000000
C        -4.73835400000000    4.85901800000000    1.36227800000000
O        -3.49491600000000   -0.70493200000000    1.71102300000000
C        -1.45330500000000    1.00800000000000   -0.78287700000000
C        -2.18552400000000    0.92557100000000   -2.15785000000000
O        -1.38263100000000    0.67285100000000   -3.21891300000000
O        -3.38731700000000    1.04587000000000   -2.34779000000000
N        -0.04447800000000    0.66172500000000   -0.87468600000000
C         0.84137800000000    1.56334500000000   -1.42595800000000
C         2.20715400000000    1.12270500000000   -1.60095600000000
C         2.62365100000000    0.08539000000000   -2.41056600000000
O         3.96627100000000   -0.09164200000000   -2.32035600000000
C         4.43352800000000    0.86029300000000   -1.46617200000000
C         3.38981500000000    1.65684300000000   -1.01008900000000
C         3.68618500000000    2.70024400000000   -0.11374400000000
C         5.01724100000000    2.89034300000000    0.28474800000000
C         6.03655000000000    2.06403400000000   -0.19464000000000
C         5.76433300000000    1.02400000000000   -1.08945400000000
O         0.49105100000000    2.69824800000000   -1.73954600000000
H         0.00791100000000    1.24088900000000    1.92021300000000
H         1.51996800000000    1.58742600000000    3.80732600000000
H         3.60296000000000    1.00977600000000    5.03707300000000
H         5.64286700000000   -0.35810800000000    5.24297200000000
H         6.14947400000000   -2.10533000000000    3.55696900000000
H         4.61769300000000   -2.48611300000000    1.66561600000000
H         2.55470500000000   -1.91392000000000    0.44739400000000
H         0.77248300000000   -1.26527100000000   -0.85989500000000
H        -1.11833700000000   -1.48151600000000    1.29007000000000
H        -0.73180700000000   -1.72893000000000   -2.47760000000000
H        -0.93122500000000   -2.95397300000000   -4.58874800000000
H        -1.84262900000000   -4.84628600000000   -5.87231000000000
H        -3.30867600000000   -6.51496200000000   -4.76809200000000
H        -3.86643100000000   -6.28586800000000   -2.37830200000000
H        -3.66476900000000   -5.03537500000000   -0.23255600000000
H        -2.77497200000000   -3.15875700000000    1.04809700000000
H        -5.69529100000000    0.87389400000000   -0.40673600000000
H        -1.78423800000000    2.59941200000000    2.61671700000000
H        -1.90029000000000    4.99372600000000    3.25170000000000
H        -3.75744200000000    6.42114200000000    2.46929700000000
H        -5.56723000000000    5.46649500000000    1.02001600000000
H        -1.55519000000000    2.03025800000000   -0.40830000000000
H        -2.00315200000000    0.69831600000000   -3.97936200000000
H         2.11006000000000   -0.59673900000000   -3.07360500000000
H         2.89985400000000    3.34237100000000    0.27229200000000
H         5.25639500000000    3.69042900000000    0.98210000000000
H         7.06020400000000    2.23014400000000    0.13437800000000
H         6.54217600000000    0.37465200000000   -1.47056400000000
78
 energy: -134.529898194395 gnorm: 0.062522359434 xtb: 6.3.3 (4ae9cef)
C         0.89874979315108    0.61306838781501    1.99382700285198
C         1.74697120777757    0.81554455026700    3.06161288665293
C         2.91618798217045    0.04984740008003    3.21525948830875
C         3.80837540865437    0.24558289025113    4.28648182653121
C         4.94840981964164   -0.51876744016707    4.40196038914619
C         5.23332953614043   -1.50238774777739    3.45239945153866
C         4.37626026201806   -1.71650891153891    2.39518877679824
C         3.20376025877916   -0.95085714430657    2.25078465409208
C         2.31583735760448   -1.13784504367547    1.17401028714466
C         1.17511830649832   -0.36587473209508    1.02732130196743
C         0.26040703661651   -0.59046171304852   -0.16892863384761
C        -1.13298893233903   -1.14476525952475    0.22994850860605
C        -1.65526303692818   -2.29955761584463   -0.61630507290853
C        -1.36398740184197   -2.44135624377973   -1.96187369045480
C        -1.87140860015675   -3.51652419710540   -2.71952443821677
C        -1.57157242254434   -3.67292541022918   -4.08604533955234
C        -2.08075027988407   -4.73293382893432   -4.80436401529368
C        -2.90630970292931   -5.67298454596744   -4.18395384484857
C        -3.21705414156004   -5.54597360992901   -2.84824154472863
C        -2.71069447345325   -4.47284119967273   -2.09086664477197
C        -3.01116017279313   -4.30793756866972   -0.72791577953326
C        -2.49617013380453   -3.24976743262506   -0.01122779230390
N        -2.00462648611728    0.02649468982250    0.14314730206578
C        -3.11547964583251    0.16058997528483    0.93251921135820
C        -3.86939670166721    1.41547062244877    0.81838359663337
C        -5.06055167157803    1.56536142372618    0.16581916040155
O        -5.53699459109505    2.82806807583199    0.26339312650823
C        -4.64712052724989    3.52261831494165    1.01495161561294
C        -3.58906161731707    2.69103592240807    1.40912638953344
C        -2.59318368838201    3.22014513308544    2.23701106899446
C        -2.67751759597695    4.55317785266663    2.60277249790546
C        -3.72604978376789    5.36418407918798    2.16723190196109
C        -4.73867985963688    4.86072452537328    1.36760877902333
O        -3.46319922930291   -0.72253022380097    1.69525754120982
C        -1.46031986969440    0.99886677209063   -0.77893538754357
C        -2.18245023688106    0.91790117544310   -2.14431781860065
O        -1.38203264727983    0.67271245309665   -3.19418077862445
O        -3.36847923056814    1.04842971902853   -2.30230575323994
N        -0.05555846626212    0.65809998705670   -0.87056244581191
C         0.82346299443207    1.56153897108033   -1.40726253892457
C         2.20554631006331    1.10257720742084   -1.58031137305781
C         2.62854169867338    0.07602127317693   -2.37836038882252
O         3.97235351082607   -0.08724319824256   -2.32758304248008
C         4.44410733906281    0.85286364290435   -1.46825690025019
C         3.39280961692291    1.64630992582793   -0.98941047759607
C         3.68361301668988    2.68688832928207   -0.10256406245264
C         5.00139217690525    2.87673580397140    0.27846971243536
C         6.02510924743862    2.05731208327247   -0.19927433554566
C         5.76622883578931    1.02759065142290   -1.08845816378317
O         0.46199621040248    2.68005910190957   -1.72954666067986
H         0.01302976477202    1.22842103151686    1.90788439649582
H         1.51227855663187    1.57978204455766    3.79140819587015
H         3.59998237499717    1.00495810240085    5.02893790633148
H         5.62581788375165   -0.35650962846711    5.23075469707308
H         6.13136947828463   -2.09920699834569    3.54816655905310
H         4.61220042826164   -2.48142847324945    1.66709191519508
H         2.54329313983510   -1.90465584917776    0.44360187763468
H         0.76542999711549   -1.27642926948717   -0.85505771134744
H        -1.12360815963227   -1.47569339384588    1.27621894557376
H        -0.73383475521522   -1.72077005722822   -2.46729800130594
H        -0.93349368978098   -2.95406739030335   -4.58376892870755
H        -1.84110565168906   -4.83729618486875   -5.85485720806410
H        -3.30417046075771   -6.50274853726037   -4.75412189667543
H        -3.85996166394643   -6.27884167298006   -2.37855411068629
H        -3.65558673568590   -5.02101728893031   -0.23069147207602
H        -2.76318210406078   -3.14700249219966    1.03317164768956
H        -5.66445443605734    0.88111932132817   -0.40087710859567
H        -1.78589996005749    2.60288014358089    2.60567212402779
H        -1.91172465908957    4.97645131500992    3.23988850875902
H        -3.75566986560648    6.40419236726240    2.46559713736222
H        -5.56249949129696    5.46853164541759    1.02943571016045
H        -1.57764176954378    2.02909259107913   -0.41441067843997
H        -1.97042977782463    0.69189926096200   -3.97445531830785
H         2.10909396207971   -0.58223908473208   -3.05148276568738
H         2.90104634124086    3.33288776972726    0.26878191464660
H         5.24227208516630    3.67734798258705    0.96566552906167
H         7.04257654989598    2.22947981444340    0.12758012604516
H         6.54436783879788    0.38508705796234   -1.46819054449408
78
 energy: -134.534696053732 gnorm: 0.014728109158 xtb: 6.3.3 (4ae9cef)
C         0.89851831661134    0.61457039839174    1.97658903026951
C         1.73513286903832    0.81885121479428    3.03738108675216
C         2.90961636786406    0.05606373950944    3.20012109447962
C         3.80186752646286    0.24751970893058    4.27585127508566
C         4.93131556098726   -0.51240817133664    4.39079976780716
C         5.21904292009233   -1.50001471754434    3.43780757493474
C         4.37381691325669   -1.71350259851411    2.38599431594832
C         3.19996909338630   -0.94603894528255    2.23395205351801
C         2.31132668788320   -1.13097967317488    1.15497200551765
C         1.18071835690418   -0.36943803346028    1.01029112276509
C         0.26127222879523   -0.59383505109961   -0.17643133322388
C        -1.12593748394194   -1.14631873150612    0.22956471163223
C        -1.64739665742190   -2.29094908504297   -0.62368869398668
C        -1.36034691932311   -2.42529733901592   -1.95718870696883
C        -1.86855211628232   -3.50197697761105   -2.71674370308240
C        -1.57044729214036   -3.66447335078356   -4.08600148841441
C        -2.07576115233310   -4.71821024207051   -4.79440804734505
C        -2.90412010569454   -5.66201369853466   -4.17063265962134
C        -3.21318477448763   -5.53646601580402   -2.84596628642705
C        -2.70814259723876   -4.46099920507049   -2.08581135797285
C        -3.00403615910496   -4.28917873154856   -0.71848555420142
C        -2.48988576805952   -3.24083308820130   -0.01099813267711
N        -1.99618769375580    0.02545682379344    0.15364449527387
C        -3.10152561909371    0.14927874583995    0.93823386102917
C        -3.86332320911907    1.41665247836668    0.80712130973258
C        -5.04805685329467    1.56973789560442    0.16313873576883
O        -5.53339038186838    2.82453112819138    0.25665813651253
C        -4.65150036661156    3.52473516909767    1.00588145298102
C        -3.57938969892545    2.69647286902637    1.39835277756275
C        -2.58556811467907    3.21949050766517    2.22373474534806
C        -2.67447544471492    4.54223956729377    2.59342756459824
C        -3.72483730023816    5.35561361762760    2.16485617136466
C        -4.73555910735611    4.85903044854756    1.36956231890523
O        -3.43394146759760   -0.73524171163701    1.69767758538585
C        -1.46308667255836    0.98902032969751   -0.77177688502371
C        -2.18365630885887    0.90975069034185   -2.12953995555426
O        -1.37776956302724    0.66477758864829   -3.16276074226277
O        -3.36634055943050    1.04834776882214   -2.25841281227696
N        -0.06108494445587    0.65319645720375   -0.86550863531043
C         0.81096686595340    1.55895622423870   -1.38955633787300
C         2.20219177775331    1.08070637087441   -1.55832785469131
C         2.62805736791754    0.06741484258681   -2.35588917152796
O         3.96867243704509   -0.09834735037502   -2.31898950110784
C         4.44702089320430    0.83901939656561   -1.46503657607859
C         3.39242898782970    1.63027470950600   -0.96787605073276
C         3.67620857926113    2.67125088042045   -0.08813682288268
C         4.98750632794862    2.86743738071815    0.28037549501126
C         6.01615679771551    2.05441669400030   -0.19928373760502
C         5.76534248983964    1.02843720501220   -1.08496673288362
O         0.44467185388539    2.66903648736719   -1.71520329992632
H         0.00871063085223    1.21910754499929    1.87904137370245
H         1.50281285444634    1.57551246093367    3.77239237221222
H         3.58308227274563    1.00602895420229    5.01294203758310
H         5.60870706869589   -0.35540350146342    5.21760305534176
H         6.11563145822675   -2.09371162735772    3.54033650950144
H         4.60007425043497   -2.47718137929126    1.65700150563387
H         2.54174730086704   -1.89817943784193    0.42978200817865
H         0.75708405108355   -1.28832948492687   -0.86147236013255
H        -1.12525302158565   -1.47662352184999    1.27568065159082
H        -0.73259149208987   -1.70665777710528   -2.46399486119403
H        -0.93150350392587   -2.94305155881393   -4.57438791767902
H        -1.83815680319926   -4.82897767646259   -5.84236057240639
H        -3.29735233520517   -6.48939604735941   -4.74323305750381
H        -3.85177070613614   -6.26392773242919   -2.36666427390184
H        -3.64783210428882   -5.00553146046109   -0.23012743211098
H        -2.74536672699210   -3.12577704549857    1.03079445000718
H        -5.63460148341469    0.87638876211350   -0.40477420619701
H        -1.77769007319946    2.59997451651004    2.58237291234776
H        -1.91452222686239    4.96486855979454    3.23308493366569
H        -3.75110757270980    6.39068963816594    2.46895263094800
H        -5.56077190486141    5.46764867283689    1.04026205831259
H        -1.59566999240550    2.02484290717848   -0.41595393351088
H        -1.92306314218170    0.67939329543269   -3.97183491306362
H         2.09662541844750   -0.57967865241607   -3.02650449467592
H         2.89019908674963    3.31178591123588    0.27764730752461
H         5.23158024564776    3.67011856396062    0.95949921946757
H         7.02944002678338    2.23485640366184    0.12552214040557
H         6.54724353605538    0.39544809118194   -1.46997375257333
78
 energy: -134.535840395474 gnorm: 0.011740403078 xtb: 6.3.3 (4ae9cef)
C         0.89469987193253    0.61705888519125    1.95561888392473
C         1.72750449753299    0.82354459576472    3.01662779663586
C         2.90340537210657    0.06126754670001    3.18167203866446
C         3.79136979249464    0.25297046143040    4.26125775042636
C         4.91961724503652   -0.50692667651954    4.38037547438832
C         5.21157948751276   -1.49625425851744    3.42759493810474
C         4.37128468434294   -1.70919129403450    2.37312033934077
C         3.19858227190126   -0.94012300762054    2.21785399642676
C         2.31387026630463   -1.12872008672054    1.13678198399900
C         1.18336061639832   -0.37044842052243    0.99284494398107
C         0.25994350252336   -0.59679608518486   -0.18469093157011
C        -1.12097591194582   -1.14566075769280    0.23520093862120
C        -1.64384223977139   -2.28245228304646   -0.62136122234264
C        -1.35952969420363   -2.41141751074554   -1.95484473114623
C        -1.86871847531298   -3.48849336132528   -2.71323311758604
C        -1.56908187714228   -3.65120369290460   -4.08281270592488
C        -2.07183975039422   -4.70602860467809   -4.78954000411737
C        -2.90041414424807   -5.65114632641682   -4.16375551650731
C        -3.20980627033717   -5.52432039659077   -2.84000398917414
C        -2.70612905854793   -4.44696740722021   -2.08124136090178
C        -3.00185862833002   -4.27705153356594   -0.71253501161566
C        -2.48574666464457   -3.23198641820238   -0.00478865979473
N        -1.99057847405474    0.02637577705425    0.16589543452884
C        -3.09482316636261    0.14346606792543    0.94935590253266
C        -3.85884578485555    1.41180155745810    0.80595239806696
C        -5.04062833812455    1.56515434091713    0.15802433225074
O        -5.52752449049837    2.81807672844245    0.24906546012418
C        -4.64838331702435    3.52037909570064    0.99792512613905
C        -3.57322551369511    2.69411525114738    1.39148735107181
C        -2.57532819590732    3.21555538158311    2.21149384210122
C        -2.66586540924637    4.53667924279072    2.58726074372666
C        -3.72065201485996    5.34848015387395    2.16529143434929
C        -4.73155867153611    4.85342762071824    1.36906444539444
O        -3.42176549177207   -0.74078233934950    1.71150775593014
C        -1.46479437916579    0.98576162010082   -0.76430037312111
C        -2.18645699159120    0.90056672024384   -2.12152079018619
O        -1.37295138171966    0.65571358169220   -3.14411683739906
O        -3.37007020873863    1.04271341752234   -2.24263261235493
N        -0.06423560167147    0.65156579679035   -0.86333418045624
C         0.80665253346492    1.55759576132510   -1.38196420100481
C         2.19781883755631    1.06767468880489   -1.54335560149798
C         2.62299982435280    0.05443471620299   -2.33991466987988
O         3.96268230444243   -0.11097120745861   -2.30691194400001
C         4.44274335221210    0.82472592807234   -1.45335425651955
C         3.38808160358025    1.61419753268337   -0.95042451806202
C         3.66617829911188    2.65536494943185   -0.07053320765307
C         4.97817360462311    2.86097572832732    0.29124983908294
C         6.00952935062418    2.05431950640821   -0.19467563038718
C         5.76155725988128    1.02568333113778   -1.07841027921520
O         0.44360935307651    2.66834113452749   -1.70770000739011
H         0.00144259171475    1.21482419767817    1.84862284119046
H         1.49565265798887    1.57905814506309    3.75323940105616
H         3.56382197486024    1.01186252030029    4.99581731816920
H         5.59479871993615   -0.35374800228444    5.20929506781348
H         6.10710361317565   -2.08986882131390    3.53731759697413
H         4.59316278987712   -2.47295409651097    1.64235363646052
H         2.54829244785818   -1.89666580656621    0.41295328570652
H         0.74831515651742   -1.29393350500027   -0.87265895478823
H        -1.11576462109245   -1.47939696632893    1.27952783084652
H        -0.73276855369814   -1.69282603386541   -2.46378313946376
H        -0.92899257763154   -2.92677092223523   -4.56620703298041
H        -1.83472569119875   -4.82109532345491   -5.83693682671572
H        -3.29037403885182   -6.47864560132790   -4.73788716120883
H        -3.84602203362618   -6.24981330041447   -2.35397476290248
H        -3.64564265036562   -4.99672021760788   -0.22859582772795
H        -2.73364706325335   -3.11016740279393    1.03779724629266
H        -5.61706878925541    0.86652825777889   -0.41438914778528
H        -1.76425264278642    2.59450971946517    2.56046282967614
H        -1.90649972676504    4.96011906842255    3.22686768558883
H        -3.74753175216392    6.38149821558924    2.47534823530226
H        -5.55962078915584    5.46319109733732    1.04678650413186
H        -1.60141293855012    2.02289022773829   -0.41206852312054
H        -1.89108626638436    0.66724386776774   -3.97043259043801
H         2.08409155641966   -0.59190849548636   -3.00550045619120
H         2.87471198288704    3.28872358380089    0.29620249872564
H         5.22338200414749    3.66687410553454    0.96595324448165
H         7.02277604644730    2.24424552082225    0.12403068502283
H         6.54824680763890    0.40190251624076   -1.47070727412072
78
 energy: -134.536605476347 gnorm: 0.007198808156 xtb: 6.3.3 (4ae9cef)
C         0.89161648390324    0.62035575561471    1.92720322256178
C         1.72183500955253    0.83224572663307    2.98887732220368
C         2.89785667612379    0.06976936257568    3.15540871770059
C         3.77826733027435    0.26243063883023    4.24030693279426
C         4.90590168438569   -0.49888797361881    4.36688083235033
C         5.20465322061090   -1.48906661238554    3.41597611758749
C         4.37093603918559   -1.70105909242044    2.35516975165187
C         3.20009297025560   -0.93075781856820    2.19588424940442
C         2.32080066231129   -1.12627372047153    1.11276870604786
C         1.18797533078024   -0.37109059393298    0.97044062836788
C         0.25848193719264   -0.59854282378914   -0.19598302168971
C        -1.11498448112056   -1.14398646416916    0.24181646797230
C        -1.64386337418544   -2.27290235597592   -0.61520642107767
C        -1.36205233201280   -2.39499268797837   -1.95072830434025
C        -1.87179081718254   -3.47133204606810   -2.70810376009011
C        -1.56919107962293   -3.63166233326645   -4.07733328788515
C        -2.06805845982175   -4.68921513267682   -4.78403649511797
C        -2.89527556935836   -5.63589564873874   -4.15706669524349
C        -3.20661346314279   -5.50831661533665   -2.83289194461022
C        -2.70559973754982   -4.42923711239070   -2.07568431667916
C        -3.00253173577786   -4.26504988425056   -0.70621053247612
C        -2.48446036964538   -3.22221299326737    0.00387577072770
N        -1.98435703824395    0.02821146248265    0.18142923260102
C        -3.08915852616453    0.13763063866242    0.96392885564489
C        -3.85437506052336    1.40300878457988    0.80823133049153
C        -5.03444035445306    1.55552175426967    0.15481774466441
O        -5.51788843411032    2.80937158893255    0.23875295083365
C        -4.64123857315643    3.51252341345754    0.98911177736605
C        -3.56696480364774    2.68729235459841    1.38614082284243
C        -2.56185700321940    3.20777698482964    2.19793582775612
C        -2.65116227634278    4.52910516185013    2.57775687879990
C        -3.71242219743587    5.33758397732012    2.16506267467497
C        -4.72466058316711    4.84399424518689    1.36781620639937
O        -3.40883957154034   -0.74312913725293    1.73389114213267
C        -1.46875077508750    0.98330486252217   -0.75755181035746
C        -2.19220879815396    0.89063405629905   -2.11704710456418
O        -1.36838969520748    0.64360436059732   -3.12688672308428
O        -3.37694271774849    1.02690811613030   -2.23666336154467
N        -0.06902353097823    0.65182980417338   -0.86337840925970
C         0.80442289591710    1.55714703618694   -1.37459225597504
C         2.19225484380895    1.05440541340755   -1.52552443714290
C         2.61596447646995    0.03872657773537   -2.32160495220734
O         3.95400720078985   -0.13104373780658   -2.28355175942934
C         4.43533738770944    0.80587880076766   -1.43261920854176
C         3.38168589177353    1.59492292657352   -0.92888537260358
C         3.65255217827597    2.63518412112314   -0.04586708265224
C         4.96552988938433    2.85141984313147    0.31075814780431
C         5.99970787497090    2.05413612384316   -0.18534704668696
C         5.75502424004513    1.02049707431405   -1.06593988135842
O         0.44999363650314    2.67128478454903   -1.69916087101175
H        -0.00482766348286    1.21110010393598    1.80815605216429
H         1.48929187723279    1.58864091438484    3.72495090676858
H         3.54142816521503    1.02222642351182    4.97176151116432
H         5.57691659545174   -0.34877388896142    5.19970328942055
H         6.09914412390348   -2.08267245481407    3.53479787649050
H         4.59105145152332   -2.46425531496743    1.62245391954771
H         2.55929002140144   -1.89391468583879    0.38892780164665
H         0.73663823811815   -1.29724183832897   -0.88945584463032
H        -1.09788361887488   -1.48140420973437    1.28431347192979
H        -0.73726141440785   -1.67493716146299   -2.46094786057714
H        -0.92882112918081   -2.90332547468129   -4.55603831022563
H        -1.83012318727854   -4.80812676350175   -5.83093538199642
H        -3.28055310174228   -6.46447314076357   -4.73279597582894
H        -3.84055221668003   -6.23285391288186   -2.34170174060639
H        -3.64641660313790   -4.98799547961396   -0.22646560913970
H        -2.72327239037735   -3.09558176179858    1.04827395524893
H        -5.60166010254168    0.85169778715409   -0.42155613133353
H        -1.74585942602559    2.58564978442728    2.53447243702193
H        -1.88888885438434    4.95407413578958    3.21337087777364
H        -3.74202820079708    6.36840942001584    2.48323206547490
H        -5.55470819337499    5.45599860190562    1.05240176123326
H        -1.60677613313225    2.02108895863996   -0.40969958357083
H        -1.85668018097538    0.64600496049624   -3.96986808282664
H         2.07008988458078   -0.60914329997419   -2.98093042773740
H         2.85357189923425    3.25646932018528    0.32670371253667
H         5.20979577578588    3.65841356665667    0.98473361053665
H         7.01393610968594    2.25642580873082    0.12385243649022
H         6.54736377263807    0.40645063467681   -1.46408699272821
78
 energy: -134.536869041851 gnorm: 0.004759276259 xtb: 6.3.3 (4ae9cef)
C         0.89337027238045    0.62419441627583    1.90842297975196
C         1.72269763064606    0.84089027756798    2.96993420443386
C         2.89782671227417    0.07787374557679    3.13766628980135
C         3.77320771351835    0.27131522391385    4.22583268602894
C         4.89990924868916   -0.49129416667363    4.35792229450936
C         5.20342020944610   -1.48109678994933    3.40875361361531
C         4.37456027782140   -1.69265302212143    2.34331695604021
C         3.20421955258901   -0.92289853285903    2.18085740961624
C         2.32728517358765   -1.12308207553851    1.09705768567710
C         1.19260680208339   -0.36991612302078    0.95606549880156
C         0.25778591500773   -0.59896513006852   -0.20394159134667
C        -1.11176998241156   -1.14311361923380    0.24531304456417
C        -1.64655094180558   -2.26936143474646   -0.60962368305558
C        -1.36677532211061   -2.38668705934004   -1.94654202740943
C        -1.87666191426151   -3.46116531291281   -2.70487774755625
C        -1.57221395203318   -3.61837733827409   -4.07373944044791
C        -2.06762033527849   -4.67748323398336   -4.78133781307303
C        -2.89291387891354   -5.62580860821118   -4.15500994165443
C        -3.20672995050544   -5.49932122498710   -2.83075923720431
C        -2.70834742275348   -4.41979242481146   -2.07298739391484
C        -3.00602712870624   -4.25989311457464   -0.70332416833393
C        -2.48661933115621   -3.21856321638369    0.00906914579342
N        -1.98106775481031    0.02904971295326    0.18996788768120
C        -3.08665140324670    0.13493491383516    0.97241774625331
C        -3.85272561560545    1.39629881608478    0.81116723872003
C        -5.03222811063031    1.54826718955410    0.15524490177378
O        -5.51306412614402    2.80343751248989    0.23630652098058
C        -4.63567460724890    3.50668425282980    0.98609441532794
C        -3.56323783577616    2.68115576985964    1.38439221536877
C        -2.55265184607039    3.20144562806616    2.18994209053145
C        -2.63934880728986    4.52336114134852    2.56952869838468
C        -3.70419994899273    5.32999266675461    2.16278155959854
C        -4.71867270350080    4.83743105078171    1.36697356898958
O        -3.40147259451812   -0.74252302285487    1.74826419552278
C        -1.47320575243101    0.98107862638145   -0.75704323445667
C        -2.19852444212834    0.87741238326577   -2.11763816420260
O        -1.36756023139347    0.63696569375392   -3.12237353284290
O        -3.38339610384808    1.00834673592279   -2.24113676222572
N        -0.07340085855522    0.65232741245289   -0.86689689122453
C         0.80407318792151    1.55705522416334   -1.37202758928313
C         2.18891256805373    1.04812850127819   -1.51560868068758
C         2.61242726953830    0.02990319791099   -2.31000589434047
O         3.95000575598663   -0.14255082199842   -2.26655799966280
C         4.43052754537677    0.79499256260535   -1.41563247613030
C         3.37694933722300    1.58414282945721   -0.91448897470300
C         3.64331038357123    2.62159347875513   -0.02643541261036
C         4.95591988846364    2.84236624020983    0.32952962690282
C         5.99190519508536    2.05166094099797   -0.17316114149289
C         5.75002746446357    1.01564154199249   -1.05235933782928
O         0.45696727843536    2.67426919427327   -1.69456917224550
H        -0.00447041720878    1.21127000549142    1.78387397889633