      -----------------------------------------------------------      
     |                   =====================                   |     
     |                           x T B                           |     
     |                   =====================                   |     
     |                         S. Grimme                         |     
     |          Mulliken Center for Theoretical Chemistry        |     
     |                    University of Bonn                     |     
      -----------------------------------------------------------      

   * xtb version 6.3.3 (4ae9cef) compiled by 'conda@95abc7406d43' on 2020-10-14

   xtb is free software: you can redistribute it and/or modify it under
   the terms of the GNU Lesser General Public License as published by
   the Free Software Foundation, either version 3 of the License, or
   (at your option) any later version.
   
   xtb is distributed in the hope that it will be useful,
   but WITHOUT ANY WARRANTY; without even the implied warranty of
   MERCHANTABILITY or FITNESS FOR A PARTICULAR PURPOSE.  See the
   GNU Lesser General Public License for more details.
   
   Cite this work as:
   * C. Bannwarth, E. Caldeweyher, S. Ehlert, A. Hansen, P. Pracht,
     J. Seibert, S. Spicher, S. Grimme, WIREs Comput. Mol. Sci., 2020,
     e01493. DOI: 10.1002/wcms.1493
   
   for GFN2-xTB:
   * S. Grimme, C. Bannwarth, P. Shushkov, J. Chem. Theory Comput., 2017,
     13, 1989-2009. DOI: 10.1021/acs.jctc.7b00118
   for GFN1-xTB:
   * C. Bannwarth, S. Ehlert and S. Grimme., J. Chem. Theory Comput., 2019,
     15, 1652-1671. DOI: 10.1021/acs.jctc.8b01176
   for GFN0-xTB:
   * P. Pracht, E. Caldeweyher, S. Ehlert, S. Grimme, ChemRxiv, 2019, preprint.
     DOI: 10.26434/chemrxiv.8326202.v1
   for GFN-FF:
   * S. Spicher and S. Grimme, Angew. Chem. Int. Ed., 2020, 59, 15665-15673.
     DOI: 10.1002/anie.202004239
   
   for DFT-D4:
   * E. Caldeweyher, C. Bannwarth and S. Grimme, J. Chem. Phys., 2017,
     147, 034112. DOI: 10.1063/1.4993215
   * E. Caldeweyher, S. Ehlert, A. Hansen, H. Neugebauer, S. Spicher,
     C. Bannwarth and S. Grimme, J. Chem. Phys., 2019, 150, 154122.
     DOI: 10.1063/1.5090222
   * E. Caldeweyher, J.-M. Mewes, S. Ehlert and S. Grimme, Phys. Chem. Chem. Phys.
     2020, 22, 8499-8512. DOI: 10.1039/D0CP00502A
   
   for sTDA-xTB:
   * S. Grimme and C. Bannwarth, J. Chem. Phys., 2016, 145, 054103.
     DOI: 10.1063/1.4959605
   
   in the mass-spec context:
   * V. Asgeirsson, C. Bauer and S. Grimme, Chem. Sci., 2017, 8, 4879.
     DOI: 10.1039/c7sc00601b
   * J. Koopman and S. Grimme, ACS Omega 2019, 4, 12, 15120-15133.
     DOI: 10.1021/acsomega.9b02011
   
   for metadynamics refer to:
   * S. Grimme, J. Chem. Theory Comput., 2019, 155, 2847-2862
     DOI: 10.1021/acs.jctc.9b00143
   
   with help from (in alphabetical order)
   C. Bannwarth, F. Bohle, G. Brandenburg, E. Caldeweyher, M. Checinski,
   S. Dohm, S. Ehlert, S. Ehrlich, F. März, H. Neugebauer, J. Pisarek,
   P. Pracht, P. Shushkov, and S. Spicher.
   
 * started run on 2022/03/17 at 00:15:30.382     

           -------------------------------------------------
          |                Calculation Setup                |
           -------------------------------------------------

          program call               : xtb acid_36.xyz --opt --chrg 0 --uhf 0 --gfn 2
          coordinate file            : acid_36.xyz
          omp threads                :                    64
          number of atoms            :                    72
          number of electrons        :                   202
          charge                     :                     0
          spin                       :                   0.0
          first test random number   :      0.02018826959831

   ID    Z sym.   atoms
    1    8 O      1, 14, 15, 26
    2    6 C      2-10, 12, 13, 17-25, 27-40
    3    7 N      11, 16
    4    1 H      41-72

           -------------------------------------------------
          |                 G F N 2 - x T B                 |
           -------------------------------------------------

        Reference                      10.1021/acs.jctc.8b01176
      * Hamiltonian:
        H0-scaling (s, p, d)           1.850000    2.230000    2.230000
        zeta-weighting                 0.500000
      * Dispersion:
        s8                             2.700000
        a1                             0.520000
        a2                             5.000000
        s9                             5.000000
      * Repulsion:
        kExp                           1.500000    1.000000
        rExp                           1.000000
      * Coulomb:
        alpha                          2.000000
        third order                    shell-resolved
        anisotropic                    true
        a3                             3.000000
        a5                             4.000000
        cn-shift                       1.200000
        cn-exp                         4.000000
        max-rad                        5.000000


          ...................................................
          :                      SETUP                      :
          :.................................................:
          :  # basis functions                 192          :
          :  # atomic orbitals                 192          :
          :  # shells                          112          :
          :  # electrons                       202          :
          :  max. iterations                   250          :
          :  Hamiltonian                  GFN2-xTB          :
          :  restarted?                      false          :
          :  GBSA solvation                  false          :
          :  PC potential                    false          :
          :  electronic temp.          300.0000000     K    :
          :  accuracy                    1.0000000          :
          :  -> integral cutoff          0.2500000E+02      :
          :  -> integral neglect         0.1000000E-07      :
          :  -> SCF convergence          0.1000000E-05 Eh   :
          :  -> wf. convergence          0.1000000E-03 e    :
          :  Broyden damping             0.4000000          :
          ...................................................

 iter      E             dE          RMSdq      gap      omega  full diag
   1   -112.7413159 -0.112741E+03  0.409E+00    3.43       0.0  T
   2   -112.8971466 -0.155831E+00  0.235E+00    3.14       1.0  T
   3   -112.8979768 -0.830133E-03  0.116E+00    3.64       1.0  T
   4   -112.9152140 -0.172373E-01  0.271E-01    3.02       1.0  T
   5   -112.9184121 -0.319808E-02  0.942E-02    3.04       1.0  T
   6   -112.9187174 -0.305317E-03  0.426E-02    3.07       1.0  T
   7   -112.9187544 -0.369556E-04  0.191E-02    3.06       1.0  T
   8   -112.9187552 -0.804690E-06  0.677E-03    3.07       1.7  T
   9   -112.9187579 -0.274784E-05  0.277E-03    3.07       4.3  T
  10   -112.9187581 -0.165509E-06  0.107E-03    3.07      11.0  T
  11   -112.9187581 -0.262330E-07  0.559E-04    3.07      21.1  T
  12   -112.9187581 -0.445287E-08  0.179E-04    3.07      65.9  T

   *** convergence criteria satisfied after 12 iterations ***

         #    Occupation            Energy/Eh            Energy/eV
      -------------------------------------------------------------
         1        2.0000           -0.7626667             -20.7532
       ...           ...                  ...                  ...
        95        2.0000           -0.4019861             -10.9386
        96        2.0000           -0.3965753             -10.7914
        97        2.0000           -0.3959793             -10.7751
        98        2.0000           -0.3949885             -10.7482
        99        2.0000           -0.3894957             -10.5987
       100        2.0000           -0.3861729             -10.5083
       101        2.0000           -0.3825203             -10.4089 (HOMO)
       102                         -0.2696420              -7.3373 (LUMO)
       103                         -0.2458149              -6.6890
       104                         -0.2406168              -6.5475
       105                         -0.2400291              -6.5315
       106                         -0.2344134              -6.3787
       ...                                ...                  ...
       192                          0.6252780              17.0147
      -------------------------------------------------------------
                  HL-Gap            0.1128783 Eh            3.0716 eV
             Fermi-level           -0.3260812 Eh           -8.8731 eV

 SCC (total)                   0 d,  0 h,  0 min,  0.416 sec
 SCC setup                      ...        0 min,  0.016 sec (  3.944%)
 Dispersion                     ...        0 min,  0.020 sec (  4.851%)
 classical contributions        ...        0 min,  0.012 sec (  2.872%)
 integral evaluation            ...        0 min,  0.079 sec ( 18.978%)
 iterations                     ...        0 min,  0.218 sec ( 52.520%)
 molecular gradient             ...        0 min,  0.068 sec ( 16.265%)
 printout                       ...        0 min,  0.002 sec (  0.548%)

         :::::::::::::::::::::::::::::::::::::::::::::::::::::
         ::                     SUMMARY                     ::
         :::::::::::::::::::::::::::::::::::::::::::::::::::::
         :: total energy            -111.281304939438 Eh    ::
         :: gradient norm              0.091042600098 Eh/a0 ::
         :: HOMO-LUMO gap              3.071574280989 eV    ::
         ::.................................................::
         :: SCC energy              -112.918758130014 Eh    ::
         :: -> isotropic ES            0.126675735387 Eh    ::
         :: -> anisotropic ES          0.009686312941 Eh    ::
         :: -> anisotropic XC          0.051870628878 Eh    ::
         :: -> dispersion             -0.093578587739 Eh    ::
         :: repulsion energy           1.634492548902 Eh    ::
         :: add. restraining           0.000000000000 Eh    ::
         :: total charge              -0.000000000000 e     ::
         :::::::::::::::::::::::::::::::::::::::::::::::::::::

      ----------------------------------------------------------- 
     |                   =====================                   |
     |                        A N C O P T                        |
     |                   =====================                   |
     |               Approximate Normal Coordinate               |
     |                Rational Function Optimizer                |
      ----------------------------------------------------------- 

          ...................................................
          :                      SETUP                      :
          :.................................................:
          :   optimization level            normal          :
          :   max. optcycles                   216          :
          :   ANC micro-cycles                  20          :
          :   degrees of freedom               210          :
          :.................................................:
          :   RF solver                   davidson          :
          :   write xtbopt.log                true          :
          :   linear?                        false          :
          :   energy convergence         0.5000000E-05 Eh   :
          :   grad. convergence          0.1000000E-02 Eh/α :
          :   maximium RF displ.         1.0000000          :
          :   Hlow (freq-cutoff)         0.1000000E-01      :
          :   Hmax (freq-cutoff)         5.0000000          :
          :   S6 in model hess.         20.0000000          :
          ...................................................

generating ANC from model Hessian ...
Using Lindh-Hessian (1995)
 Shifting diagonal of input Hessian by    9.8560762548448137E-003
 Lowest  eigenvalues of input Hessian
    0.000000    0.000000    0.000000    0.000000    0.000000    0.000000
    0.010000    0.010045    0.010156    0.010205    0.010302    0.010396
    0.010494    0.010823    0.010927    0.011158    0.011301    0.011599
 Highest eigenvalues
    1.938504    1.976586    1.981669    2.196611    2.245843    2.256195


........................................................................
.............................. CYCLE    1 ..............................
........................................................................
   1   -112.9187581 -0.112919E+03  0.781E-05    3.07       0.0  T
   2   -112.9187581 -0.110774E-09  0.478E-05    3.07     246.4  T
   3   -112.9187581 -0.686526E-10  0.300E-05    3.07     392.8  T
     SCC iter.                  ...        0 min,  0.056 sec
     gradient                   ...        0 min,  0.133 sec
 * total energy  :  -111.2813049 Eh     change       -0.9230803E-09 Eh
   gradient norm :     0.0910429 Eh/α   predicted     0.0000000E+00 (-100.00%)
   displ. norm   :     0.3464037 α      lambda       -0.1860812E-01
   maximum displ.:     0.0999944 α      in ANC's #59, #72, #21, ...

........................................................................
.............................. CYCLE    2 ..............................
........................................................................
   1   -113.0106357 -0.113011E+03  0.161E-01    3.41       0.0  T
   2   -113.0107441 -0.108359E-03  0.992E-02    3.34       1.0  T
   3   -113.0107017  0.423301E-04  0.395E-02    3.37       1.0  T
   4   -113.0107709 -0.692131E-04  0.708E-03    3.34       1.7  T
   5   -113.0107734 -0.245487E-05  0.286E-03    3.34       4.1  T
   6   -113.0107736 -0.218658E-06  0.148E-03    3.34       8.0  T
   7   -113.0107736 -0.217100E-07  0.404E-04    3.34      29.2  T
   8   -113.0107736 -0.312947E-08  0.195E-04    3.34      60.4  T
     SCC iter.                  ...        0 min,  0.149 sec
     gradient                   ...        0 min,  0.133 sec
 * total energy  :  -111.2938771 Eh     change       -0.1257212E-01 Eh
   gradient norm :     0.0308736 Eh/α   predicted    -0.1042051E-01 ( -17.11%)
   displ. norm   :     0.3492813 α      lambda       -0.5374189E-02
   maximum displ.:     0.1313817 α      in ANC's #21, #23, #30, ...

........................................................................
.............................. CYCLE    3 ..............................
........................................................................
   1   -113.0515437 -0.113052E+03  0.989E-02    3.51       0.0  T
   2   -113.0515913 -0.476110E-04  0.612E-02    3.47       1.0  T
   3   -113.0515764  0.148511E-04  0.259E-02    3.48       1.0  T
   4   -113.0516048 -0.283292E-04  0.515E-03    3.47       2.3  T
   5   -113.0516064 -0.160037E-05  0.174E-03    3.47       6.8  T
   6   -113.0516064 -0.380449E-07  0.892E-04    3.47      13.2  T
   7   -113.0516064 -0.111046E-07  0.327E-04    3.47      36.1  T
     SCC iter.                  ...        0 min,  0.126 sec
     gradient                   ...        0 min,  0.153 sec
 * total energy  :  -111.2972209 Eh     change       -0.3343839E-02 Eh
   gradient norm :     0.0133418 Eh/α   predicted    -0.3014911E-02 (  -9.84%)
   displ. norm   :     0.2787308 α      lambda       -0.1383754E-02
   maximum displ.:     0.1271448 α      in ANC's #21, #23, #30, ...

........................................................................
.............................. CYCLE    4 ..............................
........................................................................
   1   -113.0559471 -0.113056E+03  0.600E-02    3.50       0.0  T
   2   -113.0559571 -0.100606E-04  0.362E-02    3.49       1.0  T
   3   -113.0559506  0.652625E-05  0.124E-02    3.49       1.0  T
   4   -113.0559593 -0.865495E-05  0.285E-03    3.49       4.1  T
   5   -113.0559598 -0.547544E-06  0.955E-04    3.49      12.3  T
   6   -113.0559598 -0.945448E-08  0.517E-04    3.49      22.8  T
     SCC iter.                  ...        0 min,  0.110 sec
     gradient                   ...        0 min,  0.131 sec
 * total energy  :  -111.2981677 Eh     change       -0.9468232E-03 Eh
   gradient norm :     0.0094475 Eh/α   predicted    -0.7456564E-03 ( -21.25%)
   displ. norm   :     0.3005825 α      lambda       -0.8063669E-03
   maximum displ.:     0.1236312 α      in ANC's #21, #7, #23, ...

........................................................................
.............................. CYCLE    5 ..............................
........................................................................
   1   -113.0546070 -0.113055E+03  0.524E-02    3.51       0.0  T
   2   -113.0546110 -0.403977E-05  0.311E-02    3.51       1.0  T
   3   -113.0546075  0.353479E-05  0.822E-03    3.50       1.4  T
   4   -113.0546119 -0.447519E-05  0.217E-03    3.50       5.4  T
   5   -113.0546122 -0.250009E-06  0.955E-04    3.50      12.3  T
   6   -113.0546122 -0.299056E-08  0.395E-04    3.50      29.8  T
     SCC iter.                  ...        0 min,  0.113 sec
     gradient                   ...        0 min,  0.120 sec
 * total energy  :  -111.2986926 Eh     change       -0.5248869E-03 Eh
   gradient norm :     0.0057795 Eh/α   predicted    -0.4396506E-03 ( -16.24%)
   displ. norm   :     0.2540325 α      lambda       -0.3863263E-03
   maximum displ.:     0.1174897 α      in ANC's #7, #6, #21, ...

........................................................................
.............................. CYCLE    6 ..............................
........................................................................
   1   -113.0527452 -0.113053E+03  0.374E-02    3.49       0.0  T
   2   -113.0527469 -0.174318E-05  0.221E-02    3.50       1.0  T
   3   -113.0527447  0.223360E-05  0.643E-03    3.50       1.8  T
   4   -113.0527476 -0.286724E-05  0.120E-03    3.50       9.8  T
   5   -113.0527476 -0.533024E-07  0.646E-04    3.50      18.3  T
   6   -113.0527476 -0.437628E-08  0.257E-04    3.50      45.9  T
     SCC iter.                  ...        0 min,  0.109 sec
     gradient                   ...        0 min,  0.127 sec
 * total energy  :  -111.2989733 Eh     change       -0.2806678E-03 Eh
   gradient norm :     0.0049904 Eh/α   predicted    -0.2056397E-03 ( -26.73%)
   displ. norm   :     0.2994562 α      lambda       -0.3340132E-03
   maximum displ.:     0.1494148 α      in ANC's #7, #6, #12, ...

........................................................................
.............................. CYCLE    7 ..............................
........................................................................
   1   -113.0529698 -0.113053E+03  0.397E-02    3.49       0.0  T
   2   -113.0529734 -0.354073E-05  0.233E-02    3.50       1.0  T
   3   -113.0529713  0.208620E-05  0.714E-03    3.49       1.6  T
   4   -113.0529741 -0.277246E-05  0.151E-03    3.49       7.8  T
   5   -113.0529742 -0.148440E-06  0.633E-04    3.49      18.6  T
   6   -113.0529742 -0.881494E-08  0.334E-04    3.49      35.3  T
     SCC iter.                  ...        0 min,  0.108 sec
     gradient                   ...        0 min,  0.113 sec
 * total energy  :  -111.2992369 Eh     change       -0.2636443E-03 Eh
   gradient norm :     0.0049884 Eh/α   predicted    -0.1819839E-03 ( -30.97%)
   displ. norm   :     0.3767868 α      lambda       -0.3573046E-03
   maximum displ.:     0.1910719 α      in ANC's #7, #6, #12, ...

........................................................................
.............................. CYCLE    8 ..............................
........................................................................
   1   -113.0540848 -0.113054E+03  0.539E-02    3.48       0.0  T
   2   -113.0540887 -0.391066E-05  0.316E-02    3.48       1.0  T
   3   -113.0540850  0.376674E-05  0.839E-03    3.48       1.4  T
   4   -113.0540897 -0.468929E-05  0.158E-03    3.48       7.5  T
   5   -113.0540898 -0.167650E-06  0.693E-04    3.48      17.0  T
   6   -113.0540898 -0.109947E-07  0.361E-04    3.48      32.6  T
     SCC iter.                  ...        0 min,  0.108 sec
     gradient                   ...        0 min,  0.135 sec
 * total energy  :  -111.2995295 Eh     change       -0.2925900E-03 Eh
   gradient norm :     0.0055678 Eh/α   predicted    -0.2040197E-03 ( -30.27%)
   displ. norm   :     0.4561387 α      lambda       -0.3875378E-03
   maximum displ.:     0.2330201 α      in ANC's #7, #6, #12, ...

........................................................................
.............................. CYCLE    9 ..............................
........................................................................
   1   -113.0553311 -0.113055E+03  0.671E-02    3.47       0.0  T
   2   -113.0553348 -0.374645E-05  0.393E-02    3.47       1.0  T
   3   -113.0553299  0.490316E-05  0.863E-03    3.47       1.4  T
   4   -113.0553358 -0.589774E-05  0.163E-03    3.47       7.2  T
   5   -113.0553360 -0.174717E-06  0.729E-04    3.47      16.2  T
   6   -113.0553360 -0.847238E-08  0.381E-04    3.47      30.9  T
     SCC iter.                  ...        0 min,  0.107 sec
     gradient                   ...        0 min,  0.138 sec
 * total energy  :  -111.2998525 Eh     change       -0.3229827E-03 Eh
   gradient norm :     0.0060014 Eh/α   predicted    -0.2341077E-03 ( -27.52%)
   displ. norm   :     0.5174875 α      lambda       -0.4023543E-03
   maximum displ.:     0.2665877 α      in ANC's #7, #6, #3, ...

........................................................................
.............................. CYCLE   10 ..............................
........................................................................
   1   -113.0558948 -0.113056E+03  0.776E-02    3.46       0.0  T
   2   -113.0558973 -0.244864E-05  0.456E-02    3.46       1.0  T
   3   -113.0558908  0.641710E-05  0.906E-03    3.46       1.3  T
   4   -113.0558985 -0.766897E-05  0.134E-03    3.46       8.8  T
   5   -113.0558986 -0.514389E-07  0.755E-04    3.46      15.6  T
   6   -113.0558986 -0.592931E-08  0.337E-04    3.46      34.9  T
     SCC iter.                  ...        0 min,  0.108 sec
     gradient                   ...        0 min,  0.126 sec
 * total energy  :  -111.3001872 Eh     change       -0.3346723E-03 Eh
   gradient norm :     0.0057902 Eh/α   predicted    -0.2550519E-03 ( -23.79%)
   displ. norm   :     0.5425923 α      lambda       -0.3767885E-03
   maximum displ.:     0.2820229 α      in ANC's #7, #6, #3, ...

........................................................................
.............................. CYCLE   11 ..............................
........................................................................
   1   -113.0559965 -0.113056E+03  0.821E-02    3.46       0.0  T
   2   -113.0559983 -0.177454E-05  0.482E-02    3.46       1.0  T
   3   -113.0559923  0.602745E-05  0.861E-03    3.47       1.4  T
   4   -113.0559995 -0.721152E-05  0.122E-03    3.47       9.7  T
   5   -113.0559995 -0.113340E-07  0.703E-04    3.47      16.8  T
   6   -113.0559995 -0.905749E-08  0.253E-04    3.47      46.6  T
     SCC iter.                  ...        0 min,  0.108 sec
     gradient                   ...        0 min,  0.128 sec
 * total energy  :  -111.3004916 Eh     change       -0.3043955E-03 Eh
   gradient norm :     0.0049292 Eh/α   predicted    -0.2438625E-03 ( -19.89%)
   displ. norm   :     0.5169447 α      lambda       -0.2915746E-03
   maximum displ.:     0.2701612 α      in ANC's #7, #6, #3, ...

........................................................................
.............................. CYCLE   12 ..............................
........................................................................
   1   -113.0557236 -0.113056E+03  0.791E-02    3.46       0.0  T
   2   -113.0557255 -0.192074E-05  0.464E-02    3.47       1.0  T
   3   -113.0557210  0.444957E-05  0.749E-03    3.47       1.6  T
   4   -113.0557264 -0.536844E-05  0.121E-03    3.47       9.7  T
   5   -113.0557264 -0.351645E-07  0.670E-04    3.47      17.6  T
   6   -113.0557264 -0.426162E-08  0.319E-04    3.47      36.9  T
     SCC iter.                  ...        0 min,  0.108 sec
     gradient                   ...        0 min,  0.129 sec
 * total energy  :  -111.3007164 Eh     change       -0.2248805E-03 Eh
   gradient norm :     0.0030765 Eh/α   predicted    -0.1847599E-03 ( -17.84%)
   displ. norm   :     0.4286658 α      lambda       -0.1846671E-03
   maximum displ.:     0.2236104 α      in ANC's #7, #6, #3, ...

........................................................................
.............................. CYCLE   13 ..............................
........................................................................
   1   -113.0560211 -0.113056E+03  0.663E-02    3.47       0.0  T
   2   -113.0560226 -0.148659E-05  0.389E-02    3.48       1.0  T
   3   -113.0560204  0.219899E-05  0.548E-03    3.48       2.2  T
   4   -113.0560231 -0.270788E-05  0.111E-03    3.48      10.6  T
   5   -113.0560231 -0.501398E-07  0.578E-04    3.48      20.4  T
   6   -113.0560231 -0.459096E-08  0.264E-04    3.48      44.7  T
     SCC iter.                  ...        0 min,  0.107 sec
     gradient                   ...        0 min,  0.135 sec
 * total energy  :  -111.3008547 Eh     change       -0.1382748E-03 Eh
   gradient norm :     0.0025648 Eh/α   predicted    -0.1093007E-03 ( -20.95%)
   displ. norm   :     0.3477563 α      lambda       -0.1230887E-03
   maximum displ.:     0.1776017 α      in ANC's #7, #6, #3, ...

........................................................................
.............................. CYCLE   14 ..............................
........................................................................
   1   -113.0561613 -0.113056E+03  0.553E-02    3.47       0.0  T
   2   -113.0561625 -0.115971E-05  0.325E-02    3.47       1.0  T
   3   -113.0561614  0.107498E-05  0.393E-03    3.47       3.0  T
   4   -113.0561627 -0.134522E-05  0.993E-04    3.47      11.9  T
   5   -113.0561628 -0.523208E-07  0.457E-04    3.47      25.8  T
   6   -113.0561628 -0.215127E-08  0.229E-04    3.47      51.4  T
     SCC iter.                  ...        0 min,  0.108 sec
     gradient                   ...        0 min,  0.120 sec
 * total energy  :  -111.3009493 Eh     change       -0.9459573E-04 Eh
   gradient norm :     0.0028742 Eh/α   predicted    -0.6899029E-04 ( -27.07%)
   displ. norm   :     0.3259041 α      lambda       -0.1152016E-03
   maximum displ.:     0.1567361 α      in ANC's #7, #6, #1, ...

........................................................................
.............................. CYCLE   15 ..............................
........................................................................
   1   -113.0570511 -0.113057E+03  0.549E-02    3.49       0.0  T
   2   -113.0570518 -0.749675E-06  0.322E-02    3.49       1.0  T
   3   -113.0570512  0.634873E-06  0.341E-03    3.49       3.5  T
   4   -113.0570521 -0.891234E-06  0.848E-04    3.49      13.9  T
   5   -113.0570521 -0.179579E-07  0.488E-04    3.49      24.2  T
     SCC iter.                  ...        0 min,  0.090 sec
     gradient                   ...        0 min,  0.125 sec
 * total energy  :  -111.3010388 Eh     change       -0.8944693E-04 Eh
   gradient norm :     0.0036605 Eh/α   predicted    -0.6371925E-04 ( -28.76%)
   displ. norm   :     0.3135023 α      lambda       -0.1181960E-03
   maximum displ.:     0.1390540 α      in ANC's #7, #6, #1, ...

........................................................................
.............................. CYCLE   16 ..............................
........................................................................
   1   -113.0567990 -0.113057E+03  0.548E-02    3.47       0.0  T
   2   -113.0567997 -0.683519E-06  0.321E-02    3.48       1.0  T
   3   -113.0567993  0.447232E-06  0.296E-03    3.47       4.0  T
   4   -113.0568000 -0.665434E-06  0.804E-04    3.47      14.7  T
   5   -113.0568000 -0.167353E-07  0.459E-04    3.47      25.7  T
     SCC iter.                  ...        0 min,  0.089 sec
     gradient                   ...        0 min,  0.131 sec
 * total energy  :  -111.3011324 Eh     change       -0.9362131E-04 Eh
   gradient norm :     0.0033564 Eh/α   predicted    -0.6490882E-04 ( -30.67%)
   displ. norm   :     0.2880507 α      lambda       -0.1279928E-03
   maximum displ.:     0.1525203 α      in ANC's #8, #1, #12, ...

........................................................................
.............................. CYCLE   17 ..............................
........................................................................
   1   -113.0577025 -0.113058E+03  0.543E-02    3.49       0.0  T
   2   -113.0577035 -0.100808E-05  0.318E-02    3.48       1.0  T
   3   -113.0577020  0.147257E-05  0.464E-03    3.49       2.5  T
   4   -113.0577039 -0.183372E-05  0.935E-04    3.48      12.6  T
   5   -113.0577039 -0.383444E-07  0.508E-04    3.48      23.2  T
   6   -113.0577039 -0.354832E-08  0.209E-04    3.48      56.3  T
     SCC iter.                  ...        0 min,  0.112 sec
     gradient                   ...        0 min,  0.116 sec
 * total energy  :  -111.3012350 Eh     change       -0.1026012E-03 Eh
   gradient norm :     0.0027798 Eh/α   predicted    -0.6931003E-04 ( -32.45%)
   displ. norm   :     0.2933867 α      lambda       -0.1210492E-03
   maximum displ.:     0.1730956 α      in ANC's #8, #1, #12, ...

........................................................................
.............................. CYCLE   18 ..............................
........................................................................
   1   -113.0572957 -0.113057E+03  0.556E-02    3.48       0.0  T
   2   -113.0572970 -0.128042E-05  0.326E-02    3.48       1.0  T
   3   -113.0572952  0.176464E-05  0.486E-03    3.48       2.4  T
   4   -113.0572973 -0.214607E-05  0.104E-03    3.48      11.4  T
   5   -113.0572974 -0.638898E-07  0.504E-04    3.48      23.4  T
   6   -113.0572974 -0.237257E-08  0.232E-04    3.48      50.7  T
     SCC iter.                  ...        0 min,  0.110 sec
     gradient                   ...        0 min,  0.043 sec
 * total energy  :  -111.3013289 Eh     change       -0.9388813E-04 Eh
   gradient norm :     0.0025631 Eh/α   predicted    -0.6573723E-04 ( -29.98%)
   displ. norm   :     0.2726972 α      lambda       -0.9118240E-04
   maximum displ.:     0.1667473 α      in ANC's #8, #1, #12, ...

........................................................................
.............................. CYCLE   19 ..............................
........................................................................
   1   -113.0570427 -0.113057E+03  0.507E-02    3.49       0.0  T
   2   -113.0570435 -0.816823E-06  0.297E-02    3.48       1.0  T
   3   -113.0570422  0.132501E-05  0.432E-03    3.48       2.7  T
   4   -113.0570438 -0.166416E-05  0.838E-04    3.48      14.1  T
   5   -113.0570438 -0.200648E-07  0.482E-04    3.48      24.5  T
   6   -113.0570438 -0.222285E-08  0.212E-04    3.48      55.6  T
     SCC iter.                  ...        0 min,  0.107 sec
     gradient                   ...        0 min,  0.108 sec
 * total energy  :  -111.3013984 Eh     change       -0.6951954E-04 Eh
   gradient norm :     0.0025390 Eh/α   predicted    -0.4898649E-04 ( -29.54%)
   displ. norm   :     0.2624608 α      lambda       -0.7302643E-04
   maximum displ.:     0.1570702 α      in ANC's #8, #1, #12, ...

........................................................................
.............................. CYCLE   20 ..............................
........................................................................
   1   -113.0561680 -0.113056E+03  0.490E-02    3.49       0.0  T
   2   -113.0561685 -0.554191E-06  0.287E-02    3.49       1.0  T
   3   -113.0561677  0.872063E-06  0.364E-03    3.49       3.2  T
   4   -113.0561688 -0.115622E-05  0.755E-04    3.49      15.6  T
   5   -113.0561688 -0.442415E-08  0.438E-04    3.49      26.9  T
   6   -113.0561688 -0.342010E-08  0.157E-04    3.49      75.2  T
     SCC iter.                  ...        0 min,  0.108 sec
     gradient                   ...        0 min,  0.135 sec
 * total energy  :  -111.3014556 Eh     change       -0.5716788E-04 Eh
   gradient norm :     0.0028920 Eh/α   predicted    -0.3903108E-04 ( -31.73%)
   displ. norm   :     0.2800892 α      lambda       -0.8091430E-04
   maximum displ.:     0.1617453 α      in ANC's #8, #1, #14, ...
 * RMSD in coord.:     0.6107167 α      energy gain  -0.2015062E-01 Eh

generating ANC from model Hessian ...
Using Lindh-Hessian (1995)
 Shifting diagonal of input Hessian by    9.8714101411921332E-003
 Lowest  eigenvalues of input Hessian
    0.000000    0.000000    0.000000    0.000000    0.000000    0.000000
    0.010000    0.010058    0.010209    0.010264    0.010444    0.010538
    0.010804    0.011036    0.011152    0.011369    0.011720    0.011941
 Highest eigenvalues
    2.029590    2.030319    2.034419    2.327378    2.337177    2.388727


........................................................................
.............................. CYCLE   21 ..............................
........................................................................
   1   -113.0561020 -0.113056E+03  0.515E-02    3.49       0.0  T
   2   -113.0561029 -0.975265E-06  0.302E-02    3.49       1.0  T
   3   -113.0561019  0.101601E-05  0.402E-03    3.49       2.9  T
   4   -113.0561033 -0.135298E-05  0.950E-04    3.49      12.4  T
   5   -113.0561033 -0.271520E-07  0.526E-04    3.49      22.4  T
   6   -113.0561033 -0.198943E-08  0.194E-04    3.49      60.7  T
     SCC iter.                  ...        0 min,  0.115 sec
     gradient                   ...        0 min,  0.120 sec
 * total energy  :  -111.3015191 Eh     change       -0.6358213E-04 Eh
   gradient norm :     0.0024445 Eh/α   predicted     0.0000000E+00 (-100.00%)
   displ. norm   :     0.0454044 α      lambda       -0.3610698E-04
   maximum displ.:     0.0272260 α      in ANC's #12, #9, #6, ...

........................................................................
.............................. CYCLE   22 ..............................
........................................................................
   1   -113.0569308 -0.113057E+03  0.995E-03    3.49       0.0  T
   2   -113.0569310 -0.206398E-06  0.586E-03    3.49       2.0  T
   3   -113.0569309  0.143519E-06  0.175E-03    3.49       6.7  T
   4   -113.0569310 -0.174126E-06  0.388E-04    3.49      30.3  T
   5   -113.0569311 -0.110229E-07  0.116E-04    3.49     101.7  T
     SCC iter.                  ...        0 min,  0.091 sec
     gradient                   ...        0 min,  0.056 sec
 * total energy  :  -111.3015504 Eh     change       -0.3125139E-04 Eh
   gradient norm :     0.0012430 Eh/α   predicted    -0.1809495E-04 ( -42.10%)
   displ. norm   :     0.2574246 α      lambda       -0.9834155E-04
   maximum displ.:     0.1489249 α      in ANC's #12, #9, #6, ...

........................................................................
.............................. CYCLE   23 ..............................
........................................................................
   1   -113.0589154 -0.113059E+03  0.529E-02    3.50       0.0  T
   2   -113.0589183 -0.285433E-05  0.310E-02    3.50       1.0  T
   3   -113.0589147  0.355829E-05  0.752E-03    3.50       1.6  T
   4   -113.0589189 -0.421509E-05  0.144E-03    3.50       8.2  T
   5   -113.0589191 -0.142465E-06  0.538E-04    3.50      21.9  T
   6   -113.0589191 -0.410307E-08  0.285E-04    3.50      41.4  T
     SCC iter.                  ...        0 min,  0.105 sec
     gradient                   ...        0 min,  0.120 sec
 * total energy  :  -111.3016279 Eh     change       -0.7753549E-04 Eh
   gradient norm :     0.0039163 Eh/α   predicted    -0.5063485E-04 ( -34.69%)
   displ. norm   :     0.1718866 α      lambda        0.8662750E-04
   maximum displ.:     0.0992889 α      in ANC's #12, #9, #6, ...

........................................................................
.............................. CYCLE   24 ..............................
........................................................................
   1   -113.0598136 -0.113060E+03  0.352E-02    3.50       0.0  T
   2   -113.0598149 -0.123236E-05  0.206E-02    3.50       1.0  T
   3   -113.0598133  0.157150E-05  0.495E-03    3.50       2.4  T
   4   -113.0598152 -0.185718E-05  0.953E-04    3.50      12.4  T
   5   -113.0598152 -0.626844E-07  0.357E-04    3.50      33.0  T
   6   -113.0598152 -0.161917E-08  0.187E-04    3.50      62.9  T
     SCC iter.                  ...        0 min,  0.111 sec
     gradient                   ...        0 min,  0.093 sec
 * total energy  :  -111.3016025 Eh     change        0.2545085E-04 Eh
   gradient norm :     0.0070914 Eh/α   predicted     0.4459098E-04 (  75.20%)
   displ. norm   :     0.0846192 α      lambda       -0.8332542E-04
   maximum displ.:     0.0487677 α      in ANC's #12, #6, #9, ...

........................................................................
.............................. CYCLE   25 ..............................
........................................................................
   1   -113.0586781 -0.113059E+03  0.213E-02    3.50       0.0  T
   2   -113.0586795 -0.141964E-05  0.125E-02    3.50       1.0  T
   3   -113.0586790  0.476716E-06  0.379E-03    3.50       3.1  T
   4   -113.0586796 -0.581570E-06  0.105E-03    3.50      11.2  T
   5   -113.0586797 -0.791326E-07  0.252E-04    3.50      46.7  T
   6   -113.0586797 -0.169501E-08  0.131E-04    3.50      90.3  T
     SCC iter.                  ...        0 min,  0.107 sec
     gradient                   ...        0 min,  0.126 sec
 * total energy  :  -111.3016585 Eh     change       -0.5598667E-04 Eh
   gradient norm :     0.0032970 Eh/α   predicted    -0.4196087E-04 ( -25.05%)
   displ. norm   :     0.0578714 α      lambda       -0.4456056E-04
   maximum displ.:     0.0264788 α      in ANC's #1, #9, #6, ...

........................................................................
.............................. CYCLE   26 ..............................
........................................................................
   1   -113.0579115 -0.113058E+03  0.126E-02    3.50       0.0  T
   2   -113.0579123 -0.783587E-06  0.741E-03    3.50       1.6  T
   3   -113.0579122  0.111536E-06  0.252E-03    3.50       4.7  T
   4   -113.0579123 -0.155855E-06  0.705E-04    3.50      16.7  T
   5   -113.0579124 -0.332414E-07  0.177E-04    3.50      66.4  T
     SCC iter.                  ...        0 min,  0.089 sec
     gradient                   ...        0 min,  0.125 sec
 * total energy  :  -111.3016924 Eh     change       -0.3397483E-04 Eh
   gradient norm :     0.0009246 Eh/α   predicted    -0.2235524E-04 ( -34.20%)
   displ. norm   :     0.2426877 α      lambda       -0.5155757E-04
   maximum displ.:     0.1156909 α      in ANC's #1, #9, #6, ...

........................................................................
.............................. CYCLE   27 ..............................
........................................................................
   1   -113.0566314 -0.113057E+03  0.432E-02    3.49       0.0  T
   2   -113.0566341 -0.270066E-05  0.254E-02    3.49       1.0  T
   3   -113.0566315  0.255821E-05  0.660E-03    3.49       1.8  T
   4   -113.0566346 -0.306926E-05  0.139E-03    3.50       8.5  T
   5   -113.0566347 -0.147165E-06  0.526E-04    3.49      22.4  T
   6   -113.0566347 -0.627023E-08  0.289E-04    3.49      40.7  T
     SCC iter.                  ...        0 min,  0.109 sec
     gradient                   ...        0 min,  0.138 sec
 * total energy  :  -111.3017390 Eh     change       -0.4657905E-04 Eh
   gradient norm :     0.0029723 Eh/α   predicted    -0.2646141E-04 ( -43.19%)
   displ. norm   :     0.1240165 α      lambda       -0.2752509E-04
   maximum displ.:     0.0606923 α      in ANC's #1, #9, #6, ...

........................................................................
.............................. CYCLE   28 ..............................
........................................................................
   1   -113.0568254 -0.113057E+03  0.214E-02    3.49       0.0  T
   2   -113.0568256 -0.219101E-06  0.125E-02    3.50       1.0  T
   3   -113.0568248  0.889936E-06  0.332E-03    3.50       3.6  T
   4   -113.0568258 -0.104883E-05  0.386E-04    3.50      30.6  T
   5   -113.0568258 -0.239781E-08  0.231E-04    3.50      51.0  T
   6   -113.0568258 -0.789072E-09  0.750E-05    3.50     157.2  T
     SCC iter.                  ...        0 min,  0.106 sec
     gradient                   ...        0 min,  0.127 sec
 * total energy  :  -111.3017635 Eh     change       -0.2447755E-04 Eh
   gradient norm :     0.0025264 Eh/α   predicted    -0.1397453E-04 ( -42.91%)
   displ. norm   :     0.2917891 α      lambda       -0.6582964E-04
   maximum displ.:     0.1446708 α      in ANC's #1, #6, #9, ...

........................................................................
.............................. CYCLE   29 ..............................
........................................................................
   1   -113.0572944 -0.113057E+03  0.492E-02    3.50       0.0  T
   2   -113.0572956 -0.119796E-05  0.289E-02    3.50       1.0  T
   3   -113.0572908  0.481566E-05  0.774E-03    3.50       1.5  T
   4   -113.0572964 -0.566963E-05  0.881E-04    3.50      13.4  T
   5   -113.0572964 -0.137719E-07  0.525E-04    3.50      22.4  T
   6   -113.0572964 -0.400236E-08  0.180E-04    3.50      65.3  T
     SCC iter.                  ...        0 min,  0.108 sec
     gradient                   ...        0 min,  0.106 sec
 * total energy  :  -111.3018161 Eh     change       -0.5261287E-04 Eh
   gradient norm :     0.0013407 Eh/α   predicted    -0.3571733E-04 ( -32.11%)
   displ. norm   :     0.5543582 α      lambda       -0.7056164E-04
   maximum displ.:     0.2798475 α      in ANC's #1, #6, #9, ...

........................................................................
.............................. CYCLE   30 ..............................
........................................................................
   1   -113.0568907 -0.113057E+03  0.915E-02    3.50       0.0  T
   2   -113.0568948 -0.408182E-05  0.538E-02    3.50       1.0  T
   3   -113.0568784  0.164415E-04  0.143E-02    3.50       1.0  T
   4   -113.0568977 -0.193297E-04  0.163E-03    3.50       7.2  T
   5   -113.0568977 -0.516444E-07  0.969E-04    3.50      12.2  T
   6   -113.0568978 -0.130527E-07  0.319E-04    3.50      37.0  T
     SCC iter.                  ...        0 min,  0.107 sec
     gradient                   ...        0 min,  0.122 sec
 * total energy  :  -111.3018943 Eh     change       -0.7814804E-04 Eh
   gradient norm :     0.0028811 Eh/α   predicted    -0.4011842E-04 ( -48.66%)
   displ. norm   :     0.3135349 α      lambda       -0.7272759E-04
   maximum displ.:     0.1594197 α      in ANC's #1, #6, #8, ...

........................................................................
.............................. CYCLE   31 ..............................
........................................................................
   1   -113.0574752 -0.113057E+03  0.499E-02    3.51       0.0  T
   2   -113.0574764 -0.126254E-05  0.294E-02    3.51       1.0  T
   3   -113.0574724  0.402881E-05  0.712E-03    3.51       1.7  T
   4   -113.0574771 -0.475107E-05  0.920E-04    3.51      12.8  T
   5   -113.0574772 -0.245077E-07  0.517E-04    3.51      22.8  T
   6   -113.0574772 -0.322336E-08  0.199E-04    3.51      59.2  T
     SCC iter.                  ...        0 min,  0.111 sec
     gradient                   ...        0 min,  0.146 sec
 * total energy  :  -111.3019611 Eh     change       -0.6686798E-04 Eh
   gradient norm :     0.0027572 Eh/α   predicted    -0.3993962E-04 ( -40.27%)
   displ. norm   :     0.4976286 α      lambda       -0.1427348E-03
   maximum displ.:     0.2498780 α      in ANC's #1, #8, #6, ...

........................................................................
.............................. CYCLE   32 ..............................
........................................................................
   1   -113.0578133 -0.113058E+03  0.789E-02    3.52       0.0  T
   2   -113.0578161 -0.276645E-05  0.464E-02    3.52       1.0  T
   3   -113.0578069  0.919530E-05  0.108E-02    3.52       1.1  T
   4   -113.0578178 -0.108605E-04  0.141E-03    3.52       8.4  T
   5   -113.0578178 -0.439269E-07  0.801E-04    3.52      14.7  T
   6   -113.0578178 -0.932658E-08  0.290E-04    3.52      40.7  T
     SCC iter.                  ...        0 min,  0.107 sec
     gradient                   ...        0 min,  0.135 sec
 * total energy  :  -111.3020885 Eh     change       -0.1273598E-03 Eh
   gradient norm :     0.0029086 Eh/α   predicted    -0.8904202E-04 ( -30.09%)
   displ. norm   :     0.6257232 α      lambda       -0.1802517E-03
   maximum displ.:     0.3094416 α      in ANC's #1, #8, #7, ...

........................................................................
.............................. CYCLE   33 ..............................
........................................................................
   1   -113.0565937 -0.113057E+03  0.982E-02    3.52       0.0  T
   2   -113.0565985 -0.479049E-05  0.577E-02    3.53       1.0  T
   3   -113.0565844  0.141146E-04  0.136E-02    3.53       1.0  T
   4   -113.0566012 -0.167309E-04  0.187E-03    3.53       6.3  T
   5   -113.0566013 -0.980696E-07  0.104E-03    3.53      11.4  T
   6   -113.0566013 -0.125587E-07  0.400E-04    3.53      29.5  T
   7   -113.0566013 -0.408809E-08  0.147E-04    3.53      80.1  T
     SCC iter.                  ...        0 min,  0.126 sec
     gradient                   ...        0 min,  0.114 sec
 * total energy  :  -111.3022363 Eh     change       -0.1478233E-03 Eh
   gradient norm :     0.0033956 Eh/α   predicted    -0.1254318E-03 ( -15.15%)
   displ. norm   :     0.5323417 α      lambda       -0.1500904E-03
   maximum displ.:     0.2533515 α      in ANC's #1, #8, #7, ...

........................................................................
.............................. CYCLE   34 ..............................
........................................................................
   1   -113.0570327 -0.113057E+03  0.826E-02    3.52       0.0  T
   2   -113.0570358 -0.306155E-05  0.486E-02    3.53       1.0  T
   3   -113.0570276  0.821099E-05  0.106E-02    3.53       1.1  T
   4   -113.0570374 -0.985295E-05  0.160E-03    3.53       7.3  T
   5   -113.0570375 -0.520582E-07  0.892E-04    3.53      13.2  T
   6   -113.0570375 -0.111813E-07  0.330E-04    3.53      35.8  T
     SCC iter.                  ...        0 min,  0.107 sec
     gradient                   ...        0 min,  0.146 sec
 * total energy  :  -111.3023429 Eh     change       -0.1065697E-03 Eh
   gradient norm :     0.0025028 Eh/α   predicted    -0.9631361E-04 (  -9.62%)
   displ. norm   :     0.4611584 α      lambda       -0.8509615E-04
   maximum displ.:     0.2357951 α      in ANC's #1, #7, #6, ...

........................................................................
.............................. CYCLE   35 ..............................
........................................................................
   1   -113.0539825 -0.113054E+03  0.704E-02    3.52       0.0  T
   2   -113.0539856 -0.316762E-05  0.415E-02    3.53       1.0  T
   3   -113.0539752  0.104659E-04  0.118E-02    3.52       1.0  T
   4   -113.0539876 -0.123897E-04  0.145E-03    3.53       8.1  T
   5   -113.0539876 -0.590801E-07  0.810E-04    3.53      14.6  T
   6   -113.0539876 -0.894862E-08  0.312E-04    3.53      37.8  T
     SCC iter.                  ...        0 min,  0.107 sec
     gradient                   ...        0 min,  0.151 sec
 * total energy  :  -111.3023972 Eh     change       -0.5430359E-04 Eh
   gradient norm :     0.0052829 Eh/α   predicted    -0.5160885E-04 (  -4.96%)
   displ. norm   :     0.3180219 α      lambda       -0.1220090E-03
   maximum displ.:     0.1495639 α      in ANC's #1, #4, #7, ...

........................................................................
.............................. CYCLE   36 ..............................
........................................................................
   1   -113.0572127 -0.113057E+03  0.492E-02    3.52       0.0  T
   2   -113.0572141 -0.146599E-05  0.289E-02    3.52       1.0  T
   3   -113.0572113  0.288235E-05  0.664E-03    3.52       1.8  T
   4   -113.0572148 -0.352792E-05  0.112E-03    3.52      10.5  T
   5   -113.0572148 -0.335585E-07  0.623E-04    3.52      18.9  T
   6   -113.0572148 -0.570776E-08  0.234E-04    3.52      50.4  T
     SCC iter.                  ...        0 min,  0.109 sec
     gradient                   ...        0 min,  0.115 sec
 * total energy  :  -111.3024736 Eh     change       -0.7646586E-04 Eh
   gradient norm :     0.0024541 Eh/α   predicted    -0.6717465E-04 ( -12.15%)
   displ. norm   :     0.3561458 α      lambda       -0.9289476E-04
   maximum displ.:     0.1845808 α      in ANC's #1, #6, #4, ...

........................................................................
.............................. CYCLE   37 ..............................
........................................................................
   1   -113.0560414 -0.113056E+03  0.484E-02    3.51       0.0  T
   2   -113.0560433 -0.194193E-05  0.286E-02    3.52       1.0  T
   3   -113.0560364  0.695712E-05  0.957E-03    3.52       1.2  T
   4   -113.0560446 -0.828238E-05  0.104E-03    3.52      11.4  T
   5   -113.0560447 -0.337000E-07  0.581E-04    3.52      20.3  T
   6   -113.0560447 -0.285165E-08  0.241E-04    3.52      49.0  T
     SCC iter.                  ...        0 min,  0.107 sec
     gradient                   ...        0 min,  0.133 sec
 * total energy  :  -111.3025565 Eh     change       -0.8288908E-04 Eh
   gradient norm :     0.0025158 Eh/α   predicted    -0.5234027E-04 ( -36.86%)
   displ. norm   :     0.5075005 α      lambda       -0.1788402E-03
   maximum displ.:     0.2457502 α      in ANC's #1, #6, #4, ...

........................................................................
.............................. CYCLE   38 ..............................
........................................................................
   1   -113.0559126 -0.113056E+03  0.646E-02    3.52       0.0  T
   2   -113.0559161 -0.346309E-05  0.381E-02    3.52       1.0  T
   3   -113.0559026  0.135547E-04  0.134E-02    3.52       1.0  T
   4   -113.0559188 -0.162530E-04  0.142E-03    3.52       8.3  T
   5   -113.0559188 -0.375827E-07  0.846E-04    3.52      13.9  T
   6   -113.0559189 -0.944112E-08  0.324E-04    3.52      36.4  T
     SCC iter.                  ...        0 min,  0.110 sec
     gradient                   ...        0 min,  0.119 sec
 * total energy  :  -111.3026956 Eh     change       -0.1391039E-03 Eh
   gradient norm :     0.0026030 Eh/α   predicted    -0.1124515E-03 ( -19.16%)
   displ. norm   :     0.5154755 α      lambda       -0.1269803E-03
   maximum displ.:     0.2522518 α      in ANC's #1, #4, #6, ...

........................................................................
.............................. CYCLE   39 ..............................
........................................................................
   1   -113.0538058 -0.113054E+03  0.661E-02    3.52       0.0  T
   2   -113.0538100 -0.426389E-05  0.390E-02    3.53       1.0  T
   3   -113.0537957  0.143382E-04  0.139E-02    3.53       1.0  T
   4   -113.0538129 -0.172551E-04  0.150E-03    3.53       7.8  T
   5   -113.0538130 -0.705552E-07  0.854E-04    3.53      13.8  T
   6   -113.0538130 -0.677798E-08  0.373E-04    3.53      31.6  T
     SCC iter.                  ...        0 min,  0.111 sec
     gradient                   ...        0 min,  0.131 sec
 * total energy  :  -111.3027914 Eh     change       -0.9571631E-04 Eh
   gradient norm :     0.0029086 Eh/α   predicted    -0.8036272E-04 ( -16.04%)
   displ. norm   :     0.3725948 α      lambda       -0.9284969E-04
   maximum displ.:     0.1689523 α      in ANC's #1, #4, #2, ...

........................................................................
.............................. CYCLE   40 ..............................
........................................................................
   1   -113.0553206 -0.113055E+03  0.486E-02    3.53       0.0  T
   2   -113.0553224 -0.181476E-05  0.286E-02    3.53       1.0  T
   3   -113.0553161  0.629242E-05  0.916E-03    3.53       1.3  T
   4   -113.0553236 -0.753416E-05  0.110E-03    3.53      10.7  T
   5   -113.0553237 -0.329799E-07  0.642E-04    3.53      18.4  T
   6   -113.0553237 -0.401843E-08  0.262E-04    3.53      44.9  T
     SCC iter.                  ...        0 min,  0.111 sec
     gradient                   ...        0 min,  0.136 sec
 * total energy  :  -111.3028617 Eh     change       -0.7032151E-04 Eh
   gradient norm :     0.0024754 Eh/α   predicted    -0.5287026E-04 ( -24.82%)
   displ. norm   :     0.4144979 α      lambda       -0.8594867E-04
   maximum displ.:     0.2029889 α      in ANC's #1, #4, #2, ...

........................................................................
.............................. CYCLE   41 ..............................
........................................................................
   1   -113.0547061 -0.113055E+03  0.573E-02    3.53       0.0  T
   2   -113.0547083 -0.220716E-05  0.337E-02    3.54       1.0  T
   3   -113.0547000  0.822453E-05  0.104E-02    3.53       1.1  T
   4   -113.0547098 -0.973144E-05  0.110E-03    3.54      10.7  T
   5   -113.0547098 -0.337476E-07  0.632E-04    3.54      18.7  T
   6   -113.0547098 -0.511081E-08  0.266E-04    3.54      44.4  T
     SCC iter.                  ...        0 min,  0.112 sec
     gradient                   ...        0 min,  0.122 sec
 * total energy  :  -111.3029299 Eh     change       -0.6819918E-04 Eh
   gradient norm :     0.0023179 Eh/α   predicted    -0.5035958E-04 ( -26.16%)
   displ. norm   :     0.3266006 α      lambda       -0.9873165E-04
   maximum displ.:     0.1595613 α      in ANC's #4, #2, #1, ...

........................................................................
.............................. CYCLE   42 ..............................
........................................................................
   1   -113.0586422 -0.113059E+03  0.493E-02    3.54       0.0  T
   2   -113.0586442 -0.200619E-05  0.289E-02    3.54       1.0  T
   3   -113.0586408  0.342518E-05  0.707E-03    3.54       1.7  T
   4   -113.0586449 -0.414056E-05  0.112E-03    3.54      10.6  T
   5   -113.0586450 -0.591153E-07  0.574E-04    3.54      20.5  T
   6   -113.0586450 -0.524719E-08  0.286E-04    3.54      41.3  T
     SCC iter.                  ...        0 min,  0.111 sec
     gradient                   ...        0 min,  0.122 sec
 * total energy  :  -111.3029850 Eh     change       -0.5513335E-04 Eh
   gradient norm :     0.0056443 Eh/α   predicted    -0.5464165E-04 (  -0.89%)
   displ. norm   :     0.3580939 α      lambda       -0.8161840E-04
   maximum displ.:     0.1714012 α      in ANC's #1, #4, #2, ...
 * RMSD in coord.:     0.7679728 α      energy gain  -0.1529451E-02 Eh

generating ANC from model Hessian ...
Using Lindh-Hessian (1995)
 Shifting diagonal of input Hessian by    9.8893190498785064E-003
 Lowest  eigenvalues of input Hessian
    0.000000    0.000000    0.000000    0.000000    0.000000    0.000000
    0.010000    0.010092    0.010242    0.010267    0.010510    0.010578
    0.010891    0.011116    0.011238    0.011510    0.011802    0.012053
 Highest eigenvalues
    2.029544    2.031435    2.035844    2.319660    2.335906    2.392171


........................................................................
.............................. CYCLE   43 ..............................
........................................................................
   1   -113.0573461 -0.113057E+03  0.531E-02    3.55       0.0  T
   2   -113.0573494 -0.331026E-05  0.313E-02    3.55       1.0  T
   3   -113.0573447  0.468789E-05  0.856E-03    3.55       1.4  T
   4   -113.0573504 -0.563311E-05  0.142E-03    3.55       8.3  T
   5   -113.0573505 -0.109396E-06  0.622E-04    3.55      18.9  T
   6   -113.0573505 -0.870199E-08  0.298E-04    3.55      39.5  T
     SCC iter.                  ...        0 min,  0.111 sec
     gradient                   ...        0 min,  0.136 sec
 * total energy  :  -111.3030296 Eh     change       -0.4455802E-04 Eh
   gradient norm :     0.0030509 Eh/α   predicted     0.0000000E+00 (-100.00%)
   displ. norm   :     0.0441671 α      lambda       -0.4189679E-04
   maximum displ.:     0.0190640 α      in ANC's #3, #4, #14, ...

........................................................................
.............................. CYCLE   44 ..............................
........................................................................
   1   -113.0570662 -0.113057E+03  0.107E-02    3.54       0.0  T
   2   -113.0570664 -0.193567E-06  0.631E-03    3.54       1.9  T
   3   -113.0570662  0.170850E-06  0.179E-03    3.54       6.6  T
   4   -113.0570664 -0.205499E-06  0.370E-04    3.54      31.9  T
   5   -113.0570664 -0.948830E-08  0.145E-04    3.54      81.1  T
     SCC iter.                  ...        0 min,  0.090 sec
     gradient                   ...        0 min,  0.134 sec
 * total energy  :  -111.3030628 Eh     change       -0.3325655E-04 Eh
   gradient norm :     0.0011145 Eh/α   predicted    -0.2100856E-04 ( -36.83%)
   displ. norm   :     0.1890984 α      lambda       -0.6992347E-04
   maximum displ.:     0.0832135 α      in ANC's #3, #4, #2, ...

........................................................................
.............................. CYCLE   45 ..............................
........................................................................
   1   -113.0560677 -0.113056E+03  0.369E-02    3.52       0.0  T
   2   -113.0560688 -0.118505E-05  0.216E-02    3.53       1.0  T
   3   -113.0560675  0.132679E-05  0.461E-03    3.53       2.6  T
   4   -113.0560691 -0.158391E-05  0.995E-04    3.53      11.8  T
   5   -113.0560692 -0.658623E-07  0.437E-04    3.53      27.0  T
   6   -113.0560692 -0.391712E-08  0.228E-04    3.53      51.6  T
     SCC iter.                  ...        0 min,  0.107 sec
     gradient                   ...        0 min,  0.116 sec
 * total energy  :  -111.3031220 Eh     change       -0.5919822E-04 Eh
   gradient norm :     0.0033943 Eh/α   predicted    -0.3556247E-04 ( -39.93%)
   displ. norm   :     0.0834515 α      lambda       -0.3262246E-04
   maximum displ.:     0.0387903 α      in ANC's #3, #4, #2, ...

........................................................................
.............................. CYCLE   46 ..............................
........................................................................
   1   -113.0561787 -0.113056E+03  0.144E-02    3.53       0.0  T
   2   -113.0561788 -0.113221E-06  0.849E-03    3.53       1.4  T
   3   -113.0561786  0.184020E-06  0.155E-03    3.53       7.6  T
   4   -113.0561788 -0.222470E-06  0.321E-04    3.53      36.7  T
   5   -113.0561788 -0.473580E-08  0.163E-04    3.53      72.5  T
     SCC iter.                  ...        0 min,  0.098 sec
     gradient                   ...        0 min,  0.076 sec
 * total energy  :  -111.3031520 Eh     change       -0.2999994E-04 Eh
   gradient norm :     0.0027544 Eh/α   predicted    -0.1643933E-04 ( -45.20%)
   displ. norm   :     0.2978612 α      lambda       -0.1129260E-03
   maximum displ.:     0.1368610 α      in ANC's #3, #4, #2, ...

........................................................................
.............................. CYCLE   47 ..............................
........................................................................
   1   -113.0562648 -0.113056E+03  0.504E-02    3.54       0.0  T
   2   -113.0562663 -0.151502E-05  0.297E-02    3.53       1.0  T
   3   -113.0562638  0.245781E-05  0.566E-03    3.53       2.1  T
   4   -113.0562668 -0.294084E-05  0.113E-03    3.53      10.4  T
   5   -113.0562668 -0.638752E-07  0.544E-04    3.53      21.7  T
   6   -113.0562668 -0.313607E-08  0.232E-04    3.53      50.9  T
     SCC iter.                  ...        0 min,  0.119 sec
     gradient                   ...        0 min,  0.133 sec
 * total energy  :  -111.3032388 Eh     change       -0.8680325E-04 Eh
   gradient norm :     0.0015932 Eh/α   predicted    -0.6147351E-04 ( -29.18%)
   displ. norm   :     0.4959541 α      lambda       -0.8458032E-04
   maximum displ.:     0.2310068 α      in ANC's #3, #4, #2, ...

........................................................................
.............................. CYCLE   48 ..............................
........................................................................
   1   -113.0553294 -0.113055E+03  0.817E-02    3.54       0.0  T
   2   -113.0553325 -0.313094E-05  0.481E-02    3.53       1.0  T
   3   -113.0553274  0.511475E-05  0.816E-03    3.53       1.4  T
   4   -113.0553335 -0.613811E-05  0.166E-03    3.53       7.1  T
   5   -113.0553337 -0.128292E-06  0.813E-04    3.53      14.5  T
   6   -113.0553337 -0.553422E-08  0.314E-04    3.53      37.5  T
     SCC iter.                  ...        0 min,  0.107 sec
     gradient                   ...        0 min,  0.140 sec
 * total energy  :  -111.3033161 Eh     change       -0.7729678E-04 Eh
   gradient norm :     0.0037360 Eh/α   predicted    -0.4693216E-04 ( -39.28%)
   displ. norm   :     0.1395254 α      lambda       -0.4399555E-04
   maximum displ.:     0.0670987 α      in ANC's #3, #4, #2, ...

........................................................................
.............................. CYCLE   49 ..............................
........................................................................
   1   -113.0564562 -0.113056E+03  0.220E-02    3.53       0.0  T
   2   -113.0564565 -0.225521E-06  0.129E-02    3.53       1.0  T
   3   -113.0564563  0.180541E-06  0.182E-03    3.53       6.5  T
   4   -113.0564565 -0.234603E-06  0.417E-04    3.53      28.3  T
   5   -113.0564565 -0.629274E-08  0.220E-04    3.53      53.5  T
     SCC iter.                  ...        0 min,  0.090 sec
     gradient                   ...        0 min,  0.148 sec
 * total energy  :  -111.3033540 Eh     change       -0.3784418E-04 Eh
   gradient norm :     0.0024326 Eh/α   predicted    -0.2242665E-04 ( -40.74%)
   displ. norm   :     0.2970965 α      lambda       -0.8542329E-04
   maximum displ.:     0.1454810 α      in ANC's #3, #4, #2, ...

........................................................................
.............................. CYCLE   50 ..............................
........................................................................
   1   -113.0576381 -0.113058E+03  0.461E-02    3.52       0.0  T
   2   -113.0576389 -0.877519E-06  0.271E-02    3.52       1.0  T
   3   -113.0576384  0.564869E-06  0.338E-03    3.52       3.5  T
   4   -113.0576391 -0.769115E-06  0.830E-04    3.52      14.2  T
   5   -113.0576392 -0.227359E-07  0.439E-04    3.52      26.8  T
     SCC iter.                  ...        0 min,  0.089 sec
     gradient                   ...        0 min,  0.130 sec
 * total energy  :  -111.3034169 Eh     change       -0.6294202E-04 Eh
   gradient norm :     0.0013353 Eh/α   predicted    -0.4649111E-04 ( -26.14%)
   displ. norm   :     0.4260456 α      lambda       -0.5188760E-04
   maximum displ.:     0.2146516 α      in ANC's #3, #4, #2, ...

........................................................................
.............................. CYCLE   51 ..............................
........................................................................
   1   -113.0571661 -0.113057E+03  0.654E-02    3.51       0.0  T
   2   -113.0571672 -0.112603E-05  0.384E-02    3.51       1.0  T
   3   -113.0571665  0.742347E-06  0.384E-03    3.51       3.1  T
   4   -113.0571676 -0.106389E-05  0.108E-03    3.51      10.9  T
   5   -113.0571676 -0.331607E-07  0.566E-04    3.51      20.8  T
   6   -113.0571676 -0.334963E-08  0.199E-04    3.51      59.1  T
     SCC iter.                  ...        0 min,  0.109 sec
     gradient                   ...        0 min,  0.131 sec
 * total energy  :  -111.3034681 Eh     change       -0.5115419E-04 Eh
   gradient norm :     0.0029483 Eh/α   predicted    -0.2803779E-04 ( -45.19%)
   displ. norm   :     0.1516063 α      lambda       -0.4019442E-04
   maximum displ.:     0.0796932 α      in ANC's #4, #3, #2, ...

........................................................................
.............................. CYCLE   52 ..............................
........................................................................
   1   -113.0578932 -0.113058E+03  0.249E-02    3.51       0.0  T
   2   -113.0578934 -0.191789E-06  0.146E-02    3.51       1.0  T
   3   -113.0578930  0.457400E-06  0.237E-03    3.51       5.0  T
   4   -113.0578935 -0.548070E-06  0.414E-04    3.51      28.4  T
   5   -113.0578935 -0.390074E-08  0.213E-04    3.51      55.4  T
     SCC iter.                  ...        0 min,  0.094 sec
     gradient                   ...        0 min,  0.128 sec
 * total energy  :  -111.3035032 Eh     change       -0.3518628E-04 Eh
   gradient norm :     0.0025926 Eh/α   predicted    -0.2057671E-04 ( -41.52%)
   displ. norm   :     0.3540505 α      lambda       -0.9684692E-04
   maximum displ.:     0.1836625 α      in ANC's #4, #3, #2, ...

........................................................................
.............................. CYCLE   53 ..............................
........................................................................
   1   -113.0579686 -0.113058E+03  0.583E-02    3.51       0.0  T
   2   -113.0579694 -0.838996E-06  0.342E-02    3.51       1.0  T
   3   -113.0579665  0.289640E-05  0.605E-03    3.51       1.9  T
   4   -113.0579699 -0.342729E-05  0.827E-04    3.51      14.3  T
   5   -113.0579700 -0.874600E-08  0.461E-04    3.51      25.6  T
   6   -113.0579700 -0.403607E-08  0.129E-04    3.51      91.5  T
     SCC iter.                  ...        0 min,  0.109 sec
     gradient                   ...        0 min,  0.133 sec
 * total energy  :  -111.3035870 Eh     change       -0.8380395E-04 Eh
   gradient norm :     0.0020183 Eh/α   predicted    -0.5449470E-04 ( -34.97%)
   displ. norm   :     0.5185549 α      lambda       -0.1277253E-03
   maximum displ.:     0.2683122 α      in ANC's #4, #3, #2, ...

........................................................................
.............................. CYCLE   54 ..............................
........................................................................
   1   -113.0562078 -0.113056E+03  0.860E-02    3.51       0.0  T
   2   -113.0562099 -0.211890E-05  0.505E-02    3.51       1.0  T
   3   -113.0562025  0.743448E-05  0.981E-03    3.51       1.2  T
   4   -113.0562112 -0.872890E-05  0.121E-03    3.51       9.7  T
   5   -113.0562112 -0.260702E-07  0.672E-04    3.51      17.5  T
   6   -113.0562112 -0.698886E-08  0.240E-04    3.51      49.1  T
     SCC iter.                  ...        0 min,  0.112 sec
     gradient                   ...        0 min,  0.112 sec
 * total energy  :  -111.3036867 Eh     change       -0.9969039E-04 Eh
   gradient norm :     0.0023983 Eh/α   predicted    -0.8105250E-04 ( -18.70%)
   displ. norm   :     0.4522015 α      lambda       -0.9939605E-04
   maximum displ.:     0.2297595 α      in ANC's #4, #3, #2, ...

........................................................................
.............................. CYCLE   55 ..............................
........................................................................
   1   -113.0553330 -0.113055E+03  0.769E-02    3.51       0.0  T
   2   -113.0553353 -0.220533E-05  0.451E-02    3.51       1.0  T
   3   -113.0553273  0.790548E-05  0.100E-02    3.51       1.2  T
   4   -113.0553366 -0.923541E-05  0.114E-03    3.51      10.3  T
   5   -113.0553366 -0.314616E-07  0.628E-04    3.51      18.8  T
   6   -113.0553366 -0.544954E-08  0.250E-04    3.51      47.1  T
     SCC iter.                  ...        0 min,  0.107 sec
     gradient                   ...        0 min,  0.040 sec
 * total energy  :  -111.3037577 Eh     change       -0.7097106E-04 Eh
   gradient norm :     0.0027903 Eh/α   predicted    -0.5986152E-04 ( -15.65%)
   displ. norm   :     0.2962300 α      lambda       -0.6468791E-04
   maximum displ.:     0.1476510 α      in ANC's #4, #3, #2, ...

........................................................................
.............................. CYCLE   56 ..............................
........................................................................
   1   -113.0560218 -0.113056E+03  0.487E-02    3.51       0.0  T
   2   -113.0560228 -0.100500E-05  0.286E-02    3.51       1.0  T
   3   -113.0560194  0.340602E-05  0.653E-03    3.51       1.8  T
   4   -113.0560234 -0.398461E-05  0.775E-04    3.51      15.2  T
   5   -113.0560234 -0.163397E-07  0.421E-04    3.51      28.0  T
   6   -113.0560234 -0.221175E-08  0.170E-04    3.51      69.4  T
     SCC iter.                  ...        0 min,  0.105 sec
     gradient                   ...        0 min,  0.137 sec
 * total energy  :  -111.3038069 Eh     change       -0.4919567E-04 Eh
   gradient norm :     0.0024175 Eh/α   predicted    -0.3518869E-04 ( -28.47%)
   displ. norm   :     0.3468045 α      lambda       -0.6988517E-04
   maximum displ.:     0.1803631 α      in ANC's #4, #3, #2, ...

........................................................................
.............................. CYCLE   57 ..............................
........................................................................
   1   -113.0557701 -0.113056E+03  0.518E-02    3.51       0.0  T
   2   -113.0557708 -0.762502E-06  0.304E-02    3.51       1.0  T
   3   -113.0557683  0.252406E-05  0.579E-03    3.51       2.0  T
   4   -113.0557713 -0.297949E-05  0.756E-04    3.51      15.6  T
   5   -113.0557713 -0.850655E-08  0.409E-04    3.51      28.8  T
   6   -113.0557713 -0.266721E-08  0.152E-04    3.51      77.3  T
     SCC iter.                  ...        0 min,  0.113 sec
     gradient                   ...        0 min,  0.143 sec
 * total energy  :  -111.3038579 Eh     change       -0.5102907E-04 Eh
   gradient norm :     0.0023793 Eh/α   predicted    -0.3914539E-04 ( -23.29%)
   displ. norm   :     0.2270088 α      lambda       -0.7890021E-04
   maximum displ.:     0.0998729 α      in ANC's #4, #3, #2, ...

........................................................................
.............................. CYCLE   58 ..............................
........................................................................
   1   -113.0592669 -0.113059E+03  0.320E-02    3.52       0.0  T
   2   -113.0592678 -0.898226E-06  0.187E-02    3.51       1.0  T
   3   -113.0592671  0.740993E-06  0.352E-03    3.51       3.3  T
   4   -113.0592680 -0.950617E-06  0.971E-04    3.51      12.1  T
   5   -113.0592680 -0.439589E-07  0.448E-04    3.51      26.3  T
     SCC iter.                  ...        0 min,  0.091 sec
     gradient                   ...        0 min,  0.130 sec
 * total energy  :  -111.3038831 Eh     change       -0.2519888E-04 Eh
   gradient norm :     0.0032844 Eh/α   predicted    -0.4148842E-04 (  64.64%)
   displ. norm   :     0.3029636 α      lambda       -0.6433895E-04
   maximum displ.:     0.1627919 α      in ANC's #3, #4, #2, ...

........................................................................
.............................. CYCLE   59 ..............................
........................................................................
   1   -113.0556806 -0.113056E+03  0.429E-02    3.51       0.0  T
   2   -113.0556814 -0.839955E-06  0.251E-02    3.51       1.0  T
   3   -113.0556806  0.796180E-06  0.430E-03    3.51       2.7  T
   4   -113.0556816 -0.995973E-06  0.850E-04    3.51      13.9  T
   5   -113.0556817 -0.216687E-07  0.387E-04    3.51      30.5  T
     SCC iter.                  ...        0 min,  0.090 sec
     gradient                   ...        0 min,  0.127 sec
 * total energy  :  -111.3039158 Eh     change       -0.3265595E-04 Eh
   gradient norm :     0.0028171 Eh/α   predicted    -0.3512500E-04 (   7.56%)
   displ. norm   :     0.0464126 α      lambda       -0.2172703E-04
   maximum displ.:     0.0249443 α      in ANC's #9, #13, #14, ...

........................................................................
.............................. CYCLE   60 ..............................
........................................................................
   1   -113.0559093 -0.113056E+03  0.111E-02    3.51       0.0  T
   2   -113.0559094 -0.803344E-07  0.650E-03    3.51       1.8  T
   3   -113.0559092  0.202600E-06  0.175E-03    3.51       6.8  T
   4   -113.0559095 -0.243172E-06  0.233E-04    3.51      50.6  T
   5   -113.0559095 -0.159167E-08  0.124E-04    3.51      95.4  T
     SCC iter.                  ...        0 min,  0.091 sec
     gradient                   ...        0 min,  0.148 sec
 * total energy  :  -111.3039336 Eh     change       -0.1785690E-04 Eh
   gradient norm :     0.0019247 Eh/α   predicted    -0.1088747E-04 ( -39.03%)
   displ. norm   :     0.2869523 α      lambda       -0.4114039E-04
   maximum displ.:     0.1503953 α      in ANC's #4, #3, #2, ...

........................................................................
.............................. CYCLE   61 ..............................
........................................................................
   1   -113.0554469 -0.113055E+03  0.407E-02    3.51       0.0  T
   2   -113.0554475 -0.602824E-06  0.239E-02    3.51       1.0  T
   3   -113.0554464  0.116407E-05  0.407E-03    3.50       2.9  T
   4   -113.0554478 -0.144180E-05  0.755E-04    3.50      15.6  T
   5   -113.0554478 -0.104173E-07  0.390E-04    3.50      30.2  T
   6   -113.0554478 -0.138529E-08  0.153E-04    3.50      77.1  T
     SCC iter.                  ...        0 min,  0.107 sec
     gradient                   ...        0 min,  0.130 sec
 * total energy  :  -111.3039604 Eh     change       -0.2676627E-04 Eh
   gradient norm :     0.0020390 Eh/α   predicted    -0.2132597E-04 ( -20.33%)
   displ. norm   :     0.0735334 α      lambda       -0.9198714E-05
   maximum displ.:     0.0405231 α      in ANC's #4, #3, #2, ...

........................................................................
.............................. CYCLE   62 ..............................
........................................................................
   1   -113.0559405 -0.113056E+03  0.113E-02    3.51       0.0  T
   2   -113.0559406 -0.589983E-07  0.662E-03    3.51       1.8  T
   3   -113.0559404  0.130469E-06  0.132E-03    3.51       9.0  T
   4   -113.0559406 -0.154171E-06  0.209E-04    3.51      56.3  T
   5   -113.0559406 -0.198492E-08  0.101E-04    3.51     116.5  T
     SCC iter.                  ...        0 min,  0.091 sec
     gradient                   ...        0 min,  0.126 sec
 * total energy  :  -111.3039680 Eh     change       -0.7626142E-05 Eh
   gradient norm :     0.0012854 Eh/α   predicted    -0.4627140E-05 ( -39.33%)
   displ. norm   :     0.3348338 α      lambda       -0.1991648E-04
   maximum displ.:     0.1907772 α      in ANC's #4, #3, #2, ...

........................................................................
.............................. CYCLE   63 ..............................
........................................................................
   1   -113.0565328 -0.113057E+03  0.521E-02    3.51       0.0  T
   2   -113.0565338 -0.948061E-06  0.305E-02    3.51       1.0  T
   3   -113.0565312  0.252048E-05  0.587E-03    3.51       2.0  T
   4   -113.0565342 -0.296576E-05  0.790E-04    3.51      14.9  T
   5   -113.0565342 -0.228591E-07  0.405E-04    3.51      29.1  T
   6   -113.0565342 -0.250328E-08  0.161E-04    3.51      73.1  T
     SCC iter.                  ...        0 min,  0.112 sec
     gradient                   ...        0 min,  0.147 sec
 * total energy  :  -111.3039809 Eh     change       -0.1282383E-04 Eh
   gradient norm :     0.0020288 Eh/α   predicted    -0.1045634E-04 ( -18.46%)
   displ. norm   :     0.0300275 α      lambda       -0.6753010E-05
   maximum displ.:     0.0120268 α      in ANC's #4, #9, #13, ...

........................................................................
.............................. CYCLE   64 ..............................
........................................................................
   1   -113.0570050 -0.113057E+03  0.593E-03    3.51       0.0  T
   2   -113.0570050 -0.300649E-07  0.348E-03    3.51       3.4  T
   3   -113.0570050  0.430589E-07  0.943E-04    3.51      12.5  T
   4   -113.0570050 -0.537031E-07  0.144E-04    3.51      81.8  T
     SCC iter.                  ...        0 min,  0.073 sec
     gradient                   ...        0 min,  0.137 sec
 * total energy  :  -111.3039861 Eh     change       -0.5275311E-05 Eh
   gradient norm :     0.0014778 Eh/α   predicted    -0.3383156E-05 ( -35.87%)
   displ. norm   :     0.2385442 α      lambda       -0.1530785E-04
   maximum displ.:     0.1368463 α      in ANC's #4, #3, #2, ...

........................................................................
.............................. CYCLE   65 ..............................
........................................................................
   1   -113.0562174 -0.113056E+03  0.398E-02    3.50       0.0  T
   2   -113.0562182 -0.768840E-06  0.233E-02    3.50       1.0  T
   3   -113.0562177  0.513247E-06  0.302E-03    3.50       3.9  T
   4   -113.0562184 -0.674145E-06  0.784E-04    3.50      15.0  T
   5   -113.0562184 -0.296813E-07  0.387E-04    3.50      30.4  T
     SCC iter.                  ...        0 min,  0.095 sec
     gradient                   ...        0 min,  0.122 sec
 * total energy  :  -111.3039971 Eh     change       -0.1093662E-04 Eh
   gradient norm :     0.0015110 Eh/α   predicted    -0.7847836E-05 ( -28.24%)
   displ. norm   :     0.2385131 α      lambda        0.1733076E-04
   maximum displ.:     0.1368467 α      in ANC's #4, #3, #2, ...

........................................................................
.............................. CYCLE   66 ..............................
........................................................................
   1   -113.0549616 -0.113055E+03  0.398E-02    3.48       0.0  T
   2   -113.0549624 -0.785797E-06  0.233E-02    3.48       1.0  T
   3   -113.0549619  0.484306E-06  0.302E-03    3.48       3.9  T
   4   -113.0549626 -0.648931E-06  0.767E-04    3.48      15.4  T
   5   -113.0549626 -0.261048E-07  0.390E-04    3.48      30.2  T
     SCC iter.                  ...        0 min,  0.095 sec
     gradient                   ...        0 min,  0.133 sec
 * total energy  :  -111.3039836 Eh     change        0.1343855E-04 Eh
   gradient norm :     0.0039948 Eh/α   predicted     0.8884366E-05 ( -33.89%)
   displ. norm   :     0.0836207 α      lambda       -0.2396297E-04
   maximum displ.:     0.0420145 α      in ANC's #4, #3, #2, ...
 * RMSD in coord.:     0.6087718 α      energy gain  -0.9986309E-03 Eh

generating ANC from model Hessian ...
Using Lindh-Hessian (1995)
 Shifting diagonal of input Hessian by    9.8884339342783113E-003
[...]
        89        2.0000           -0.4224836             -11.4964
        90        2.0000           -0.4188844             -11.3984
        91        2.0000           -0.4147548             -11.2861
        92        2.0000           -0.4130570             -11.2399
        93        2.0000           -0.4078727             -11.0988
        94        2.0000           -0.4047020             -11.0125
        95        2.0000           -0.3998345             -10.8801
        96        2.0000           -0.3987157             -10.8496
        97        2.0000           -0.3969371             -10.8012
        98        2.0000           -0.3954383             -10.7604
        99        2.0000           -0.3909162             -10.6374
       100        2.0000           -0.3897825             -10.6065
       101        2.0000           -0.3880012             -10.5581 (HOMO)
       102                         -0.2593173              -7.0564 (LUMO)
       103                         -0.2479870              -6.7481
       104                         -0.2418591              -6.5813
       105                         -0.2351967              -6.4000
       106                         -0.2321968              -6.3184
       107                         -0.2312527              -6.2927
       108                         -0.2300773              -6.2607
       109                         -0.2230626              -6.0698
       110                         -0.2173824              -5.9153
       111                         -0.1996670              -5.4332
       112                         -0.1896084              -5.1595
       ...                                ...                  ...
       192                          0.6687612              18.1979
      -------------------------------------------------------------
                  HL-Gap            0.1286839 Eh            3.5017 eV
             Fermi-level           -0.3236592 Eh           -8.8072 eV

     #   Z          covCN         q      C6AA      α(0)
     1   8 O        0.859    -0.438    22.446     6.352
     2   6 C        2.764     0.272    22.406     7.752
     3   6 C        2.975    -0.016    28.408     8.743
     4   6 C        2.928    -0.045    29.111     8.848
     5   6 C        2.965     0.019    27.593     8.616
     6   6 C        3.758    -0.109    22.643     6.784
     7   6 C        2.931    -0.049    29.220     8.865
     8   6 C        2.965     0.020    27.569     8.612
     9   6 C        3.758    -0.111    22.664     6.787
    10   6 C        2.930    -0.037    28.923     8.820
    11   7 N        2.767    -0.116    23.517     7.202
    12   6 C        3.785     0.093    19.061     6.219
    13   6 C        2.689     0.358    20.921     7.486
    14   8 O        1.659    -0.356    20.023     6.041
    15   8 O        0.856    -0.390    21.473     6.213
    16   7 N        2.762    -0.124    23.686     7.228
    17   6 C        2.766     0.272    22.405     7.752
    18   6 C        2.972    -0.024    28.592     8.771
    19   6 C        2.931    -0.036    28.894     8.816
    20   6 C        2.964     0.020    27.560     8.611
    21   6 C        3.758    -0.110    22.661     6.787
    22   6 C        2.931    -0.046    29.143     8.853
    23   6 C        2.965     0.022    27.501     8.602
    24   6 C        3.758    -0.113    22.711     6.794
    25   6 C        2.927    -0.051    29.259     8.871
    26   8 O        0.859    -0.423    22.135     6.308
    27   6 C        3.845     0.037    19.918     6.348
    28   6 C        2.971     0.003    27.955     8.673
    29   6 C        2.925    -0.038    28.946     8.823
    30   6 C        2.920    -0.028    28.709     8.787
    31   6 C        2.920    -0.031    28.781     8.798
    32   6 C        2.920    -0.028    28.689     8.784
    33   6 C        2.923    -0.033    28.816     8.803
    34   6 C        3.818     0.034    19.987     6.363
    35   6 C        2.973     0.000    28.020     8.683
    36   6 C        2.924    -0.028    28.690     8.784
    37   6 C        2.920    -0.026    28.646     8.777
    38   6 C        2.921    -0.029    28.727     8.789
    39   6 C        2.920    -0.027    28.673     8.781
    40   6 C        2.924    -0.034    28.852     8.809
    41   1 H        0.926     0.031     2.572     2.508
    42   1 H        0.925     0.041     2.430     2.438
    43   1 H        0.925     0.047     2.363     2.404
    44   1 H        0.925     0.051     2.312     2.378
    45   1 H        0.925     0.035     2.513     2.479
    46   1 H        0.925     0.051     2.303     2.373
    47   1 H        0.925     0.048     2.341     2.393
    48   1 H        0.925     0.044     2.396     2.421
    49   1 H        0.926     0.039     2.466     2.456
    50   1 H        0.924     0.095     1.828     2.114
    51   1 H        0.804     0.341     0.611     1.228
    52   1 H        0.926     0.043     2.405     2.425
    53   1 H        0.925     0.046     2.368     2.406
    54   1 H        0.924     0.050     2.320     2.382
    55   1 H        0.925     0.046     2.372     2.408
    56   1 H        0.925     0.036     2.498     2.472
    57   1 H        0.925     0.046     2.375     2.410
    58   1 H        0.925     0.054     2.275     2.359
    59   1 H        0.924     0.051     2.308     2.376
    60   1 H        0.926     0.052     2.296     2.369
    61   1 H        0.923     0.086     1.915     2.164
    62   1 H        0.926     0.031     2.575     2.509
    63   1 H        0.926     0.035     2.513     2.479
    64   1 H        0.926     0.035     2.511     2.478
    65   1 H        0.926     0.039     2.467     2.456
    66   1 H        0.926     0.040     2.448     2.447
    67   1 H        0.924     0.055     2.263     2.352
    68   1 H        0.926     0.034     2.535     2.490
    69   1 H        0.926     0.039     2.463     2.454
    70   1 H        0.926     0.036     2.502     2.473
    71   1 H        0.926     0.037     2.493     2.469
    72   1 H        0.926     0.030     2.587     2.515

 Mol. C6AA /au·bohr⁶  :      63048.739650
 Mol. C8AA /au·bohr⁸  :    1525622.745788
 Mol. α(0) /au        :        394.816795


Wiberg/Mayer (AO) data.
largest (>0.10) Wiberg bond orders for each atom

 ---------------------------------------------------------------------------
     #   Z sym  total        # sym  WBO       # sym  WBO       # sym  WBO
 ---------------------------------------------------------------------------
     1   8 O    2.004 --     2 C    1.681    11 N    0.188
     2   6 C    3.943 --     1 O    1.681    11 N    1.209     3 C    0.967
     3   6 C    3.987 --    10 C    1.418     4 C    1.392     2 C    0.967
                             7 C    0.104
     4   6 C    3.989 --     5 C    1.423     3 C    1.392    41 H    0.967
                             8 C    0.103
     5   6 C    3.989 --     4 C    1.423     7 C    1.401     6 C    1.025
                            10 C    0.105
     6   6 C    3.995 --     5 C    1.025    42 H    0.985    43 H    0.976
                            44 H    0.970
     7   6 C    3.990 --     8 C    1.426     5 C    1.401    45 H    0.968
                             3 C    0.104
     8   6 C    3.988 --     7 C    1.426    10 C    1.400     9 C    1.025
                             4 C    0.103
     9   6 C    3.995 --     8 C    1.025    48 H    0.986    46 H    0.973
                            47 H    0.970
    10   6 C    3.989 --     3 C    1.418     8 C    1.400    49 H    0.969
                             5 C    0.105
    11   7 N    3.468 --     2 C    1.209    12 C    0.980    34 C    0.964
                             1 O    0.188
    12   6 C    3.968 --    16 N    0.986    11 N    0.980    50 H    0.932
                            13 C    0.915
    13   6 C    3.916 --    15 O    1.773    14 O    1.160    12 C    0.915
    14   8 O    2.226 --    13 C    1.160    51 H    0.858    15 O    0.181
    15   8 O    2.059 --    13 C    1.773    14 O    0.181
    16   7 N    3.439 --    17 C    1.164    12 C    0.986    27 C    0.972
                            26 O    0.175
    17   6 C    3.939 --    26 O    1.694    16 N    1.164    18 C    0.994
    18   6 C    3.987 --    25 C    1.395    19 C    1.392    17 C    0.994
                            22 C    0.101
    19   6 C    3.989 --    20 C    1.417    18 C    1.392    52 H    0.967
                            23 C    0.103
    20   6 C    3.988 --    19 C    1.417    22 C    1.409    21 C    1.025
                            25 C    0.103
    21   6 C    3.995 --    20 C    1.025    53 H    0.983    55 H    0.980
                            54 H    0.967
    22   6 C    3.990 --    23 C    1.415    20 C    1.409    56 H    0.968
                            18 C    0.101
    23   6 C    3.989 --    22 C    1.415    25 C    1.410    24 C    1.026
                            19 C    0.103
    24   6 C    3.994 --    23 C    1.026    58 H    0.981    57 H    0.981
                            59 H    0.966
    25   6 C    3.989 --    23 C    1.410    18 C    1.395    60 H    0.962
                            20 C    0.103
    26   8 O    2.023 --    17 C    1.694    16 N    0.175
    27   6 C    3.964 --    28 C    0.990    16 N    0.972    34 C    0.946
                            61 H    0.938
    28   6 C    3.985 --    33 C    1.418    29 C    1.404    27 C    0.990
                            31 C    0.109
    29   6 C    3.991 --    30 C    1.451    28 C    1.404    62 H    0.968
                            32 C    0.112
    30   6 C    3.992 --    29 C    1.451    31 C    1.433    63 H    0.971
                            33 C    0.110
    31   6 C    3.992 --    32 C    1.444    30 C    1.433    64 H    0.971
                            28 C    0.109
    32   6 C    3.992 --    31 C    1.444    33 C    1.438    65 H    0.971
                            29 C    0.112
    33   6 C    3.991 --    32 C    1.438    28 C    1.418    66 H    0.966
                            30 C    0.110
    34   6 C    3.967 --    35 C    0.992    11 N    0.964    67 H    0.952
                            27 C    0.946
    35   6 C    3.987 --    40 C    1.414    36 C    1.407    34 C    0.992
                            38 C    0.109
    36   6 C    3.992 --    37 C    1.449    35 C    1.407    68 H    0.969
                            39 C    0.111
    37   6 C    3.992 --    36 C    1.449    38 C    1.435    69 H    0.971
                            40 C    0.110
    38   6 C    3.990 --    39 C    1.440    37 C    1.435    70 H    0.971
                            35 C    0.109
    39   6 C    3.992 --    40 C    1.442    38 C    1.440    71 H    0.971
                            36 C    0.111
    40   6 C    3.990 --    39 C    1.442    35 C    1.414    72 H    0.968
                            37 C    0.110
    41   1 H    0.999 --     4 C    0.967
    42   1 H    0.998 --     6 C    0.985
    43   1 H    0.998 --     6 C    0.976
    44   1 H    0.997 --     6 C    0.970
    45   1 H    0.998 --     7 C    0.968
    46   1 H    0.997 --     9 C    0.973
    47   1 H    0.998 --     9 C    0.970
    48   1 H    0.998 --     9 C    0.986
    49   1 H    0.998 --    10 C    0.969
    50   1 H    0.990 --    12 C    0.932
    51   1 H    0.883 --    14 O    0.858
    52   1 H    0.998 --    19 C    0.967
    53   1 H    0.998 --    21 C    0.983
    54   1 H    0.997 --    21 C    0.967
    55   1 H    0.998 --    21 C    0.980
    56   1 H    0.998 --    22 C    0.968
    57   1 H    0.998 --    24 C    0.981
    58   1 H    0.997 --    24 C    0.981
    59   1 H    0.997 --    24 C    0.966
    60   1 H    0.997 --    25 C    0.962
    61   1 H    0.992 --    27 C    0.938
    62   1 H    0.999 --    29 C    0.968
    63   1 H    0.998 --    30 C    0.971
    64   1 H    0.998 --    31 C    0.971
    65   1 H    0.998 --    32 C    0.971
    66   1 H    0.998 --    33 C    0.966
    67   1 H    0.996 --    34 C    0.952
    68   1 H    0.999 --    36 C    0.969
    69   1 H    0.998 --    37 C    0.971
    70   1 H    0.998 --    38 C    0.971
    71   1 H    0.998 --    39 C    0.971
    72   1 H    0.999 --    40 C    0.968
 ---------------------------------------------------------------------------

Topologies differ in total number of bonds
Writing topology from bond orders to xtbtopo.mol

molecular dipole:
                 x           y           z       tot (Debye)
 q only:       -1.312       0.661      -0.441
   full:       -1.370       0.651      -0.620       4.166
molecular quadrupole (traceless):
                xx          xy          yy          xz          yz          zz
 q only:       10.283      -9.255      -0.079      -4.576     -22.102     -10.204
  q+dip:       12.440     -13.064      -0.111      -9.149     -32.362     -12.329
   full:        9.748      -9.783      -0.054      -6.120     -26.599      -9.694

           -------------------------------------------------
          |                Geometry Summary                 |
           -------------------------------------------------

      molecular mass/u    :      532.6301507
   center of mass at/Å    :        0.1794319       0.1063449      -0.0653130
  moments of inertia/u·Å² :        0.4133668E+04   0.6400482E+04   0.8066278E+04
rotational constants/cm⁻¹ :        0.4078130E-02   0.2633807E-02   0.2089890E-02

 * 66 selected distances

     #   Z          #   Z                                           value/Å
     1   8 O        2   6 C                                       1.2153419
     3   6 C        4   6 C                                       1.3894386
     4   6 C        5   6 C                                       1.3854883
     5   6 C        7   6 C                                       1.3905540
     7   6 C        8   6 C                                       1.3856456
     3   6 C       10   6 C                                       1.3850749
     8   6 C       10   6 C                                       1.3891121
     2   6 C       11   7 N                                       1.3580414
    11   7 N       12   6 C                                       1.4440043
    13   6 C       14   8 O                                       1.3286758
    13   6 C       15   8 O                                       1.1992963
    12   6 C       16   7 N                                       1.4390599
    16   7 N       17   6 C                                       1.3745750
    18   6 C       19   6 C                                       1.3911712
    19   6 C       20   6 C                                       1.3862638
    20   6 C       22   6 C                                       1.3894308
    22   6 C       23   6 C                                       1.3882608
    18   6 C       25   6 C                                       1.3897946
    23   6 C       25   6 C                                       1.3882612
    17   6 C       26   8 O                                       1.2143254
    16   7 N       27   6 C                                       1.4537665
    28   6 C       29   6 C                                       1.3905665
    29   6 C       30   6 C                                       1.3826785
    30   6 C       31   6 C                                       1.3848593
    31   6 C       32   6 C                                       1.3834428
    28   6 C       33   6 C                                       1.3876293
    32   6 C       33   6 C                                       1.3847860
    11   7 N       34   6 C                                       1.4544955 (max)
    35   6 C       36   6 C                                       1.3897255
    36   6 C       37   6 C                                       1.3819496
    37   6 C       38   6 C                                       1.3847923
    38   6 C       39   6 C                                       1.3836408
    35   6 C       40   6 C                                       1.3873447
    39   6 C       40   6 C                                       1.3829559
     4   6 C       41   1 H                                       1.0809346
     6   6 C       42   1 H                                       1.0870910
     6   6 C       43   1 H                                       1.0887164
     6   6 C       44   1 H                                       1.0897140
     7   6 C       45   1 H                                       1.0812901
     9   6 C       46   1 H                                       1.0885964
     9   6 C       47   1 H                                       1.0895624
     9   6 C       48   1 H                                       1.0868538
    10   6 C       49   1 H                                       1.0797410
    12   6 C       50   1 H                                       1.0976093
    14   8 O       51   1 H                                       0.9713131 (min)
    19   6 C       52   1 H                                       1.0803133
    21   6 C       53   1 H                                       1.0870941
    21   6 C       54   1 H                                       1.0905318
    21   6 C       55   1 H                                       1.0876502
    22   6 C       56   1 H                                       1.0813394
    24   6 C       57   1 H                                       1.0875518
    24   6 C       58   1 H                                       1.0871219
    24   6 C       59   1 H                                       1.0904273
    25   6 C       60   1 H                                       1.0787637
    27   6 C       61   1 H                                       1.0982585
    29   6 C       62   1 H                                       1.0804271
    30   6 C       63   1 H                                       1.0800123
    31   6 C       64   1 H                                       1.0798405
    32   6 C       65   1 H                                       1.0797410
    33   6 C       66   1 H                                       1.0791829
    34   6 C       67   1 H                                       1.0958080
    36   6 C       68   1 H                                       1.0804928
    37   6 C       69   1 H                                       1.0798341
    38   6 C       70   1 H                                       1.0799382
    39   6 C       71   1 H                                       1.0797281
    40   6 C       72   1 H                                       1.0804124

 * 5 distinct bonds (by element types)

   Z      Z             #   av. dist./Å        max./Å        min./Å
   1 H    6 C          31     1.0849864     1.0982585     1.0787637
   6 C    6 C          24     1.3867861     1.3911712     1.3819496
   6 C    7 N           6     1.4206571     1.4544955     1.3580414
   1 H    8 O           1     0.9713131     0.9713131     0.9713131
   6 C    8 O           4     1.2394098     1.3286758     1.1992963


optimized geometry written to: xtbopt.xyz


           -------------------------------------------------
          | TOTAL ENERGY             -111.304008210802 Eh   |
          | GRADIENT NORM               0.000489177022 Eh/α |
          | HOMO-LUMO GAP               3.501668011243 eV   |
           -------------------------------------------------

------------------------------------------------------------------------
 * finished run on 2022/03/17 at 00:15:57.359     
------------------------------------------------------------------------
 total:
 * wall-time:     0 d,  0 h,  0 min, 26.977 sec
 *  cpu-time:     0 d,  0 h, 10 min, 40.978 sec
 * ratio c/w:    23.760 speedup
 SCF:
 * wall-time:     0 d,  0 h,  0 min,  0.417 sec
 *  cpu-time:     0 d,  0 h,  0 min,  7.251 sec
 * ratio c/w:    17.400 speedup
 ANC optimizer:
 * wall-time:     0 d,  0 h,  0 min, 26.410 sec
 *  cpu-time:     0 d,  0 h, 10 min, 29.610 sec
 * ratio c/w:    23.839 speedup

