      -----------------------------------------------------------      
     |                   =====================                   |     
     |                           x T B                           |     
     |                   =====================                   |     
     |                         S. Grimme                         |     
     |          Mulliken Center for Theoretical Chemistry        |     
     |                    University of Bonn                     |     
      -----------------------------------------------------------      

   * xtb version 6.3.3 (4ae9cef) compiled by 'conda@95abc7406d43' on 2020-10-14

   xtb is free software: you can redistribute it and/or modify it under
   the terms of the GNU Lesser General Public License as published by
   the Free Software Foundation, either version 3 of the License, or
   (at your option) any later version.
   
   xtb is distributed in the hope that it will be useful,
   but WITHOUT ANY WARRANTY; without even the implied warranty of
   MERCHANTABILITY or FITNESS FOR A PARTICULAR PURPOSE.  See the
   GNU Lesser General Public License for more details.
   
   Cite this work as:
   * C. Bannwarth, E. Caldeweyher, S. Ehlert, A. Hansen, P. Pracht,
     J. Seibert, S. Spicher, S. Grimme, WIREs Comput. Mol. Sci., 2020,
     e01493. DOI: 10.1002/wcms.1493
   
   for GFN2-xTB:
   * S. Grimme, C. Bannwarth, P. Shushkov, J. Chem. Theory Comput., 2017,
     13, 1989-2009. DOI: 10.1021/acs.jctc.7b00118
   for GFN1-xTB:
   * C. Bannwarth, S. Ehlert and S. Grimme., J. Chem. Theory Comput., 2019,
     15, 1652-1671. DOI: 10.1021/acs.jctc.8b01176
   for GFN0-xTB:
   * P. Pracht, E. Caldeweyher, S. Ehlert, S. Grimme, ChemRxiv, 2019, preprint.
     DOI: 10.26434/chemrxiv.8326202.v1
   for GFN-FF:
   * S. Spicher and S. Grimme, Angew. Chem. Int. Ed., 2020, 59, 15665-15673.
     DOI: 10.1002/anie.202004239
   
   for DFT-D4:
   * E. Caldeweyher, C. Bannwarth and S. Grimme, J. Chem. Phys., 2017,
     147, 034112. DOI: 10.1063/1.4993215
   * E. Caldeweyher, S. Ehlert, A. Hansen, H. Neugebauer, S. Spicher,
     C. Bannwarth and S. Grimme, J. Chem. Phys., 2019, 150, 154122.
     DOI: 10.1063/1.5090222
   * E. Caldeweyher, J.-M. Mewes, S. Ehlert and S. Grimme, Phys. Chem. Chem. Phys.
     2020, 22, 8499-8512. DOI: 10.1039/D0CP00502A
   
   for sTDA-xTB:
   * S. Grimme and C. Bannwarth, J. Chem. Phys., 2016, 145, 054103.
     DOI: 10.1063/1.4959605
   
   in the mass-spec context:
   * V. Asgeirsson, C. Bauer and S. Grimme, Chem. Sci., 2017, 8, 4879.
     DOI: 10.1039/c7sc00601b
   * J. Koopman and S. Grimme, ACS Omega 2019, 4, 12, 15120-15133.
     DOI: 10.1021/acsomega.9b02011
   
   for metadynamics refer to:
   * S. Grimme, J. Chem. Theory Comput., 2019, 155, 2847-2862
     DOI: 10.1021/acs.jctc.9b00143
   
   with help from (in alphabetical order)
   C. Bannwarth, F. Bohle, G. Brandenburg, E. Caldeweyher, M. Checinski,
   S. Dohm, S. Ehlert, S. Ehrlich, F. März, H. Neugebauer, J. Pisarek,
   P. Pracht, P. Shushkov, and S. Spicher.
   
 * started run on 2022/03/16 at 23:25:30.801     

           -------------------------------------------------
          |                Calculation Setup                |
           -------------------------------------------------

          program call               : xtb acid_29.xyz --opt --chrg 0 --uhf 0 --gfn 2
          coordinate file            : acid_29.xyz
          omp threads                :                    64
          number of atoms            :                    68
          number of electrons        :                   222
          charge                     :                     0
          spin                       :                   0.0
          first test random number   :      0.70462558406208

   ID    Z sym.   atoms
    1    6 C      1-22, 24-29, 33, 34, 38-43
    2    7 N      23, 30, 37, 44
    3    8 O      31, 32, 35, 36, 45, 46
    4    1 H      47-68

           -------------------------------------------------
          |                 G F N 2 - x T B                 |
           -------------------------------------------------

        Reference                      10.1021/acs.jctc.8b01176
      * Hamiltonian:
        H0-scaling (s, p, d)           1.850000    2.230000    2.230000
        zeta-weighting                 0.500000
      * Dispersion:
        s8                             2.700000
        a1                             0.520000
        a2                             5.000000
        s9                             5.000000
      * Repulsion:
        kExp                           1.500000    1.000000
        rExp                           1.000000
      * Coulomb:
        alpha                          2.000000
        third order                    shell-resolved
        anisotropic                    true
        a3                             3.000000
        a5                             4.000000
        cn-shift                       1.200000
        cn-exp                         4.000000
        max-rad                        5.000000


          ...................................................
          :                      SETUP                      :
          :.................................................:
          :  # basis functions                 206          :
          :  # atomic orbitals                 206          :
          :  # shells                          114          :
          :  # electrons                       222          :
          :  max. iterations                   250          :
          :  Hamiltonian                  GFN2-xTB          :
          :  restarted?                      false          :
          :  GBSA solvation                  false          :
          :  PC potential                    false          :
          :  electronic temp.          300.0000000     K    :
          :  accuracy                    1.0000000          :
          :  -> integral cutoff          0.2500000E+02      :
          :  -> integral neglect         0.1000000E-07      :
          :  -> SCF convergence          0.1000000E-05 Eh   :
          :  -> wf. convergence          0.1000000E-03 e    :
          :  Broyden damping             0.4000000          :
          ...................................................

 iter      E             dE          RMSdq      gap      omega  full diag
   1   -125.9315466 -0.125932E+03  0.512E+00    2.35       0.0  T
   2   -126.0510818 -0.119535E+00  0.317E+00    2.76       1.0  T
   3   -125.9896971  0.613848E-01  0.205E+00    2.36       1.0  T
   4   -126.1089885 -0.119291E+00  0.683E-01    2.06       1.0  T
   5   -126.1336380 -0.246495E-01  0.143E-01    1.96       1.0  T
   6   -126.1339979 -0.359871E-03  0.753E-02    2.01       1.0  T
   7   -126.1341812 -0.183324E-03  0.279E-02    2.02       1.0  T
   8   -126.1341928 -0.116156E-04  0.142E-02    2.03       1.0  T
   9   -126.1341975 -0.469317E-05  0.633E-03    2.03       1.9  T
  10   -126.1341992 -0.170677E-05  0.299E-03    2.03       4.1  T
  11   -126.1341995 -0.270048E-06  0.108E-03    2.03      11.2  T
  12   -126.1341995 -0.337376E-07  0.531E-04    2.03      22.8  T
  13   -126.1341995 -0.551314E-08  0.259E-04    2.03      46.9  T

   *** convergence criteria satisfied after 13 iterations ***

         #    Occupation            Energy/Eh            Energy/eV
      -------------------------------------------------------------
         1        2.0000           -0.7906295             -21.5141
       ...           ...                  ...                  ...
       105        2.0000           -0.4266333             -11.6093
       106        2.0000           -0.4215850             -11.4719
       107        2.0000           -0.4156264             -11.3098
       108        2.0000           -0.4151881             -11.2978
       109        2.0000           -0.4136437             -11.2558
       110        2.0000           -0.3861579             -10.5079
       111        2.0000           -0.3838058             -10.4439 (HOMO)
       112                         -0.3091400              -8.4121 (LUMO)
       113                         -0.2994248              -8.1478
       114                         -0.2947097              -8.0195
       115                         -0.2823705              -7.6837
       116                         -0.2782700              -7.5721
       ...                                ...                  ...
       206                          1.0706605              29.1342
      -------------------------------------------------------------
                  HL-Gap            0.0746658 Eh            2.0318 eV
             Fermi-level           -0.3464729 Eh           -9.4280 eV

 SCC (total)                   0 d,  0 h,  0 min,  0.570 sec
 SCC setup                      ...        0 min,  0.009 sec (  1.541%)
 Dispersion                     ...        0 min,  0.022 sec (  3.914%)
 classical contributions        ...        0 min,  0.016 sec (  2.780%)
 integral evaluation            ...        0 min,  0.091 sec ( 15.914%)
 iterations                     ...        0 min,  0.279 sec ( 48.878%)
 molecular gradient             ...        0 min,  0.151 sec ( 26.492%)
 printout                       ...        0 min,  0.003 sec (  0.466%)

         :::::::::::::::::::::::::::::::::::::::::::::::::::::
         ::                     SUMMARY                     ::
         :::::::::::::::::::::::::::::::::::::::::::::::::::::
         :: total energy            -124.323259886385 Eh    ::
         :: gradient norm              0.166983437502 Eh/a0 ::
         :: HOMO-LUMO gap              2.031759604158 eV    ::
         ::.................................................::
         :: SCC energy              -126.134199543115 Eh    ::
         :: -> isotropic ES            0.141038449182 Eh    ::
         :: -> anisotropic ES          0.009966239070 Eh    ::
         :: -> anisotropic XC          0.072919701339 Eh    ::
         :: -> dispersion             -0.098171194614 Eh    ::
         :: repulsion energy           1.808021713710 Eh    ::
         :: add. restraining           0.000000000000 Eh    ::
         :: total charge              -0.000000000000 e     ::
         :::::::::::::::::::::::::::::::::::::::::::::::::::::

      ----------------------------------------------------------- 
     |                   =====================                   |
     |                        A N C O P T                        |
     |                   =====================                   |
     |               Approximate Normal Coordinate               |
     |                Rational Function Optimizer                |
      ----------------------------------------------------------- 

          ...................................................
          :                      SETUP                      :
          :.................................................:
          :   optimization level            normal          :
          :   max. optcycles                   204          :
          :   ANC micro-cycles                  20          :
          :   degrees of freedom               198          :
          :.................................................:
          :   RF solver                   davidson          :
          :   write xtbopt.log                true          :
          :   linear?                        false          :
          :   energy convergence         0.5000000E-05 Eh   :
          :   grad. convergence          0.1000000E-02 Eh/α :
          :   maximium RF displ.         1.0000000          :
          :   Hlow (freq-cutoff)         0.1000000E-01      :
          :   Hmax (freq-cutoff)         5.0000000          :
          :   S6 in model hess.         20.0000000          :
          ...................................................

generating ANC from model Hessian ...
Using Lindh-Hessian (1995)
 Shifting diagonal of input Hessian by    9.8772526026881715E-003
 Lowest  eigenvalues of input Hessian
    0.000000    0.000000    0.000000    0.000000    0.000000    0.000000
    0.010000    0.010053    0.010167    0.010172    0.010247    0.010324
    0.010434    0.010503    0.010705    0.011167    0.011364    0.011999
 Highest eigenvalues
    2.055131    2.210940    2.257671    2.267205    2.569081    2.573342


........................................................................
.............................. CYCLE    1 ..............................
........................................................................
   1   -126.1341995 -0.126134E+03  0.105E-04    2.03       0.0  T
   2   -126.1341995 -0.906653E-10  0.819E-05    2.03     148.0  T
   3   -126.1341995 -0.290413E-09  0.416E-05    2.03     291.8  T
     SCC iter.                  ...        0 min,  0.066 sec
     gradient                   ...        0 min,  0.153 sec
 * total energy  :  -124.3232599 Eh     change       -0.1708273E-08 Eh
   gradient norm :     0.1669834 Eh/α   predicted     0.0000000E+00 (-100.00%)
   displ. norm   :     0.3393194 α      lambda       -0.2696387E-01
   maximum displ.:     0.0980141 α      in ANC's #55, #28, #68, ...

........................................................................
.............................. CYCLE    2 ..............................
........................................................................
   1   -126.2440638 -0.126244E+03  0.169E-01    2.24       0.0  T
   2   -126.2442129 -0.149122E-03  0.105E-01    2.25       1.0  T
   3   -126.2441304  0.824753E-04  0.660E-02    2.26       1.0  T
   4   -126.2442899 -0.159443E-03  0.200E-02    2.26       1.0  T
   5   -126.2443137 -0.238239E-04  0.421E-03    2.26       2.9  T
   6   -126.2443142 -0.443457E-06  0.244E-03    2.26       5.0  T
   7   -126.2443143 -0.152575E-06  0.103E-03    2.26      11.8  T
   8   -126.2443143 -0.190459E-07  0.400E-04    2.26      30.3  T
   9   -126.2443143 -0.305779E-08  0.215E-04    2.26      56.4  T
     SCC iter.                  ...        0 min,  0.194 sec
     gradient                   ...        0 min,  0.154 sec
 * total energy  :  -124.3416256 Eh     change       -0.1836574E-01 Eh
   gradient norm :     0.0681982 Eh/α   predicted    -0.1503421E-01 ( -18.14%)
   displ. norm   :     0.3669498 α      lambda       -0.9208350E-02
   maximum displ.:     0.1307572 α      in ANC's #28, #19, #29, ...

........................................................................
.............................. CYCLE    3 ..............................
........................................................................
   1   -126.2893768 -0.126289E+03  0.156E-01    2.37       0.0  T
   2   -126.2894763 -0.995096E-04  0.948E-02    2.38       1.0  T
   3   -126.2893777  0.986370E-04  0.548E-02    2.39       1.0  T
   4   -126.2895315 -0.153749E-03  0.137E-02    2.39       1.0  T
   5   -126.2895417 -0.102167E-04  0.428E-03    2.39       2.8  T
   6   -126.2895422 -0.558014E-06  0.216E-03    2.39       5.6  T
   7   -126.2895423 -0.116220E-06  0.853E-04    2.39      14.2  T
   8   -126.2895424 -0.154549E-07  0.311E-04    2.39      38.9  T
     SCC iter.                  ...        0 min,  0.170 sec
     gradient                   ...        0 min,  0.153 sec
 * total energy  :  -124.3470920 Eh     change       -0.5466329E-02 Eh
   gradient norm :     0.0184881 Eh/α   predicted    -0.5224143E-02 (  -4.43%)
   displ. norm   :     0.3498601 α      lambda       -0.2476189E-02
   maximum displ.:     0.1117497 α      in ANC's #28, #19, #2, ...

........................................................................
.............................. CYCLE    4 ..............................
........................................................................
   1   -126.2938936 -0.126294E+03  0.292E-01    2.41       0.0  T
   2   -126.2939716 -0.780034E-04  0.163E-01    2.42       1.0  T
   3   -126.2938369  0.134711E-03  0.481E-02    2.42       1.0  T
   4   -126.2940068 -0.169863E-03  0.979E-03    2.42       1.2  T
   5   -126.2940110 -0.427696E-05  0.418E-03    2.42       2.9  T
   6   -126.2940113 -0.227298E-06  0.188E-03    2.42       6.5  T
   7   -126.2940114 -0.115150E-06  0.572E-04    2.42      21.2  T
   8   -126.2940114 -0.102151E-07  0.282E-04    2.42      43.1  T
     SCC iter.                  ...        0 min,  0.173 sec
     gradient                   ...        0 min,  0.164 sec
 * total energy  :  -124.3476540 Eh     change       -0.5619903E-03 Eh
   gradient norm :     0.0222933 Eh/α   predicted    -0.1389641E-02 ( 147.27%)
   displ. norm   :     0.3719966 α      lambda       -0.3211541E-02
   maximum displ.:     0.1435303 α      in ANC's #19, #2, #37, ...

........................................................................
.............................. CYCLE    5 ..............................
........................................................................
   1   -126.2961975 -0.126296E+03  0.318E-01    2.44       0.0  T
   2   -126.2962864 -0.889563E-04  0.177E-01    2.44       1.0  T
   3   -126.2962188  0.675917E-04  0.387E-02    2.45       1.0  T
   4   -126.2963165 -0.976594E-04  0.104E-02    2.45       1.2  T
   5   -126.2963215 -0.499459E-05  0.418E-03    2.45       2.9  T
   6   -126.2963217 -0.154545E-06  0.182E-03    2.45       6.7  T
   7   -126.2963218 -0.137579E-06  0.514E-04    2.45      23.6  T
   8   -126.2963218 -0.776647E-08  0.270E-04    2.45      44.9  T
     SCC iter.                  ...        0 min,  0.171 sec
     gradient                   ...        0 min,  0.143 sec
 * total energy  :  -124.3486915 Eh     change       -0.1037518E-02 Eh
   gradient norm :     0.0211944 Eh/α   predicted    -0.1827979E-02 (  76.19%)
   displ. norm   :     0.1233078 α      lambda       -0.7993499E-03
   maximum displ.:     0.0422959 α      in ANC's #29, #14, #13, ...

........................................................................
.............................. CYCLE    6 ..............................
........................................................................
   1   -126.2938072 -0.126294E+03  0.753E-02    2.43       0.0  T
   2   -126.2938228 -0.156137E-04  0.432E-02    2.43       1.0  T
   3   -126.2938078  0.150374E-04  0.176E-02    2.42       1.0  T
   4   -126.2938264 -0.185813E-04  0.558E-03    2.43       2.2  T
   5   -126.2938283 -0.188685E-05  0.152E-03    2.43       8.0  T
   6   -126.2938283 -0.519635E-07  0.777E-04    2.43      15.6  T
   7   -126.2938283 -0.808906E-08  0.270E-04    2.43      45.0  T
     SCC iter.                  ...        0 min,  0.149 sec
     gradient                   ...        0 min,  0.133 sec
 * total energy  :  -124.3491401 Eh     change       -0.4486275E-03 Eh
   gradient norm :     0.0076184 Eh/α   predicted    -0.4057569E-03 (  -9.56%)
   displ. norm   :     0.1822456 α      lambda       -0.4775217E-03
   maximum displ.:     0.0771290 α      in ANC's #13, #12, #10, ...

........................................................................
.............................. CYCLE    7 ..............................
........................................................................
   1   -126.2947879 -0.126295E+03  0.103E-01    2.41       0.0  T
   2   -126.2947999 -0.120049E-04  0.577E-02    2.41       1.0  T
   3   -126.2947933  0.660290E-05  0.129E-02    2.41       1.0  T
   4   -126.2948040 -0.107029E-04  0.359E-03    2.41       3.4  T
   5   -126.2948045 -0.539995E-06  0.153E-03    2.41       7.9  T
   6   -126.2948046 -0.385975E-07  0.630E-04    2.41      19.3  T
   7   -126.2948046 -0.100714E-07  0.197E-04    2.41      61.7  T
     SCC iter.                  ...        0 min,  0.149 sec
     gradient                   ...        0 min,  0.158 sec
 * total energy  :  -124.3493384 Eh     change       -0.1982760E-03 Eh
   gradient norm :     0.0077440 Eh/α   predicted    -0.2466920E-03 (  24.42%)
   displ. norm   :     0.2146416 α      lambda       -0.3319168E-03
   maximum displ.:     0.0971876 α      in ANC's #13, #14, #3, ...

........................................................................
.............................. CYCLE    8 ..............................
........................................................................
   1   -126.2948838 -0.126295E+03  0.744E-02    2.41       0.0  T
   2   -126.2948906 -0.675435E-05  0.424E-02    2.42       1.0  T
   3   -126.2948846  0.598413E-05  0.111E-02    2.42       1.1  T
   4   -126.2948927 -0.811204E-05  0.299E-03    2.42       4.0  T
   5   -126.2948931 -0.397890E-06  0.139E-03    2.42       8.8  T
   6   -126.2948931 -0.239247E-07  0.718E-04    2.42      16.9  T
   7   -126.2948931 -0.187603E-07  0.189E-04    2.42      64.0  T
     SCC iter.                  ...        0 min,  0.154 sec
     gradient                   ...        0 min,  0.150 sec
 * total energy  :  -124.3495674 Eh     change       -0.2290018E-03 Eh
   gradient norm :     0.0064951 Eh/α   predicted    -0.1736057E-03 ( -24.19%)
   displ. norm   :     0.3103031 α      lambda       -0.3122508E-03
   maximum displ.:     0.1305429 α      in ANC's #13, #14, #3, ...

........................................................................
.............................. CYCLE    9 ..............................
........................................................................
   1   -126.2957570 -0.126296E+03  0.858E-02    2.43       0.0  T
   2   -126.2957632 -0.616685E-05  0.495E-02    2.43       1.0  T
   3   -126.2957536  0.955267E-05  0.133E-02    2.43       1.0  T
   4   -126.2957656 -0.120137E-04  0.312E-03    2.43       3.9  T
   5   -126.2957659 -0.326277E-06  0.159E-03    2.43       7.6  T
   6   -126.2957660 -0.400419E-07  0.779E-04    2.43      15.6  T
   7   -126.2957660 -0.215144E-07  0.227E-04    2.43      53.4  T
     SCC iter.                  ...        0 min,  0.153 sec
     gradient                   ...        0 min,  0.150 sec
 * total energy  :  -124.3497985 Eh     change       -0.2311364E-03 Eh
   gradient norm :     0.0053406 Eh/α   predicted    -0.1711601E-03 ( -25.95%)
   displ. norm   :     0.3945316 α      lambda       -0.3029431E-03
   maximum displ.:     0.1506002 α      in ANC's #3, #13, #4, ...

........................................................................
.............................. CYCLE   10 ..............................
........................................................................
   1   -126.2961148 -0.126296E+03  0.102E-01    2.44       0.0  T
   2   -126.2961205 -0.566550E-05  0.590E-02    2.44       1.0  T
   3   -126.2961139  0.661602E-05  0.118E-02    2.44       1.0  T
   4   -126.2961230 -0.918917E-05  0.271E-03    2.44       4.5  T
   5   -126.2961231 -0.472622E-07  0.162E-03    2.44       7.5  T
   6   -126.2961232 -0.653011E-07  0.670E-04    2.44      18.1  T
   7   -126.2961232 -0.190392E-07  0.245E-04    2.44      49.4  T
     SCC iter.                  ...        0 min,  0.153 sec
     gradient                   ...        0 min,  0.145 sec
 * total energy  :  -124.3500381 Eh     change       -0.2395775E-03 Eh
   gradient norm :     0.0059707 Eh/α   predicted    -0.1750494E-03 ( -26.93%)
   displ. norm   :     0.4782356 α      lambda       -0.3511383E-03
   maximum displ.:     0.1892239 α      in ANC's #3, #4, #8, ...

........................................................................
.............................. CYCLE   11 ..............................
........................................................................
   1   -126.2963132 -0.126296E+03  0.119E-01    2.45       0.0  T
   2   -126.2963205 -0.723643E-05  0.690E-02    2.46       1.0  T
   3   -126.2963139  0.659560E-05  0.122E-02    2.46       1.0  T
   4   -126.2963237 -0.980743E-05  0.295E-03    2.46       4.1  T
   5   -126.2963237 -0.440780E-07  0.151E-03    2.46       8.0  T
   6   -126.2963238 -0.453674E-07  0.629E-04    2.46      19.3  T
   7   -126.2963238 -0.138862E-07  0.255E-04    2.46      47.6  T
     SCC iter.                  ...        0 min,  0.149 sec
     gradient                   ...        0 min,  0.147 sec
 * total energy  :  -124.3503253 Eh     change       -0.2872237E-03 Eh
   gradient norm :     0.0067629 Eh/α   predicted    -0.2157266E-03 ( -24.89%)
   displ. norm   :     0.5499462 α      lambda       -0.4103545E-03
   maximum displ.:     0.2180457 α      in ANC's #3, #4, #8, ...

........................................................................
.............................. CYCLE   12 ..............................
........................................................................
   1   -126.2953136 -0.126295E+03  0.136E-01    2.47       0.0  T
   2   -126.2953238 -0.102040E-04  0.786E-02    2.48       1.0  T
   3   -126.2953149  0.885629E-05  0.140E-02    2.48       1.0  T
   4   -126.2953280 -0.130676E-04  0.368E-03    2.48       3.3  T
   5   -126.2953281 -0.113856E-06  0.205E-03    2.48       5.9  T
   6   -126.2953282 -0.114527E-06  0.878E-04    2.48      13.8  T
   7   -126.2953283 -0.281676E-07  0.309E-04    2.48      39.2  T
     SCC iter.                  ...        0 min,  0.149 sec
     gradient                   ...        0 min,  0.142 sec
 * total energy  :  -124.3506660 Eh     change       -0.3407203E-03 Eh
   gradient norm :     0.0067131 Eh/α   predicted    -0.2672320E-03 ( -21.57%)
   displ. norm   :     0.5864607 α      lambda       -0.4630868E-03
   maximum displ.:     0.2297048 α      in ANC's #3, #4, #8, ...

........................................................................
.............................. CYCLE   13 ..............................
........................................................................
   1   -126.2957270 -0.126296E+03  0.136E-01    2.49       0.0  T
   2   -126.2957374 -0.103795E-04  0.790E-02    2.50       1.0  T
   3   -126.2957238  0.135457E-04  0.165E-02    2.50       1.0  T
   4   -126.2957421 -0.182966E-04  0.380E-03    2.50       3.2  T
   5   -126.2957423 -0.144961E-06  0.218E-03    2.50       5.6  T
   6   -126.2957424 -0.124987E-06  0.846E-04    2.50      14.3  T
   7   -126.2957424 -0.267115E-07  0.320E-04    2.50      37.9  T
     SCC iter.                  ...        0 min,  0.149 sec
     gradient                   ...        0 min,  0.135 sec
 * total energy  :  -124.3510414 Eh     change       -0.3753940E-03 Eh
   gradient norm :     0.0060819 Eh/α   predicted    -0.3111856E-03 ( -17.10%)
   displ. norm   :     0.6343868 α      lambda       -0.4564635E-03
   maximum displ.:     0.2470891 α      in ANC's #3, #4, #8, ...

........................................................................
.............................. CYCLE   14 ..............................
........................................................................
   1   -126.2929411 -0.126293E+03  0.148E-01    2.51       0.0  T
   2   -126.2929575 -0.164094E-04  0.855E-02    2.52       1.0  T
   3   -126.2929414  0.160216E-04  0.182E-02    2.52       1.0  T
   4   -126.2929630 -0.215677E-04  0.473E-03    2.52       2.6  T
   5   -126.2929635 -0.519632E-06  0.254E-03    2.52       4.8  T
   6   -126.2929637 -0.131769E-06  0.127E-03    2.52       9.6  T
   7   -126.2929637 -0.422598E-07  0.413E-04    2.52      29.4  T
   8   -126.2929637 -0.518342E-08  0.196E-04    2.52      61.9  T
     SCC iter.                  ...        0 min,  0.168 sec
     gradient                   ...        0 min,  0.141 sec
 * total energy  :  -124.3514002 Eh     change       -0.3588047E-03 Eh
   gradient norm :     0.0085478 Eh/α   predicted    -0.3200834E-03 ( -10.79%)
   displ. norm   :     0.5549626 α      lambda       -0.5201564E-03
   maximum displ.:     0.2079865 α      in ANC's #8, #3, #4, ...

........................................................................
.............................. CYCLE   15 ..............................
........................................................................
   1   -126.3004297 -0.126300E+03  0.120E-01    2.54       0.0  T
   2   -126.3004428 -0.131240E-04  0.698E-02    2.54       1.0  T
   3   -126.3004274  0.153946E-04  0.187E-02    2.54       1.0  T
   4   -126.3004473 -0.198901E-04  0.424E-03    2.54       2.9  T
   5   -126.3004479 -0.586391E-06  0.210E-03    2.54       5.8  T
   6   -126.3004479 -0.483333E-07  0.994E-04    2.54      12.2  T
   7   -126.3004479 -0.319984E-07  0.368E-04    2.54      32.9  T
     SCC iter.                  ...        0 min,  0.149 sec
     gradient                   ...        0 min,  0.160 sec
 * total energy  :  -124.3517136 Eh     change       -0.3133707E-03 Eh
   gradient norm :     0.0097205 Eh/α   predicted    -0.3401927E-03 (   8.56%)
   displ. norm   :     0.6727861 α      lambda       -0.5138929E-03
   maximum displ.:     0.2653235 α      in ANC's #3, #8, #4, ...

........................................................................
.............................. CYCLE   16 ..............................
........................................................................
   1   -126.2904668 -0.126290E+03  0.153E-01    2.54       0.0  T
   2   -126.2904990 -0.321612E-04  0.889E-02    2.55       1.0  T
   3   -126.2904585  0.404727E-04  0.292E-02    2.55       1.0  T
   4   -126.2905095 -0.509522E-04  0.656E-03    2.55       1.8  T
   5   -126.2905113 -0.186350E-05  0.294E-03    2.55       4.1  T
   6   -126.2905114 -0.122028E-06  0.165E-03    2.55       7.4  T
   7   -126.2905115 -0.661974E-07  0.483E-04    2.55      25.1  T
   8   -126.2905115 -0.656613E-08  0.224E-04    2.55      54.2  T
     SCC iter.                  ...        0 min,  0.175 sec
     gradient                   ...        0 min,  0.141 sec
 * total energy  :  -124.3520226 Eh     change       -0.3090075E-03 Eh
   gradient norm :     0.0121358 Eh/α   predicted    -0.3732534E-03 (  20.79%)
   displ. norm   :     0.3261709 α      lambda       -0.4697426E-03
   maximum displ.:     0.1307572 α      in ANC's #8, #3, #7, ...

........................................................................
.............................. CYCLE   17 ..............................
........................................................................
   1   -126.2953032 -0.126295E+03  0.721E-02    2.55       0.0  T
   2   -126.2953101 -0.684793E-05  0.423E-02    2.55       1.0  T
   3   -126.2953019  0.821802E-05  0.132E-02    2.55       1.0  T
   4   -126.2953115 -0.962076E-05  0.387E-03    2.55       3.1  T
   5   -126.2953122 -0.716539E-06  0.141E-03    2.55       8.6  T
   6   -126.2953122 -0.240032E-07  0.689E-04    2.55      17.6  T
   7   -126.2953122 -0.631260E-08  0.288E-04    2.55      42.1  T
     SCC iter.                  ...        0 min,  0.148 sec
     gradient                   ...        0 min,  0.126 sec
 * total energy  :  -124.3523696 Eh     change       -0.3470023E-03 Eh
   gradient norm :     0.0128532 Eh/α   predicted    -0.2598653E-03 ( -25.11%)
   displ. norm   :     0.4837516 α      lambda       -0.7558544E-03
   maximum displ.:     0.1836579 α      in ANC's #8, #3, #5, ...

........................................................................
.............................. CYCLE   18 ..............................
........................................................................
   1   -126.3016657 -0.126302E+03  0.117E-01    2.57       0.0  T
   2   -126.3016891 -0.234263E-04  0.675E-02    2.56       1.0  T
   3   -126.3016684  0.207099E-04  0.222E-02    2.57       1.0  T
   4   -126.3016955 -0.270593E-04  0.554E-03    2.56       2.2  T
   5   -126.3016969 -0.136554E-05  0.245E-03    2.56       5.0  T
   6   -126.3016969 -0.907763E-07  0.119E-03    2.56      10.2  T
   7   -126.3016970 -0.474455E-07  0.419E-04    2.56      28.9  T
   8   -126.3016970 -0.558343E-08  0.166E-04    2.56      73.2  T
     SCC iter.                  ...        0 min,  0.171 sec
     gradient                   ...        0 min,  0.136 sec
 * total energy  :  -124.3528610 Eh     change       -0.4913618E-03 Eh
   gradient norm :     0.0113406 Eh/α   predicted    -0.4663705E-03 (  -5.09%)
   displ. norm   :     0.6493137 α      lambda       -0.5934425E-03
   maximum displ.:     0.2531101 α      in ANC's #8, #3, #4, ...

........................................................................
.............................. CYCLE   19 ..............................
........................................................................
   1   -126.2991404 -0.126299E+03  0.140E-01    2.57       0.0  T
   2   -126.2991602 -0.198374E-04  0.812E-02    2.56       1.0  T
   3   -126.2991383  0.219336E-04  0.215E-02    2.56       1.0  T
   4   -126.2991667 -0.284053E-04  0.500E-03    2.56       2.4  T
   5   -126.2991675 -0.776831E-06  0.253E-03    2.56       4.8  T
   6   -126.2991676 -0.702614E-07  0.130E-03    2.56       9.4  T
   7   -126.2991676 -0.573066E-07  0.424E-04    2.56      28.6  T
   8   -126.2991676 -0.507157E-08  0.212E-04    2.56      57.1  T
     SCC iter.                  ...        0 min,  0.172 sec
     gradient                   ...        0 min,  0.082 sec
 * total energy  :  -124.3533525 Eh     change       -0.4914756E-03 Eh
   gradient norm :     0.0113188 Eh/α   predicted    -0.4218238E-03 ( -14.17%)
   displ. norm   :     0.5575179 α      lambda       -0.6840689E-03
   maximum displ.:     0.1918457 α      in ANC's #8, #3, #5, ...

........................................................................
.............................. CYCLE   20 ..............................
........................................................................
   1   -126.3005130 -0.126301E+03  0.136E-01    2.54       0.0  T
   2   -126.3005297 -0.166796E-04  0.791E-02    2.53       1.0  T
   3   -126.3005019  0.278043E-04  0.228E-02    2.53       1.0  T
   4   -126.3005361 -0.342030E-04  0.538E-03    2.53       2.3  T
   5   -126.3005369 -0.829467E-06  0.264E-03    2.53       4.6  T
   6   -126.3005370 -0.129503E-06  0.116E-03    2.53      10.5  T
   7   -126.3005371 -0.352964E-07  0.407E-04    2.53      29.8  T
   8   -126.3005371 -0.392198E-08  0.203E-04    2.53      59.7  T
     SCC iter.                  ...        0 min,  0.173 sec
     gradient                   ...        0 min,  0.146 sec
 * total energy  :  -124.3538129 Eh     change       -0.4604123E-03 Eh
   gradient norm :     0.0112117 Eh/α   predicted    -0.4483535E-03 (  -2.62%)
   displ. norm   :     0.6879349 α      lambda       -0.6278263E-03
   maximum displ.:     0.2675731 α      in ANC's #8, #3, #4, ...
 * RMSD in coord.:     0.8453592 α      energy gain  -0.3055298E-01 Eh

generating ANC from model Hessian ...
Using Lindh-Hessian (1995)
 Shifting diagonal of input Hessian by    9.8749198216892247E-003
 Lowest  eigenvalues of input Hessian
    0.000000    0.000000    0.000000    0.000000    0.000000    0.000000
    0.010000    0.010180    0.010206    0.010314    0.010339    0.010451
    0.010594    0.010806    0.010914    0.011419    0.011690    0.012235
 Highest eigenvalues
    2.109510    2.358166    2.375527    2.402236    2.650380    2.658139


........................................................................
.............................. CYCLE   21 ..............................
........................................................................
   1   -126.2876670 -0.126288E+03  0.166E-01    2.46       0.0  T
   2   -126.2876969 -0.298929E-04  0.959E-02    2.47       1.0  T
   3   -126.2876331  0.637851E-04  0.359E-02    2.46       1.0  T
   4   -126.2877119 -0.787993E-04  0.597E-03    2.46       2.0  T
   5   -126.2877127 -0.766136E-06  0.331E-03    2.46       3.7  T
   6   -126.2877129 -0.216255E-06  0.172E-03    2.46       7.1  T
   7   -126.2877130 -0.737277E-07  0.539E-04    2.46      22.5  T
   8   -126.2877130 -0.990063E-08  0.266E-04    2.46      45.6  T
     SCC iter.                  ...        0 min,  0.170 sec
     gradient                   ...        0 min,  0.136 sec
 * total energy  :  -124.3540729 Eh     change       -0.2600053E-03 Eh
   gradient norm :     0.0170634 Eh/α   predicted     0.0000000E+00 (-100.00%)
   displ. norm   :     0.1230149 α      lambda       -0.6878859E-03
   maximum displ.:     0.0619213 α      in ANC's #8, #13, #9, ...

........................................................................
.............................. CYCLE   22 ..............................
........................................................................
   1   -126.2994694 -0.126299E+03  0.700E-02    2.49       0.0  T
   2   -126.2994767 -0.727040E-05  0.402E-02    2.48       1.0  T
   3   -126.2994553  0.213496E-04  0.216E-02    2.49       1.0  T
   4   -126.2994822 -0.268458E-04  0.333E-03    2.48       3.6  T
   5   -126.2994826 -0.383806E-06  0.140E-03    2.48       8.7  T
   6   -126.2994826 -0.263353E-07  0.804E-04    2.48      15.1  T
   7   -126.2994826 -0.181667E-07  0.200E-04    2.48      60.6  T
     SCC iter.                  ...        0 min,  0.150 sec
     gradient                   ...        0 min,  0.140 sec
 * total energy  :  -124.3545037 Eh     change       -0.4308598E-03 Eh
   gradient norm :     0.0061977 Eh/α   predicted    -0.3493515E-03 ( -18.92%)
   displ. norm   :     0.2213189 α      lambda       -0.5303249E-03
   maximum displ.:     0.1036550 α      in ANC's #8, #9, #11, ...

........................................................................
.............................. CYCLE   23 ..............................
........................................................................
   1   -126.3092392 -0.126309E+03  0.128E-01    2.50       0.0  T
   2   -126.3092562 -0.170266E-04  0.719E-02    2.50       1.0  T
   3   -126.3092304  0.258590E-04  0.236E-02    2.50       1.0  T
   4   -126.3092649 -0.345362E-04  0.404E-03    2.50       3.0  T
   5   -126.3092653 -0.350861E-06  0.217E-03    2.50       5.6  T
   6   -126.3092654 -0.868736E-07  0.972E-04    2.50      12.5  T
   7   -126.3092654 -0.328173E-07  0.263E-04    2.50      46.1  T
     SCC iter.                  ...        0 min,  0.149 sec
     gradient                   ...        0 min,  0.131 sec
 * total energy  :  -124.3546372 Eh     change       -0.1334441E-03 Eh
   gradient norm :     0.0101527 Eh/α   predicted    -0.2781513E-03 ( 108.44%)
   displ. norm   :     0.1773689 α      lambda       -0.4242107E-03
   maximum displ.:     0.1046445 α      in ANC's #8, #9, #13, ...

........................................................................
.............................. CYCLE   24 ..............................
........................................................................
   1   -126.3075758 -0.126308E+03  0.803E-02    2.49       0.0  T
   2   -126.3075819 -0.603075E-05  0.454E-02    2.49       1.0  T
   3   -126.3075816  0.282840E-06  0.653E-03    2.49       1.9  T
   4   -126.3075839 -0.235423E-05  0.234E-03    2.49       5.2  T
   5   -126.3075841 -0.111730E-06  0.119E-03    2.49      10.2  T
   6   -126.3075841 -0.214406E-07  0.522E-04    2.49      23.3  T
   7   -126.3075841 -0.112533E-07  0.156E-04    2.49      78.0  T
     SCC iter.                  ...        0 min,  0.148 sec
     gradient                   ...        0 min,  0.133 sec
 * total energy  :  -124.3549699 Eh     change       -0.3327058E-03 Eh
   gradient norm :     0.0072723 Eh/α   predicted    -0.2187788E-03 ( -34.24%)
   displ. norm   :     0.3969039 α      lambda       -0.5764623E-03
   maximum displ.:     0.2198136 α      in ANC's #8, #9, #12, ...

........................................................................
.............................. CYCLE   25 ..............................
........................................................................
   1   -126.3004975 -0.126300E+03  0.133E-01    2.46       0.0  T
   2   -126.3005111 -0.136515E-04  0.766E-02    2.46       1.0  T
   3   -126.3005007  0.104525E-04  0.152E-02    2.46       1.0  T
   4   -126.3005161 -0.153868E-04  0.438E-03    2.46       2.8  T
   5   -126.3005165 -0.410758E-06  0.239E-03    2.46       5.1  T
   6   -126.3005166 -0.106163E-06  0.105E-03    2.46      11.5  T
   7   -126.3005166 -0.382429E-07  0.306E-04    2.46      39.6  T
   8   -126.3005166 -0.137105E-08  0.162E-04    2.46      74.9  T
     SCC iter.                  ...        0 min,  0.169 sec
     gradient                   ...        0 min,  0.123 sec
 * total energy  :  -124.3553968 Eh     change       -0.4269537E-03 Eh
   gradient norm :     0.0088865 Eh/α   predicted    -0.3336420E-03 ( -21.86%)
   displ. norm   :     0.4845171 α      lambda       -0.4738273E-03
   maximum displ.:     0.2592729 α      in ANC's #8, #9, #12, ...

........................................................................
.............................. CYCLE   26 ..............................
........................................................................
   1   -126.2948619 -0.126295E+03  0.155E-01    2.43       0.0  T
   2   -126.2948786 -0.167071E-04  0.895E-02    2.43       1.0  T
   3   -126.2948600  0.185905E-04  0.192E-02    2.42       1.0  T
   4   -126.2948855 -0.255177E-04  0.463E-03    2.43       2.6  T
   5   -126.2948858 -0.292247E-06  0.260E-03    2.43       4.7  T
   6   -126.2948860 -0.123550E-06  0.117E-03    2.43      10.4  T
   7   -126.2948860 -0.532956E-07  0.358E-04    2.43      33.9  T
   8   -126.2948860 -0.205409E-08  0.194E-04    2.43      62.6  T
     SCC iter.                  ...        0 min,  0.175 sec
     gradient                   ...        0 min,  0.153 sec
 * total energy  :  -124.3557205 Eh     change       -0.3236732E-03 Eh
   gradient norm :     0.0139115 Eh/α   predicted    -0.2925319E-03 (  -9.62%)
   displ. norm   :     0.3616274 α      lambda       -0.4277594E-03
   maximum displ.:     0.1914176 α      in ANC's #8, #9, #2, ...

........................................................................
.............................. CYCLE   27 ..............................
........................................................................
   1   -126.2936932 -0.126294E+03  0.124E-01    2.42       0.0  T
   2   -126.2937044 -0.112008E-04  0.709E-02    2.41       1.0  T
   3   -126.2936979  0.653396E-05  0.131E-02    2.41       1.0  T
   4   -126.2937087 -0.108516E-04  0.387E-03    2.41       3.1  T
   5   -126.2937089 -0.241679E-06  0.206E-03    2.41       5.9  T
   6   -126.2937090 -0.996438E-07  0.820E-04    2.41      14.8  T
   7   -126.2937091 -0.268786E-07  0.256E-04    2.41      47.4  T
     SCC iter.                  ...        0 min,  0.149 sec
     gradient                   ...        0 min,  0.139 sec
 * total energy  :  -124.3560590 Eh     change       -0.3384762E-03 Eh
   gradient norm :     0.0141146 Eh/α   predicted    -0.2418599E-03 ( -28.54%)
   displ. norm   :     0.4278189 α      lambda       -0.7928043E-03
   maximum displ.:     0.2357190 α      in ANC's #9, #8, #2, ...

........................................................................
.............................. CYCLE   28 ..............................
........................................................................
   1   -126.3003703 -0.126300E+03  0.145E-01    2.43       0.0  T
   2   -126.3003872 -0.168955E-04  0.827E-02    2.42       1.0  T
   3   -126.3003490  0.382542E-04  0.262E-02    2.42       1.0  T
   4   -126.3003960 -0.469910E-04  0.505E-03    2.42       2.4  T
   5   -126.3003965 -0.566882E-06  0.258E-03    2.42       4.7  T
   6   -126.3003966 -0.948937E-07  0.105E-03    2.42      11.5  T
   7   -126.3003967 -0.352696E-07  0.333E-04    2.42      36.4  T
   8   -126.3003967 -0.196516E-08  0.155E-04    2.42      78.0  T
     SCC iter.                  ...        0 min,  0.170 sec
     gradient                   ...        0 min,  0.152 sec
 * total energy  :  -124.3565518 Eh     change       -0.4927931E-03 Eh
   gradient norm :     0.0091441 Eh/α   predicted    -0.4689580E-03 (  -4.84%)
   displ. norm   :     0.5884841 α      lambda       -0.5222888E-03
   maximum displ.:     0.3307721 α      in ANC's #8, #9, #2, ...

........................................................................
.............................. CYCLE   29 ..............................
........................................................................
   1   -126.2956994 -0.126296E+03  0.183E-01    2.39       0.0  T
   2   -126.2957234 -0.240505E-04  0.105E-01    2.38       1.0  T
   3   -126.2957051  0.182864E-04  0.210E-02    2.38       1.0  T
   4   -126.2957329 -0.277776E-04  0.543E-03    2.38       2.2  T
   5   -126.2957333 -0.378856E-06  0.273E-03    2.38       4.4  T
   6   -126.2957334 -0.105873E-06  0.131E-03    2.38       9.3  T
   7   -126.2957335 -0.879237E-07  0.399E-04    2.38      30.4  T
   8   -126.2957335 -0.212663E-08  0.216E-04    2.38      56.2  T
     SCC iter.                  ...        0 min,  0.170 sec
     gradient                   ...        0 min,  0.128 sec
 * total energy  :  -124.3569300 Eh     change       -0.3781954E-03 Eh
   gradient norm :     0.0104132 Eh/α   predicted    -0.3515827E-03 (  -7.04%)
   displ. norm   :     0.4621922 α      lambda       -0.4953166E-03
   maximum displ.:     0.2600589 α      in ANC's #8, #9, #2, ...

........................................................................
.............................. CYCLE   30 ..............................
........................................................................
   1   -126.3004005 -0.126300E+03  0.133E-01    2.37       0.0  T
   2   -126.3004112 -0.106955E-04  0.770E-02    2.36       1.0  T
   3   -126.3003674  0.437933E-04  0.273E-02    2.36       1.0  T
   4   -126.3004182 -0.507747E-04  0.445E-03    2.36       2.7  T
   5   -126.3004186 -0.399757E-06  0.233E-03    2.36       5.2  T
   6   -126.3004187 -0.985541E-07  0.937E-04    2.36      12.9  T
   7   -126.3004187 -0.219307E-07  0.297E-04    2.36      40.8  T
     SCC iter.                  ...        0 min,  0.152 sec
     gradient                   ...        0 min,  0.139 sec
 * total energy  :  -124.3572787 Eh     change       -0.3487704E-03 Eh
   gradient norm :     0.0115694 Eh/α   predicted    -0.3005676E-03 ( -13.82%)
   displ. norm   :     0.4783757 α      lambda       -0.4314080E-03
   maximum displ.:     0.2675043 α      in ANC's #8, #9, #2, ...

........................................................................
.............................. CYCLE   31 ..............................
........................................................................
   1   -126.3014839 -0.126301E+03  0.134E-01    2.36       0.0  T
   2   -126.3014953 -0.113602E-04  0.774E-02    2.36       1.0  T
   3   -126.3014663  0.289929E-04  0.221E-02    2.36       1.0  T
   4   -126.3015011 -0.348350E-04  0.440E-03    2.36       2.8  T
   5   -126.3015014 -0.338993E-06  0.245E-03    2.36       4.9  T
   6   -126.3015016 -0.141043E-06  0.903E-04    2.36      13.4  T
   7   -126.3015016 -0.183503E-07  0.314E-04    2.36      38.6  T
     SCC iter.                  ...        0 min,  0.149 sec
     gradient                   ...        0 min,  0.146 sec
 * total energy  :  -124.3576112 Eh     change       -0.3324672E-03 Eh
   gradient norm :     0.0073467 Eh/α   predicted    -0.2650671E-03 ( -20.27%)
   displ. norm   :     0.4256160 α      lambda       -0.3729023E-03
   maximum displ.:     0.2311065 α      in ANC's #8, #9, #2, ...

........................................................................
.............................. CYCLE   32 ..............................
........................................................................
   1   -126.3071733 -0.126307E+03  0.111E-01    2.38       0.0  T
   2   -126.3071855 -0.121899E-04  0.644E-02    2.37       1.0  T
   3   -126.3071453  0.402112E-04  0.264E-02    2.38       1.0  T
   4   -126.3071931 -0.477694E-04  0.463E-03    2.37       2.6  T
   5   -126.3071937 -0.663006E-06  0.228E-03    2.37       5.3  T
   6   -126.3071938 -0.924519E-07  0.990E-04    2.37      12.3  T
   7   -126.3071938 -0.278323E-07  0.318E-04    2.37      38.2  T
     SCC iter.                  ...        0 min,  0.149 sec
     gradient                   ...        0 min,  0.136 sec
 * total energy  :  -124.3577884 Eh     change       -0.1771488E-03 Eh
   gradient norm :     0.0077212 Eh/α   predicted    -0.2202317E-03 (  24.32%)
   displ. norm   :     0.6406014 α      lambda       -0.4420947E-03
   maximum displ.:     0.3745347 α      in ANC's #8, #9, #2, ...

........................................................................
.............................. CYCLE   33 ..............................
........................................................................
   1   -126.2966377 -0.126297E+03  0.182E-01    2.34       0.0  T
   2   -126.2966584 -0.206348E-04  0.106E-01    2.34       1.0  T
   3   -126.2966028  0.556191E-04  0.323E-02    2.34       1.0  T
   4   -126.2966702 -0.674127E-04  0.522E-03    2.34       2.3  T
   5   -126.2966705 -0.311112E-06  0.319E-03    2.34       3.8  T
   6   -126.2966707 -0.259079E-06  0.146E-03    2.34       8.3  T
   7   -126.2966708 -0.742056E-07  0.468E-04    2.34      25.9  T
   8   -126.2966708 -0.453991E-08  0.212E-04    2.34      57.1  T
     SCC iter.                  ...        0 min,  0.176 sec
     gradient                   ...        0 min,  0.127 sec
 * total energy  :  -124.3578477 Eh     change       -0.5933362E-04 Eh
   gradient norm :     0.0114768 Eh/α   predicted    -0.3117607E-03 ( 425.44%)
   displ. norm   :     0.1913062 α      lambda       -0.3110392E-03
   maximum displ.:     0.0997569 α      in ANC's #8, #9, #12, ...

........................................................................
.............................. CYCLE   34 ..............................
........................................................................
   1   -126.3040955 -0.126304E+03  0.596E-02    2.36       0.0  T
   2   -126.3041005 -0.495123E-05  0.347E-02    2.36       1.0  T
   3   -126.3040867  0.137522E-04  0.180E-02    2.36       1.0  T
   4   -126.3041045 -0.178290E-04  0.198E-03    2.36       6.1  T
   5   -126.3041046 -0.873935E-07  0.117E-03    2.36      10.4  T
   6   -126.3041047 -0.295561E-07  0.603E-04    2.36      20.1  T
   7   -126.3041047 -0.975893E-08  0.217E-04    2.36      55.9  T
     SCC iter.                  ...        0 min,  0.154 sec
     gradient                   ...        0 min,  0.127 sec
 * total energy  :  -124.3580065 Eh     change       -0.1587622E-03 Eh
   gradient norm :     0.0040096 Eh/α   predicted    -0.1612169E-03 (   1.55%)
   displ. norm   :     0.1443266 α      lambda       -0.7921355E-04
   maximum displ.:     0.0815518 α      in ANC's #8, #2, #9, ...

........................................................................
.............................. CYCLE   35 ..............................
........................................................................
   1   -126.3036005 -0.126304E+03  0.415E-02    2.36       0.0  T
   2   -126.3036019 -0.135998E-05  0.236E-02    2.36       1.0  T
   3   -126.3036014  0.499969E-06  0.427E-03    2.36       2.8  T
   4   -126.3036024 -0.972848E-06  0.139E-03    2.36       8.7  T
   5   -126.3036024 -0.386210E-07  0.741E-04    2.36      16.4  T
   6   -126.3036024 -0.123417E-07  0.288E-04    2.36      42.1  T
     SCC iter.                  ...        0 min,  0.136 sec
     gradient                   ...        0 min,  0.140 sec
 * total energy  :  -124.3580607 Eh     change       -0.5420527E-04 Eh
   gradient norm :     0.0059350 Eh/α   predicted    -0.4043253E-04 ( -25.41%)
   displ. norm   :     0.3498261 α      lambda       -0.2103993E-03
   maximum displ.:     0.1856049 α      in ANC's #2, #8, #5, ...

........................................................................
.............................. CYCLE   36 ..............................
........................................................................
   1   -126.3080326 -0.126308E+03  0.813E-02    2.37       0.0  T
   2   -126.3080375 -0.483223E-05  0.470E-02    2.37       1.0  T
   3   -126.3080301  0.735168E-05  0.125E-02    2.37       1.0  T
   4   -126.3080394 -0.924959E-05  0.304E-03    2.37       4.0  T
   5   -126.3080396 -0.256395E-06  0.148E-03    2.37       8.2  T
   6   -126.3080397 -0.318117E-07  0.645E-04    2.37      18.8  T
   7   -126.3080397 -0.150211E-07  0.188E-04    2.37      64.4  T
     SCC iter.                  ...        0 min,  0.151 sec
     gradient                   ...        0 min,  0.148 sec
 * total energy  :  -124.3581607 Eh     change       -0.1000223E-03 Eh
   gradient norm :     0.0073471 Eh/α   predicted    -0.1180766E-03 (  18.05%)
   displ. norm   :     0.3383497 α      lambda       -0.1554259E-03
   maximum displ.:     0.1908276 α      in ANC's #8, #2, #9, ...

........................................................................
.............................. CYCLE   37 ..............................
........................................................................
   1   -126.3033407 -0.126303E+03  0.927E-02    2.36       0.0  T
   2   -126.3033460 -0.522907E-05  0.532E-02    2.36       1.0  T
   3   -126.3033394  0.656593E-05  0.126E-02    2.36       1.0  T
   4   -126.3033484 -0.902837E-05  0.278E-03    2.36       4.4  T
   5   -126.3033485 -0.475680E-07  0.160E-03    2.36       7.6  T
   6   -126.3033486 -0.773866E-07  0.569E-04    2.36      21.3  T
   7   -126.3033486 -0.158969E-07  0.189E-04    2.36      64.2  T
     SCC iter.                  ...        0 min,  0.158 sec
     gradient                   ...        0 min,  0.135 sec
 * total energy  :  -124.3582306 Eh     change       -0.6987388E-04 Eh
   gradient norm :     0.0072293 Eh/α   predicted    -0.8661293E-04 (  23.96%)
   displ. norm   :     0.0847274 α      lambda       -0.8009793E-04
   maximum displ.:     0.0336169 α      in ANC's #5, #10, #17, ...

........................................................................
.............................. CYCLE   38 ..............................
........................................................................
   1   -126.3033232 -0.126303E+03  0.219E-02    2.36       0.0  T
   2   -126.3033240 -0.735590E-06  0.127E-02    2.36       1.0  T
   3   -126.3033228  0.115392E-05  0.494E-03    2.36       2.5  T
   4   -126.3033243 -0.152310E-05  0.774E-04    2.36      15.7  T
   5   -126.3033243 -0.129371E-07  0.410E-04    2.36      29.6  T
   6   -126.3033243 -0.184372E-08  0.180E-04    2.36      67.2  T
     SCC iter.                  ...        0 min,  0.129 sec
     gradient                   ...        0 min,  0.138 sec
 * total energy  :  -124.3582870 Eh     change       -0.5641019E-04 Eh
   gradient norm :     0.0048041 Eh/α   predicted    -0.4034215E-04 ( -28.48%)
   displ. norm   :     0.2025874 α      lambda       -0.1315095E-03
   maximum displ.:     0.0849137 α      in ANC's #5, #11, #10, ...

........................................................................
.............................. CYCLE   39 ..............................
........................................................................
   1   -126.3044935 -0.126304E+03  0.426E-02    2.36       0.0  T
   2   -126.3044953 -0.180282E-05  0.246E-02    2.36       1.0  T
   3   -126.3044926  0.269779E-05  0.711E-03    2.36       1.7  T
   4   -126.3044961 -0.348791E-05  0.142E-03    2.36       8.5  T
   5   -126.3044961 -0.397344E-07  0.777E-04    2.36      15.6  T
   6   -126.3044961 -0.487424E-08  0.371E-04    2.36      32.7  T
     SCC iter.                  ...        0 min,  0.131 sec
     gradient                   ...        0 min,  0.136 sec
 * total energy  :  -124.3583597 Eh     change       -0.7273479E-04 Eh
   gradient norm :     0.0042432 Eh/α   predicted    -0.6845582E-04 (  -5.88%)
   displ. norm   :     0.2680237 α      lambda       -0.7460114E-04
   maximum displ.:     0.1468498 α      in ANC's #2, #8, #5, ...

........................................................................
.............................. CYCLE   40 ..............................
........................................................................
   1   -126.3030863 -0.126303E+03  0.649E-02    2.35       0.0  T
   2   -126.3030893 -0.291734E-05  0.373E-02    2.35       1.0  T
   3   -126.3030833  0.595540E-05  0.106E-02    2.35       1.1  T
   4   -126.3030909 -0.757935E-05  0.184E-03    2.35       6.6  T
   5   -126.3030909 -0.196313E-07  0.102E-03    2.35      11.9  T
   6   -126.3030909 -0.209388E-07  0.429E-04    2.35      28.2  T
   7   -126.3030909 -0.781671E-08  0.156E-04    2.35      77.7  T
     SCC iter.                  ...        0 min,  0.157 sec
     gradient                   ...        0 min,  0.139 sec
 * total energy  :  -124.3584068 Eh     change       -0.4708108E-04 Eh
   gradient norm :     0.0045566 Eh/α   predicted    -0.3998067E-04 ( -15.08%)
   displ. norm   :     0.2086148 α      lambda       -0.5850668E-04
   maximum displ.:     0.1154939 α      in ANC's #2, #5, #11, ...

........................................................................
.............................. CYCLE   41 ..............................
........................................................................
   1   -126.3030260 -0.126303E+03  0.489E-02    2.35       0.0  T
   2   -126.3030280 -0.198867E-05  0.280E-02    2.35       1.0  T
   3   -126.3030258  0.226088E-05  0.655E-03    2.35       1.9  T
   4   -126.3030289 -0.310896E-05  0.152E-03    2.35       8.0  T
   5   -126.3030289 -0.312018E-07  0.890E-04    2.35      13.6  T
   6   -126.3030289 -0.166155E-07  0.381E-04    2.35      31.8  T
     SCC iter.                  ...        0 min,  0.128 sec
     gradient                   ...        0 min,  0.152 sec
 * total energy  :  -124.3584479 Eh     change       -0.4116325E-04 Eh
   gradient norm :     0.0036358 Eh/α   predicted    -0.3052713E-04 ( -25.84%)
   displ. norm   :     0.2106682 α      lambda       -0.6841633E-04
   maximum displ.:     0.1122569 α      in ANC's #2, #11, #5, ...

........................................................................
.............................. CYCLE   42 ..............................
........................................................................
   1   -126.3050543 -0.126305E+03  0.494E-02    2.35       0.0  T
   2   -126.3050564 -0.202555E-05  0.282E-02    2.35       1.0  T
   3   -126.3050544  0.192063E-05  0.628E-03    2.35       1.9  T
   4   -126.3050571 -0.271644E-05  0.177E-03    2.35       6.8  T
   5   -126.3050572 -0.814184E-07  0.945E-04    2.35      12.8  T
   6   -126.3050572 -0.144007E-07  0.360E-04    2.35      33.7  T
     SCC iter.                  ...        0 min,  0.132 sec
     gradient                   ...        0 min,  0.135 sec
 * total energy  :  -124.3584872 Eh     change       -0.3926954E-04 Eh
   gradient norm :     0.0037013 Eh/α   predicted    -0.3573002E-04 (  -9.01%)
   displ. norm   :     0.1931857 α      lambda       -0.4553588E-04
   maximum displ.:     0.1162337 α      in ANC's #2, #11, #8, ...
 * RMSD in coord.:     0.6742119 α      energy gain  -0.4674349E-02 Eh

generating ANC from model Hessian ...
Using Lindh-Hessian (1995)
 Shifting diagonal of input Hessian by    9.8636999781749959E-003
 Lowest  eigenvalues of input Hessian
    0.000000    0.000000    0.000000    0.000000    0.000000    0.000000
    0.010000    0.010192    0.010209    0.010309    0.010332    0.010404
    0.010566    0.010786    0.010838    0.011450    0.011644    0.012165
 Highest eigenvalues
    2.109543    2.369512    2.370328    2.405828    2.665168    2.670913


........................................................................
.............................. CYCLE   43 ..............................
........................................................................
   1   -126.3040733 -0.126304E+03  0.505E-02    2.34       0.0  T
   2   -126.3040749 -0.166711E-05  0.288E-02    2.34       1.0  T
   3   -126.3040737  0.117226E-05  0.541E-03    2.34       2.2  T
   4   -126.3040756 -0.184927E-05  0.166E-03    2.34       7.3  T
   5   -126.3040756 -0.454004E-07  0.869E-04    2.34      14.0  T
   6   -126.3040757 -0.173879E-07  0.266E-04    2.34      45.6  T
     SCC iter.                  ...        0 min,  0.128 sec
     gradient                   ...        0 min,  0.149 sec
 * total energy  :  -124.3585147 Eh     change       -0.2752838E-04 Eh
   gradient norm :     0.0041487 Eh/α   predicted     0.0000000E+00 (-100.00%)
   displ. norm   :     0.0389443 α      lambda       -0.4006976E-04
   maximum displ.:     0.0152390 α      in ANC's #12, #13, #19, ...

........................................................................
.............................. CYCLE   44 ..............................
........................................................................
   1   -126.3050609 -0.126305E+03  0.247E-02    2.35       0.0  T
   2   -126.3050615 -0.565386E-06  0.139E-02    2.35       1.0  T
   3   -126.3050609  0.628450E-06  0.357E-03    2.35       3.4  T
   4   -126.3050617 -0.862716E-06  0.840E-04    2.35      14.4  T
   5   -126.3050617 -0.241288E-07  0.357E-04    2.35      33.9  T
     SCC iter.                  ...        0 min,  0.110 sec
     gradient                   ...        0 min,  0.154 sec
 * total energy  :  -124.3585358 Eh     change       -0.2105014E-04 Eh
   gradient norm :     0.0018717 Eh/α   predicted    -0.2008777E-04 (  -4.57%)
   displ. norm   :     0.1371038 α      lambda       -0.6324892E-04
   maximum displ.:     0.0858873 α      in ANC's #10, #4, #19, ...

........................................................................
.............................. CYCLE   45 ..............................
........................................................................
   1   -126.3071239 -0.126307E+03  0.748E-02    2.35       0.0  T
   2   -126.3071291 -0.514656E-05  0.422E-02    2.35       1.0  T
   3   -126.3071237  0.537279E-05  0.104E-02    2.35       1.2  T
   4   -126.3071311 -0.740895E-05  0.264E-03    2.35       4.6  T
   5   -126.3071314 -0.242344E-06  0.118E-03    2.35      10.3  T
   6   -126.3071314 -0.166210E-07  0.454E-04    2.35      26.7  T
   7   -126.3071314 -0.730290E-08  0.135E-04    2.35      89.8  T
     SCC iter.                  ...        0 min,  0.158 sec
     gradient                   ...        0 min,  0.164 sec
 * total energy  :  -124.3585298 Eh     change        0.5969447E-05 Eh
   gradient norm :     0.0089455 Eh/α   predicted    -0.3188952E-04 (-634.21%)
   displ. norm   :     0.0324992 α      lambda       -0.6856428E-04
   maximum displ.:     0.0127006 α      in ANC's #12, #6, #8, ...

........................................................................
.............................. CYCLE   46 ..............................
........................................................................
   1   -126.3059796 -0.126306E+03  0.240E-02    2.34       0.0  T
   2   -126.3059802 -0.528607E-06  0.134E-02    2.34       1.0  T
   3   -126.3059791  0.105465E-05  0.443E-03    2.34       2.7  T
   4   -126.3059805 -0.135264E-05  0.634E-04    2.34      19.1  T
   5   -126.3059805 -0.715869E-08  0.325E-04    2.34      37.3  T
   6   -126.3059805 -0.160394E-08  0.102E-04    2.34     118.4  T
     SCC iter.                  ...        0 min,  0.129 sec
     gradient                   ...        0 min,  0.160 sec
 * total energy  :  -124.3585801 Eh     change       -0.5025505E-04 Eh
   gradient norm :     0.0040923 Eh/α   predicted    -0.3432383E-04 ( -31.70%)
   displ. norm   :     0.0758922 α      lambda       -0.5078264E-04
   maximum displ.:     0.0339721 α      in ANC's #10, #12, #6, ...

........................................................................
.............................. CYCLE   47 ..............................
........................................................................
   1   -126.3044132 -0.126304E+03  0.266E-02    2.34       0.0  T
   2   -126.3044137 -0.521116E-06  0.153E-02    2.34       1.0  T
   3   -126.3044120  0.175658E-05  0.558E-03    2.34       2.2  T
   4   -126.3044140 -0.207786E-05  0.986E-04    2.34      12.3  T
   5   -126.3044141 -0.296066E-07  0.480E-04    2.34      25.3  T
   6   -126.3044141 -0.205000E-08  0.166E-04    2.34      73.2  T
     SCC iter.                  ...        0 min,  0.130 sec
     gradient                   ...        0 min,  0.113 sec
 * total energy  :  -124.3586119 Eh     change       -0.3177567E-04 Eh
   gradient norm :     0.0017814 Eh/α   predicted    -0.2554457E-04 ( -19.61%)
   displ. norm   :     0.1435746 α      lambda       -0.2323844E-04
   maximum displ.:     0.0744842 α      in ANC's #10, #4, #6, ...

........................................................................
.............................. CYCLE   48 ..............................
........................................................................
   1   -126.3037798 -0.126304E+03  0.437E-02    2.33       0.0  T
   2   -126.3037807 -0.913984E-06  0.251E-02    2.33       1.0  T
   3   -126.3037799  0.744488E-06  0.450E-03    2.33       2.7  T
   4   -126.3037811 -0.115407E-05  0.120E-03    2.33      10.1  T
   5   -126.3037811 -0.963995E-08  0.722E-04    2.33      16.8  T
   6   -126.3037811 -0.163959E-07  0.206E-04    2.33      58.7  T
     SCC iter.                  ...        0 min,  0.130 sec
     gradient                   ...        0 min,  0.128 sec
 * total energy  :  -124.3586351 Eh     change       -0.2328211E-04 Eh
   gradient norm :     0.0028754 Eh/α   predicted    -0.1172979E-04 ( -49.62%)
   displ. norm   :     0.1515003 α      lambda       -0.3284774E-04
   maximum displ.:     0.0824381 α      in ANC's #10, #6, #4, ...

........................................................................
.............................. CYCLE   49 ..............................
........................................................................
   1   -126.3035015 -0.126304E+03  0.445E-02    2.32       0.0  T
   2   -126.3035024 -0.846487E-06  0.257E-02    2.32       1.0  T
   3   -126.3035014  0.928295E-06  0.458E-03    2.32       2.6  T
   4   -126.3035028 -0.133885E-05  0.113E-03    2.32      10.7  T
   5   -126.3035028 -0.772644E-10  0.614E-04    2.32      19.7  T
   6   -126.3035028 -0.148994E-07  0.223E-04    2.32      54.3  T
     SCC iter.                  ...        0 min,  0.129 sec
     gradient                   ...        0 min,  0.142 sec
 * total energy  :  -124.3586603 Eh     change       -0.2516866E-04 Eh
   gradient norm :     0.0031338 Eh/α   predicted    -0.1680147E-04 ( -33.24%)
   displ. norm   :     0.2296131 α      lambda       -0.4345457E-04
   maximum displ.:     0.1243948 α      in ANC's #10, #6, #4, ...

........................................................................
.............................. CYCLE   50 ..............................
........................................................................
   1   -126.3036165 -0.126304E+03  0.653E-02    2.32       0.0  T
   2   -126.3036183 -0.182224E-05  0.378E-02    2.31       1.0  T
   3   -126.3036156  0.274073E-05  0.749E-03    2.31       1.6  T
   4   -126.3036192 -0.367840E-05  0.171E-03    2.31       7.1  T
   5   -126.3036192  0.188116E-08  0.101E-03    2.31      12.0  T
   6   -126.3036193 -0.414591E-07  0.341E-04    2.31      35.5  T
   7   -126.3036193 -0.391506E-08  0.126E-04    2.31      96.6  T
     SCC iter.                  ...        0 min,  0.149 sec
     gradient                   ...        0 min,  0.152 sec
 * total energy  :  -124.3586895 Eh     change       -0.2917973E-04 Eh
   gradient norm :     0.0019269 Eh/α   predicted    -0.2287292E-04 ( -21.61%)
   displ. norm   :     0.2132132 α      lambda       -0.2040821E-04
   maximum displ.:     0.1064508 α      in ANC's #10, #6, #4, ...

........................................................................
.............................. CYCLE   51 ..............................
........................................................................
   1   -126.3045201 -0.126305E+03  0.583E-02    2.31       0.0  T
   2   -126.3045215 -0.140271E-05  0.337E-02    2.31       1.0  T
   3   -126.3045196  0.188798E-05  0.624E-03    2.31       1.9  T
   4   -126.3045222 -0.259895E-05  0.158E-03    2.31       7.7  T
   5   -126.3045222  0.265402E-09  0.930E-04    2.31      13.0  T
   6   -126.3045222 -0.339694E-07  0.283E-04    2.31      42.9  T
     SCC iter.                  ...        0 min,  0.133 sec
     gradient                   ...        0 min,  0.140 sec
 * total energy  :  -124.3587102 Eh     change       -0.2069333E-04 Eh
   gradient norm :     0.0013816 Eh/α   predicted    -0.1041171E-04 ( -49.69%)
   displ. norm   :     0.1504425 α      lambda       -0.1745404E-04
   maximum displ.:     0.0637375 α      in ANC's #8, #6, #10, ...

........................................................................
.............................. CYCLE   52 ..............................
........................................................................
   1   -126.3052602 -0.126305E+03  0.402E-02    2.31       0.0  T
   2   -126.3052609 -0.701055E-06  0.232E-02    2.30       1.0  T
   3   -126.3052606  0.335285E-06  0.306E-03    2.30       4.0  T
   4   -126.3052612 -0.629075E-06  0.112E-03    2.30      10.9  T
   5   -126.3052612 -0.764182E-08  0.623E-04    2.30      19.5  T
   6   -126.3052612 -0.149883E-07  0.198E-04    2.30      61.3  T
     SCC iter.                  ...        0 min,  0.129 sec
     gradient                   ...        0 min,  0.141 sec
 * total energy  :  -124.3587312 Eh     change       -0.2101380E-04 Eh
   gradient norm :     0.0012184 Eh/α   predicted    -0.8825205E-05 ( -58.00%)
   displ. norm   :     0.3213611 α      lambda       -0.2907743E-04
   maximum displ.:     0.1364954 α      in ANC's #8, #6, #10, ...

........................................................................
.............................. CYCLE   53 ..............................
........................................................................
   1   -126.3042533 -0.126304E+03  0.862E-02    2.29       0.0  T
   2   -126.3042564 -0.306354E-05  0.497E-02    2.29       1.0  T
   3   -126.3042553  0.110736E-05  0.654E-03    2.29       1.9  T
   4   -126.3042576 -0.239331E-05  0.228E-03    2.29       5.3  T
   5   -126.3042577 -0.190174E-07  0.123E-03    2.29       9.9  T
   6   -126.3042577 -0.524462E-07  0.393E-04    2.29      30.9  T
   7   -126.3042577 -0.642542E-08  0.175E-04    2.29      69.4  T
     SCC iter.                  ...        0 min,  0.149 sec
     gradient                   ...        0 min,  0.169 sec
 * total energy  :  -124.3587596 Eh     change       -0.2845840E-04 Eh
   gradient norm :     0.0016858 Eh/α   predicted    -0.1520800E-04 ( -46.56%)
   displ. norm   :     0.1895287 α      lambda       -0.2275336E-04
   maximum displ.:     0.0880869 α      in ANC's #9, #8, #11, ...

........................................................................
.............................. CYCLE   54 ..............................
........................................................................
   1   -126.3058130 -0.126306E+03  0.482E-02    2.29       0.0  T
   2   -126.3058141 -0.117287E-05  0.278E-02    2.30       1.0  T
   3   -126.3058116  0.247864E-05  0.655E-03    2.30       1.9  T
   4   -126.3058147 -0.308096E-05  0.131E-03    2.29       9.3  T
   5   -126.3058148 -0.233944E-07  0.809E-04    2.29      15.0  T
   6   -126.3058148 -0.179068E-07  0.313E-04    2.29      38.7  T
     SCC iter.                  ...        0 min,  0.127 sec
     gradient                   ...        0 min,  0.160 sec
 * total energy  :  -124.3587758 Eh     change       -0.1613562E-04 Eh
   gradient norm :     0.0020828 Eh/α   predicted    -0.1156069E-04 ( -28.35%)
   displ. norm   :     0.1265951 α      lambda       -0.1247219E-04
   maximum displ.:     0.0477166 α      in ANC's #6, #10, #8, ...

........................................................................
.............................. CYCLE   55 ..............................
........................................................................
   1   -126.3046639 -0.126305E+03  0.360E-02    2.29       0.0  T
   2   -126.3046646 -0.619409E-06  0.207E-02    2.29       1.0  T
   3   -126.3046640  0.588116E-06  0.377E-03    2.29       3.2  T
   4   -126.3046648 -0.866576E-06  0.105E-03    2.29      11.5  T
   5   -126.3046648 -0.968438E-08  0.625E-04    2.29      19.4  T
   6   -126.3046648 -0.109344E-07  0.168E-04    2.29      72.3  T
     SCC iter.                  ...        0 min,  0.132 sec
     gradient                   ...        0 min,  0.146 sec
 * total energy  :  -124.3587847 Eh     change       -0.8921393E-05 Eh
   gradient norm :     0.0014670 Eh/α   predicted    -0.6340797E-05 ( -28.93%)
   displ. norm   :     0.0739514 α      lambda       -0.9884960E-05
   maximum displ.:     0.0360712 α      in ANC's #9, #1, #6, ...

........................................................................
.............................. CYCLE   56 ..............................
........................................................................
   1   -126.3046038 -0.126305E+03  0.232E-02    2.29       0.0  T
   2   -126.3046043 -0.428680E-06  0.133E-02    2.29       1.0  T
   3   -126.3046041  0.151181E-06  0.224E-03    2.29       5.4  T
   4   -126.3046044 -0.286371E-06  0.727E-04    2.29      16.7  T
   5   -126.3046044 -0.105199E-07  0.435E-04    2.29      27.8  T
     SCC iter.                  ...        0 min,  0.108 sec
     gradient                   ...        0 min,  0.154 sec
 * total energy  :  -124.3587932 Eh     change       -0.8488767E-05 Eh
   gradient norm :     0.0012757 Eh/α   predicted    -0.4958363E-05 ( -41.59%)
   displ. norm   :     0.0369450 α      lambda       -0.4232091E-05
   maximum displ.:     0.0246540 α      in ANC's #9, #10, #8, ...

........................................................................
.............................. CYCLE   57 ..............................
........................................................................
   1   -126.3047803 -0.126305E+03  0.119E-02    2.29       0.0  T
   2   -126.3047804 -0.120995E-06  0.680E-03    2.29       1.8  T
   3   -126.3047803  0.646131E-07  0.129E-03    2.29       9.4  T
   4   -126.3047804 -0.106006E-06  0.368E-04    2.29      33.0  T
   5   -126.3047804 -0.218273E-08  0.219E-04    2.29      55.3  T
     SCC iter.                  ...        0 min,  0.111 sec
     gradient                   ...        0 min,  0.134 sec
 * total energy  :  -124.3587975 Eh     change       -0.4263366E-05 Eh
   gradient norm :     0.0009274 Eh/α   predicted    -0.2121104E-05 ( -50.25%)
   displ. norm   :     0.0439742 α      lambda       -0.3628978E-05
   maximum displ.:     0.0299699 α      in ANC's #9, #1, #8, ...

   *** GEOMETRY OPTIMIZATION CONVERGED AFTER 57 ITERATIONS ***

------------------------------------------------------------------------
 total energy gain   :        -0.0355376 Eh      -22.3002 kcal/mol
 total RMSD          :         1.4313521 a0        0.7574 Å
 total power (kW/mol):        -1.6369101 (step)   -3.5889 (real)
------------------------------------------------------------------------

 ANCopt (total)                0 d,  0 h,  0 min, 25.998 sec
 optimizer setup                ...        0 min,  0.000 sec (  0.001%)
 model hessian                  ...        0 min,  0.108 sec (  0.416%)
 ANC generation                 ...        0 min,  0.035 sec (  0.134%)
 coordinate transformation      ...        0 min,  0.004 sec (  0.017%)
 single point calculation       ...        0 min, 25.095 sec ( 96.527%)
 optimization log               ...        0 min,  0.046 sec (  0.175%)
 hessian update                 ...        0 min,  0.640 sec (  2.462%)
 rational function              ...        0 min,  0.021 sec (  0.081%)

================
 final structure:
================
68
 xtb: 6.3.3 (4ae9cef)
C        -0.14816427536760    5.45094266863076   -1.10753020743406
C         0.14846686757827    5.19667121936573   -2.41635334985763
C         0.05525347418289    3.88825687885018   -2.91032193685487
C        -0.31248328982804    2.85783145141999   -2.08981005772502
C        -0.60155416159673    3.07872912659451   -0.72532979435663
C        -0.53268733364108    4.41130779922873   -0.23508608199401
C        -0.85465454823607    4.67537087866022    1.11247759558520
C        -1.23961709089045    3.66341725792506    1.94176469630442
C        -1.28888269265311    2.34402632901869    1.46894683414951
C        -0.96494208472568    2.03767200520486    0.17391989482632
C        -0.95906191883341    0.60806648052956   -0.32652006075737
C         0.47878820899947    0.10006450130039   -0.58816106353675
C         0.65487194346672   -0.52184682423548   -1.95434444586689
C        -0.10242075694674   -1.63033853178736   -2.24698736213063
C        -0.00846135429805   -2.27637304296668   -3.48448431311394
C         0.84808316293076   -1.79931732614082   -4.43459045090440
C         1.64473052841190   -0.66500927507398   -4.17935649864135
C         1.56397770810770   -0.00916724897964   -2.91803656278530
C         2.39065992765769    1.11687023133236   -2.70762778177053
C         3.23229794272310    1.57061652058557   -3.68379606479341
C         3.30095735180121    0.92724066201292   -4.92765368465070
C         2.52456559676508   -0.16976656244642   -5.16542482104668
N         0.68421728239743   -0.91347281798592    0.44271628108826
C         1.91146048590644   -1.44725670349350    0.65644792402434
C         1.94042791636000   -2.46500180179858    1.75544274643884
C         1.33046511232131   -3.69052137143814    1.86307745707446
C         1.75144905497521   -4.23654057838691    3.08960724540237
C         2.59279767715148   -3.29973563797254    3.64560663607408
C         3.27354903482920   -3.32473804869694    4.87277085705289
N         3.81498268691136   -3.36229973548848    5.88260517476244
O         2.70628992847871   -2.22901509163255    2.82764069711950
O         2.88459198983427   -1.15439742038041    0.00292293295903
C        -0.45197343992307   -1.06680118416500    1.30565153322587
C        -0.21833597425410   -0.45954483948131    2.71382436654574
O         0.88437652203249    0.26924173406984    2.77108205117539
O        -0.97151183656913   -0.63259965854557    3.63150423026860
N        -1.50077948112450   -0.35271795932320    0.62303347667806
C        -2.84252595611308   -0.40452449830138    0.84505674725674
C        -3.34331294793832   -1.36566468513049    1.84859853981628
C        -4.52961441162587   -1.28247335964436    2.54120921914705
C        -4.58150916591303   -2.40728191101747    3.38010944915897
C        -3.42516260001970   -3.11314279386944    3.13295749720766
C        -2.95659001442707   -4.31784301089576    3.67955639533250
N        -2.57416795023147   -5.30446752784178    4.12198894517050
O        -2.67936929586952   -2.48097776735141    2.20057359675293
O        -3.61008149527569    0.32285778264332    0.24680238731097
H        -0.09643583031186    6.45693578883128   -0.71651511191592
H         0.44442768960858    5.99738649229619   -3.07759580600311
H         0.27529410655153    3.69352758417003   -3.94950460783355
H        -0.38719168505381    1.86509832891812   -2.50246683007082
H        -0.80001905529113    5.69296256693521    1.47052285404545
H        -1.50599701536818    3.86264420618139    2.96904797856909
H        -1.60904358500336    1.57192146319785    2.15295114103668
H        -1.57891671717325    0.54912674632019   -1.22854058793631
H         1.20182439943102    0.90271388523754   -0.42659947612692
H        -0.79076911644060   -2.01665213811977   -1.50794127846242
H        -0.61795981720941   -3.14658799450472   -3.67678457815087
[...]
         :: SCC energy              -126.304780440422 Eh    ::
         :: -> isotropic ES            0.142173159028 Eh    ::
         :: -> anisotropic ES          0.008188760408 Eh    ::
         :: -> anisotropic XC          0.068136454298 Eh    ::
         :: -> dispersion             -0.102832346494 Eh    ::
         :: repulsion energy           1.943197220317 Eh    ::
         :: add. restraining           0.000000000000 Eh    ::
         :: total charge              -0.000000000000 e     ::
         :::::::::::::::::::::::::::::::::::::::::::::::::::::

           -------------------------------------------------
          |                Property Printout                |
           -------------------------------------------------

    * Orbital Energies and Occupations

         #    Occupation            Energy/Eh            Energy/eV
      -------------------------------------------------------------
         1        2.0000           -0.7937791             -21.5998
       ...           ...                  ...                  ...
        99        2.0000           -0.4342283             -11.8160
       100        2.0000           -0.4317471             -11.7484
       101        2.0000           -0.4310356             -11.7291
       102        2.0000           -0.4290933             -11.6762
       103        2.0000           -0.4290066             -11.6739
       104        2.0000           -0.4267599             -11.6127
       105        2.0000           -0.4231771             -11.5152
       106        2.0000           -0.4172288             -11.3534
       107        2.0000           -0.4151468             -11.2967
       108        2.0000           -0.4138488             -11.2614
       109        2.0000           -0.4116329             -11.2011
       110        2.0000           -0.3919174             -10.6646
       111        2.0000           -0.3891063             -10.5881 (HOMO)
       112                         -0.3049434              -8.2979 (LUMO)
       113                         -0.2896961              -7.8830
       114                         -0.2830765              -7.7029
       115                         -0.2756116              -7.4998
       116                         -0.2723891              -7.4121
       117                         -0.2523902              -6.8679
       118                         -0.2489093              -6.7732
       119                         -0.2427980              -6.6069
       120                         -0.2421508              -6.5893
       121                         -0.2401157              -6.5339
       122                         -0.2338957              -6.3646
       ...                                ...                  ...
       206                          1.1647039              31.6932
      -------------------------------------------------------------
                  HL-Gap            0.0841629 Eh            2.2902 eV
             Fermi-level           -0.3470249 Eh           -9.4430 eV

     #   Z          covCN         q      C6AA      α(0)
     1   6 C        2.921    -0.033    28.821     8.804
     2   6 C        2.915    -0.027    28.682     8.782
     3   6 C        2.917    -0.026    28.655     8.778
     4   6 C        2.917    -0.037    28.925     8.819
     5   6 C        2.986     0.008    27.841     8.655
     6   6 C        2.988     0.017    27.630     8.622
     7   6 C        2.920    -0.035    28.861     8.810
     8   6 C        2.914    -0.030    28.743     8.791
     9   6 C        2.920    -0.030    28.747     8.792
    10   6 C        2.966    -0.002    28.069     8.690
    11   6 C        3.825     0.042    19.858     6.341
    12   6 C        3.823     0.042    19.850     6.340
    13   6 C        2.968    -0.002    28.069     8.690
    14   6 C        2.924    -0.036    28.893     8.815
    15   6 C        2.913    -0.030    28.758     8.794
    16   6 C        2.921    -0.033    28.829     8.805
    17   6 C        2.989     0.017    27.625     8.622
    18   6 C        2.982     0.016    27.645     8.625
    19   6 C        2.917    -0.028    28.698     8.785
    20   6 C        2.917    -0.026    28.640     8.776
    21   6 C        2.915    -0.027    28.673     8.781
    22   6 C        2.921    -0.033    28.819     8.803
    23   7 N        2.769    -0.106    23.328     7.173
    24   6 C        2.757     0.271    22.421     7.754
    25   6 C        3.117     0.089    25.864     8.330
    26   6 C        3.019    -0.062    29.528     8.914
    27   6 C        3.013    -0.046    29.111     8.851
    28   6 C        3.120     0.122    25.164     8.216
    29   6 C        1.894     0.112    28.346     8.599
    30   7 N        0.911    -0.197    25.277     7.271
    31   8 O        1.729    -0.159    16.690     5.516
    32   8 O        0.859    -0.388    21.440     6.208
    33   6 C        3.753     0.085    19.221     6.252
    34   6 C        2.687     0.353    21.008     7.501
    35   8 O        1.659    -0.349    19.878     6.019
    36   8 O        0.856    -0.393    21.544     6.223
    37   7 N        2.765    -0.103    23.258     7.163
    38   6 C        2.758     0.263    22.563     7.779
    39   6 C        3.109     0.098    25.689     8.304
    40   6 C        3.020    -0.039    28.949     8.826
    41   6 C        3.010    -0.041    29.008     8.835
    42   6 C        3.115     0.131    24.984     8.188
    43   6 C        1.894     0.112    28.350     8.599
    44   7 N        0.911    -0.198    25.298     7.274
    45   8 O        1.728    -0.181    17.027     5.572
    46   8 O        0.860    -0.410    21.872     6.270
    47   1 H        0.926     0.038     2.475     2.460
    48   1 H        0.926     0.037     2.489     2.467
    49   1 H        0.926     0.035     2.517     2.481
    50   1 H        0.926     0.032     2.563     2.504
    51   1 H        0.926     0.040     2.449     2.447
    52   1 H        0.926     0.037     2.494     2.469
    53   1 H        0.926     0.020     2.738     2.588
    54   1 H        0.924     0.082     1.956     2.187
    55   1 H        0.924     0.072     2.069     2.249
    56   1 H        0.925     0.025     2.656     2.548
    57   1 H        0.926     0.037     2.495     2.470
    58   1 H        0.926     0.040     2.452     2.449
    59   1 H        0.926     0.035     2.521     2.483
    60   1 H        0.926     0.036     2.499     2.472
    61   1 H        0.926     0.036     2.499     2.472
    62   1 H        0.926     0.037     2.489     2.467
    63   1 H        0.926     0.050     2.319     2.381
    64   1 H        0.926     0.067     2.124     2.279
    65   1 H        0.924     0.085     1.932     2.174
    66   1 H        0.804     0.350     0.589     1.205
    67   1 H        0.927     0.074     2.037     2.232
    68   1 H        0.926     0.065     2.142     2.289

 Mol. C6AA /au·bohr⁶  :      70461.936966
 Mol. C8AA /au·bohr⁸  :    1763592.262282
 Mol. α(0) /au        :        419.129070


Wiberg/Mayer (AO) data.
largest (>0.10) Wiberg bond orders for each atom

 ---------------------------------------------------------------------------
     #   Z sym  total        # sym  WBO       # sym  WBO       # sym  WBO
 ---------------------------------------------------------------------------
     1   6 C    3.991 --     2 C    1.555     6 C    1.281    47 H    0.968
                             4 C    0.119
     2   6 C    3.992 --     1 C    1.555     3 C    1.325    48 H    0.970
     3   6 C    3.992 --     4 C    1.551     2 C    1.325    49 H    0.971
     4   6 C    3.992 --     3 C    1.551     5 C    1.286    50 H    0.963
                             1 C    0.119
     5   6 C    3.989 --     4 C    1.286     6 C    1.256    10 C    1.245
     6   6 C    3.990 --     1 C    1.281     7 C    1.275     5 C    1.256
     7   6 C    3.990 --     8 C    1.560     6 C    1.275    51 H    0.968
                            10 C    0.114
     8   6 C    3.992 --     7 C    1.560     9 C    1.317    52 H    0.970
     9   6 C    3.991 --    10 C    1.535     8 C    1.317    53 H    0.964
    10   6 C    3.982 --     9 C    1.535     5 C    1.245    11 C    0.983
                             7 C    0.114
    11   6 C    3.955 --    10 C    0.983    37 N    0.961    12 C    0.955
                            54 H    0.943
    12   6 C    3.954 --    13 C    0.986    11 C    0.955    23 N    0.948
                            55 H    0.946
    13   6 C    3.982 --    14 C    1.519    18 C    1.257    12 C    0.986
                            16 C    0.115
    14   6 C    3.991 --    13 C    1.519    15 C    1.332    56 H    0.969
    15   6 C    3.992 --    16 C    1.548    14 C    1.332    57 H    0.970
    16   6 C    3.990 --    15 C    1.548    17 C    1.283    58 H    0.968
                            13 C    0.115
    17   6 C    3.990 --    16 C    1.283    22 C    1.278    18 C    1.250
    18   6 C    3.988 --    19 C    1.280    13 C    1.257    17 C    1.250
    19   6 C    3.992 --    20 C    1.557    18 C    1.280    59 H    0.959
                            22 C    0.119
    20   6 C    3.990 --    19 C    1.557    21 C    1.320    60 H    0.971
    21   6 C    3.992 --    22 C    1.559    20 C    1.320    61 H    0.970
    22   6 C    3.991 --    21 C    1.559    17 C    1.278    62 H    0.968
                            19 C    0.119
    23   7 N    3.473 --    24 C    1.215    33 C    0.995    12 C    0.948
                            32 O    0.203
    24   6 C    3.958 --    32 O    1.708    23 N    1.215    25 C    0.950
    25   6 C    3.914 --    26 C    1.523    31 O    1.152    24 C    0.950
                            28 C    0.128
    26   6 C    3.982 --    25 C    1.523    27 C    1.338    63 H    0.972
    27   6 C    3.985 --    28 C    1.481    26 C    1.338    64 H    0.972
    28   6 C    3.907 --    27 C    1.481    29 C    1.109    31 O    1.094
                            25 C    0.128
    29   6 C    3.955 --    30 N    2.799    28 C    1.109
    30   7 N    3.007 --    29 C    2.799
    31   8 O    2.466 --    25 C    1.152    28 C    1.094
    32   8 O    2.046 --    24 C    1.708    23 N    0.203
    33   6 C    3.969 --    23 N    0.995    37 N    0.985    65 H    0.931
                            34 C    0.900
    34   6 C    3.919 --    36 O    1.769    35 O    1.175    33 C    0.900
    35   8 O    2.241 --    34 C    1.175    66 H    0.851    36 O    0.187
    36   8 O    2.056 --    34 C    1.769    35 O    0.187
    37   7 N    3.473 --    38 C    1.196    33 C    0.985    11 C    0.961
                            46 O    0.191
    38   6 C    3.957 --    46 O    1.665    37 N    1.196    39 C    1.006
    39   6 C    3.913 --    40 C    1.504    45 O    1.125    38 C    1.006
                            42 C    0.124
    40   6 C    3.983 --    39 C    1.504    41 C    1.351    67 H    0.970
    41   6 C    3.985 --    42 C    1.472    40 C    1.351    68 H    0.972
    42   6 C    3.908 --    41 C    1.472    43 C    1.109    45 O    1.093
                            39 C    0.124
    43   6 C    3.955 --    44 N    2.797    42 C    1.109
    44   7 N    3.001 --    43 C    2.797
    45   8 O    2.448 --    39 C    1.125    42 C    1.093
    46   8 O    2.013 --    38 C    1.665    37 N    0.191
    47   1 H    0.998 --     1 C    0.968
    48   1 H    0.998 --     2 C    0.970
    49   1 H    0.998 --     3 C    0.971
    50   1 H    0.999 --     4 C    0.963
    51   1 H    0.997 --     7 C    0.968
    52   1 H    0.998 --     8 C    0.970
    53   1 H    0.999 --     9 C    0.964
    54   1 H    0.992 --    11 C    0.943
    55   1 H    0.994 --    12 C    0.946
    56   1 H    0.999 --    14 C    0.969
    57   1 H    0.998 --    15 C    0.970
    58   1 H    0.997 --    16 C    0.968
    59   1 H    0.998 --    19 C    0.959
    60   1 H    0.998 --    20 C    0.971
    61   1 H    0.998 --    21 C    0.970
    62   1 H    0.998 --    22 C    0.968
    63   1 H    0.996 --    26 C    0.972
    64   1 H    0.995 --    27 C    0.972
    65   1 H    0.992 --    33 C    0.931
    66   1 H    0.877 --    35 O    0.851
    67   1 H    0.993 --    40 C    0.970
    68   1 H    0.995 --    41 C    0.972
 ---------------------------------------------------------------------------

Topologies differ in total number of bonds
Writing topology from bond orders to xtbtopo.mol

molecular dipole:
                 x           y           z       tot (Debye)
 q only:       -0.536       1.174      -1.311
   full:       -0.926       1.344      -1.447       5.543
molecular quadrupole (traceless):
                xx          xy          yy          xz          yz          zz
 q only:      -12.783      12.875      11.835     -16.292      14.826       0.948
  q+dip:      -15.518      20.253      15.559     -26.234      29.214      -0.041
   full:      -10.355      16.621      13.564     -24.094      29.470      -3.209

           -------------------------------------------------
          |                Geometry Summary                 |
           -------------------------------------------------

      molecular mass/u    :      606.5844313
   center of mass at/Å    :       -0.0052326      -0.3229846       0.4157273
  moments of inertia/u·Å² :        0.5177674E+04   0.8517406E+04   0.1000467E+05
rotational constants/cm⁻¹ :        0.3255831E-02   0.1979198E-02   0.1684976E-02

 * 66 selected distances

     #   Z          #   Z                                           value/Å
     1   6 C        2   6 C                                       1.3658924
     2   6 C        3   6 C                                       1.4016568
     3   6 C        4   6 C                                       1.3675696
     4   6 C        5   6 C                                       1.4121488
     1   6 C        6   6 C                                       1.4106231
     5   6 C        6   6 C                                       1.4215651
     6   6 C        7   6 C                                       1.4104326
     7   6 C        8   6 C                                       1.3638047
     8   6 C        9   6 C                                       1.4024180
     5   6 C       10   6 C                                       1.4228495
     9   6 C       10   6 C                                       1.3696296
    13   6 C       14   6 C                                       1.3740036
    14   6 C       15   6 C                                       1.3991382
    15   6 C       16   6 C                                       1.3652664
    16   6 C       17   6 C                                       1.4094134
    13   6 C       18   6 C                                       1.4205689
    17   6 C       18   6 C                                       1.4239304
    18   6 C       19   6 C                                       1.4126697
    19   6 C       20   6 C                                       1.3664351
    20   6 C       21   6 C                                       1.4020800
    17   6 C       22   6 C                                       1.4112781
    21   6 C       22   6 C                                       1.3648238
    12   6 C       23   7 N                                       1.4601942 (max)
    23   7 N       24   6 C                                       1.3552610
    25   6 C       26   6 C                                       1.3731490
    26   6 C       27   6 C                                       1.4070323
    27   6 C       28   6 C                                       1.3764470
    29   6 C       30   7 N                                       1.1464409
    25   6 C       31   8 O                                       1.3385973
    28   6 C       31   8 O                                       1.3521802
    24   6 C       32   8 O                                       1.2082410
    23   7 N       33   6 C                                       1.4349551
    34   6 C       35   8 O                                       1.3230205
    34   6 C       36   8 O                                       1.1997325
    11   6 C       37   7 N                                       1.4554094
    33   6 C       37   7 N                                       1.4407902
    37   7 N       38   6 C                                       1.3609783
    39   6 C       40   6 C                                       1.3762055
    40   6 C       41   6 C                                       1.4041513
    41   6 C       42   6 C                                       1.3771206
    43   6 C       44   7 N                                       1.1469181
    39   6 C       45   8 O                                       1.3448535
    42   6 C       45   8 O                                       1.3509922
    38   6 C       46   8 O                                       1.2149629
     1   6 C       47   1 H                                       1.0805512
     2   6 C       48   1 H                                       1.0798052
     3   6 C       49   1 H                                       1.0799250
     4   6 C       50   1 H                                       1.0776762
     7   6 C       51   1 H                                       1.0801270
     8   6 C       52   1 H                                       1.0797965
     9   6 C       53   1 H                                       1.0800513
    11   6 C       54   1 H                                       1.0960542
    12   6 C       55   1 H                                       1.0923047
    14   6 C       56   1 H                                       1.0813190
    15   6 C       57   1 H                                       1.0796952
    16   6 C       58   1 H                                       1.0803271
    19   6 C       59   1 H                                       1.0778838
    20   6 C       60   1 H                                       1.0799030
    21   6 C       61   1 H                                       1.0798770
    22   6 C       62   1 H                                       1.0806343
    26   6 C       63   1 H                                       1.0711277
    27   6 C       64   1 H                                       1.0706361
    33   6 C       65   1 H                                       1.0969032
    35   8 O       66   1 H                                       0.9719915 (min)
    40   6 C       67   1 H                                       1.0702626
    41   6 C       68   1 H                                       1.0706809

 * 5 distinct bonds (by element types)

   Z      Z             #   av. dist./Å        max./Å        min./Å
   1 H    6 C          21     1.0802639     1.0969032     1.0702626
   6 C    6 C          28     1.3932966     1.4239304     1.3638047
   6 C    7 N           8     1.3501184     1.4601942     1.1464409
   1 H    8 O           1     0.9719915     0.9719915     0.9719915
   6 C    8 O           8     1.2915725     1.3521802     1.1997325


optimized geometry written to: xtbopt.xyz


           -------------------------------------------------
          | TOTAL ENERGY             -124.358797457794 Eh   |
          | GRADIENT NORM               0.000927499937 Eh/α |
          | HOMO-LUMO GAP               2.290189076623 eV   |
           -------------------------------------------------

------------------------------------------------------------------------
 * finished run on 2022/03/16 at 23:25:57.947     
------------------------------------------------------------------------
 total:
 * wall-time:     0 d,  0 h,  0 min, 27.146 sec
 *  cpu-time:     0 d,  0 h,  9 min, 30.202 sec
 * ratio c/w:    21.005 speedup
 SCF:
 * wall-time:     0 d,  0 h,  0 min,  0.571 sec
 *  cpu-time:     0 d,  0 h,  0 min,  9.121 sec
 * ratio c/w:    15.971 speedup
 ANC optimizer:
 * wall-time:     0 d,  0 h,  0 min, 26.356 sec
 *  cpu-time:     0 d,  0 h,  9 min, 16.935 sec
 * ratio c/w:    21.132 speedup

