29
 energy: -39.203744998406 gnorm: 0.048451239692 xtb: 6.3.3 (4ae9cef)
C        -5.12636300000000    0.06658200000000   -1.37423400000000
C        -4.28210200000000   -0.39720900000000   -0.44322400000000
C        -3.56165000000000    0.46498800000000    0.55468600000000
C        -2.06131700000000    0.32842100000000    0.45328000000000
C        -1.35930500000000   -0.51602700000000    1.32100700000000
C         0.02922300000000   -0.64827700000000    1.21432800000000
C         0.75243600000000    0.05220500000000    0.23608100000000
C         2.21354500000000   -0.09033400000000    0.12474500000000
C         2.81549100000000   -0.44858300000000   -1.09313500000000
C         4.20236800000000   -0.58486600000000   -1.19959700000000
C         5.01191400000000   -0.36368400000000   -0.08841500000000
C         4.43611600000000   -0.00718900000000    1.12830000000000
C         3.04894400000000    0.12747600000000    1.23316100000000
C         0.03816400000000    0.88989500000000   -0.63467800000000
C        -1.34985500000000    1.02596600000000   -0.53017100000000
H        -5.34638800000000    1.12514300000000   -1.47029900000000
H        -5.61476400000000   -0.61241400000000   -2.06658500000000
H        -4.09521400000000   -1.46791500000000   -0.38821300000000
H        -3.89101900000000    0.18506300000000    1.56316000000000
H        -3.83239900000000    1.52203600000000    0.43622400000000
H        -1.88722200000000   -1.08135600000000    2.08559900000000
H         0.54613700000000   -1.31957500000000    1.89728200000000
H         2.20003200000000   -0.63712600000000   -1.97056800000000
H         4.64760100000000   -0.86630800000000   -2.15020700000000
H         6.09040000000000   -0.46900700000000   -0.17060500000000
H         5.06476300000000    0.16938800000000    1.99704400000000
H         2.62009400000000    0.41799100000000    2.19013400000000
H         0.56393100000000    1.45474700000000   -1.40188400000000
H        -1.87356200000000    1.67996700000000   -1.22398200000000
29
 energy: -39.207045765324 gnorm: 0.011867411693 xtb: 6.3.3 (4ae9cef)
C        -5.10131435540492    0.06740290674133   -1.36587064254028
C        -4.26505924277967   -0.38645159681848   -0.44681737182687
C        -3.54923342448307    0.46891827882724    0.55483220025357
C        -2.05065273332561    0.31851166178805    0.44674796417288
C        -1.34656418144716   -0.51504140572903    1.30889725236550
C         0.03106622528006   -0.64123471662565    1.21009397910870
C         0.74748057392047    0.04993073113263    0.23435727815109
C         2.21117762933401   -0.09013561898949    0.12415418254716
C         2.80727365555523   -0.43860192348332   -1.08804818038295
C         4.18269699859201   -0.57836975067314   -1.19148597708695
C         4.98983029957461   -0.36125576135035   -0.08666022116023
C         4.41391136588256   -0.00907364568015    1.12312641170111
C         3.03747520343427    0.11974271672153    1.22854490905474
C         0.03582349746729    0.87454761292100   -0.63625988911813
C        -1.33987216279162    1.00954498222978   -0.52886351263707
H        -5.33231577501247    1.11692178901186   -1.45914461429480
H        -5.60109469254257   -0.60252316814249   -2.04787729166001
H        -4.06987379165625   -1.45025528024625   -0.38292633230181
H        -3.87155725506958    0.17404725398142    1.56044383286892
H        -3.82825830104450    1.51779774758215    0.41042150305123
H        -1.87405537564098   -1.06957436748410    2.07418794859750
H         0.55186065353044   -1.30265142944261    1.89084827936698
H         2.18899332599074   -0.62319601150052   -1.95724317161053
H         4.62549483814426   -0.85884414638119   -2.13790902107757
H         6.06401011727581   -0.46622720278345   -0.16821651354559
H         5.03896861754633    0.16685775582415    1.98848746634956
H         2.60340979249426    0.40640331296074    2.17790707896797
H         0.56446027533469    1.43697741859628   -1.39532139279449
H        -1.86408277815864    1.66582985701207   -1.21117215451961
29
 energy: -39.207471979180 gnorm: 0.003901301678 xtb: 6.3.3 (4ae9cef)
C        -5.08959914626583    0.06499989384384   -1.35571927426477
C        -4.25260862488165   -0.38547848814360   -0.44171948219404
C        -3.53941224534625    0.47308431291722    0.55883475814290
C        -2.04368569798668    0.31892413172385    0.44758662718362
C        -1.34020229288486   -0.51144282799458    1.30926208582182
C         0.03241775730680   -0.63990037022496    1.20995667494880
C         0.74235857522585    0.04625506347096    0.23071947253836
C         2.20596412003966   -0.09117738741879    0.12250069180560
C         2.79739486873391   -0.43169222938850   -1.08998125353993
C         4.16903275096371   -0.57169716190060   -1.19110953420077
C         4.97447582977510   -0.35941285929238   -0.08560404678257
C         4.39730525346009   -0.01261611300906    1.12379159097775
C         3.02449429630172    0.11351902973380    1.22907640048626
C         0.03468101664569    0.86495735499343   -0.64388299145761
C        -1.33548470554621    1.00282317612394   -0.53187966663678
H        -5.31748702235283    1.11331391757758   -1.45428057647049
H        -5.57674068554303   -0.59557805732508   -2.05211330879111
H        -4.03826753987390   -1.44476555038217   -0.37875639675199
H        -3.85600084975141    0.17428986533524    1.56307107867749
H        -3.81877846597206    1.51794842338560    0.40334362970259
H        -1.86952093240687   -1.06158633599827    2.07450381586628
H         0.55927330159072   -1.29114858906540    1.89299800668783
H         2.17483504233941   -0.60633921484141   -1.95590802662201
H         4.61183042371785   -0.84867023092871   -2.13669695055032
H         6.04671202577810   -0.46385039771173   -0.16621180751919
H         5.02031055515647    0.16064349509640    1.98917219836126
H         2.58260538550651    0.39151123492487    2.17541790838216
H         0.56724930426966    1.41834929910538   -1.40417404140121
H        -1.86315329799963    1.65473461539317   -1.21296358239992
29
 energy: -39.207607732042 gnorm: 0.004016258906 xtb: 6.3.3 (4ae9cef)
C        -5.06737051297503    0.06341197431376   -1.36086258448533
C        -4.23508752999005   -0.38573675619209   -0.44269667120916
C        -3.53375992671472    0.47767594583657    0.56324261439953
C        -2.04013422737612    0.32197516001880    0.45121908719530
C        -1.33782854006331   -0.50674487029872    1.31501288654472
C         0.03337706031317   -0.63712967554950    1.21426682527609
C         0.73829909769283    0.04364112801841    0.22840317235401
C         2.20096413889158   -0.09301074540943    0.12063169761843
C         2.79034514841214   -0.42437267771185   -1.09459878048735
C         4.16140771486066   -0.56414987446363   -1.19388246849386
C         4.96478765614281   -0.35819929135376   -0.08529011635708
C         4.38659033935183   -0.01863152668917    1.12600941074226
C         3.01433220122765    0.10505939458315    1.23121876983037
C         0.03300219795923    0.85715416599220   -0.65224417425719
C        -1.33516018190227    0.99848848418280   -0.53591658733932
H        -5.31340268695679    1.10958957295612   -1.44486131294223
H        -5.56270788851272   -0.59459182565952   -2.05358201319240
H        -4.01321670977118   -1.44299692602474   -0.37406034935257
H        -3.85102002017582    0.17915122042962    1.56617614592915
H        -3.81273830175139    1.52053866198012    0.40165418564005
H        -1.86893489684431   -1.05226209748184    2.08231003465862
H         0.56507960618204   -1.28364918112656    1.89736134318722
H         2.16447293088536   -0.59112587589126   -1.95927342558531
H         4.60572194087157   -0.83611353403249   -2.13996773845407
H         6.03642618368079   -0.46187247108001   -0.16499536117036
H         5.00867925494037    0.15080065441332    1.99253378523398
H         2.56599596175826    0.37593742336161    2.17625591031540
H         0.56850437691995    1.40111519956810   -1.41682256742672
H        -1.86662538705647    1.64604634331006   -1.21800771817220
29
 energy: -39.207559091579 gnorm: 0.007617790313 xtb: 6.3.3 (4ae9cef)
C        -5.04522475176243    0.06189013940523   -1.36593648645268
C        -4.21762209674810   -0.38596141791002   -0.44364459391419
C        -3.52809381807690    0.48227393367356    0.56765261037642
C        -2.03657540890816    0.32498454459618    0.45481232781030
C        -1.33544956347184   -0.50209480991845    1.32072060279702
C         0.03434128998083   -0.63441380732109    1.21853015833985
C         0.73424667865049    0.04097032530069    0.22603960170789
C         2.19597654623907   -0.09487111748205    0.11874460594719
C         2.78334469651119   -0.41707274963304   -1.09921889851437
C         4.15383889122514   -0.55658246036615   -1.19662752125212
C         4.95512591482615   -0.35693258871896   -0.08493301905161
C         4.37586604889257   -0.02460120518651    1.12825557938606
C         3.00415411482986    0.09660581050464    1.23335879083021
C         0.03132883540534    0.84928104973591   -0.66066473067279
C        -1.33482996381306    0.99409189761603   -0.54000871810749
H        -5.30935956977396    1.10594067764564   -1.43536575861128
H        -5.54879613000256   -0.59351846746214   -2.05497539017307
H        -3.98825193767708   -1.44120074177712   -0.36935073927933
H        -3.84600385759644    0.18403179128464    1.56929422878519
H        -3.80665228298609    1.52314503055200    0.39997776043172
H        -1.86834283770057   -1.04297341591270    2.09008307665429
H         0.57089028341826   -1.27619894178124    1.90168418704201
H         2.15418488240534   -0.57595639182719   -1.96265373817843
H         4.59969871875700   -0.82353016486750   -2.14319922860537
H         6.02617208032637   -0.45980879034593   -0.16371245080802
H         4.99701540403628    0.14103051500397    1.99593534763811
H         2.54934277824149    0.36036800365033    2.17707984616467
H         0.56976477351488    1.38380527446134   -1.42953515070956
H        -1.87009071874293    1.63729607708004   -1.22310829958058
29
 energy: -39.207717774363 gnorm: 0.003085535858 xtb: 6.3.3 (4ae9cef)
C        -5.05458730062301    0.05911824101030   -1.35819835494691
C        -4.22294615919111   -0.38721683124623   -0.43742710762617
C        -3.53070361928828    0.48351447784532    0.56990677020132
C        -2.03852159518511    0.32705684395438    0.45678158084940
C        -1.33710979039257   -0.49828728849862    1.32523250449209
C         0.03371946901084   -0.63201145595484    1.22114155277415
C         0.73374749610971    0.04060578856308    0.22553757972989
C         2.19521897517571   -0.09588275339734    0.11755451862531
C         2.78460940837890   -0.41466908465906   -1.10161094666328
C         4.15627543616142   -0.55329692143015   -1.19893837047620
C         4.95656939145222   -0.35704063409159   -0.08556032819084
C         4.37704990207435   -0.02884159970819    1.12894150551703
C         3.00424025517652    0.09231417636335    1.23351356064442
C         0.02934624840748    0.84720272778398   -0.66304483173362
C        -1.33795344683035    0.99306081386762   -0.54178036361724
H        -5.30125573184625    1.10554699988059   -1.44178047791243
H        -5.53371849903408   -0.59538172621910   -2.06640141948860
H        -3.98375016936440   -1.44118086259825   -0.37112703117683
H        -3.84907741214107    0.18744491420296    1.57243136435387
H        -3.81089037387342    1.52480163799175    0.40418097089730
H        -1.86952542588733   -1.03637596502512    2.09748601988871
H         0.57015496986561   -1.27429702075655    1.90454758044900
H         2.15647415976096   -0.57237845519529   -1.96647757145763
H         4.60349995959725   -0.81660034600125   -2.14648340251301
H         6.02828295941364   -0.45938654706206   -0.16413792686066
H         4.99834265622363    0.13371682843286    1.99773347060916
H         2.54961642234307    0.35408145791169    2.17828900448064
H         0.56687108830034    1.37966911218404   -1.43455681168907
H        -1.87398027379453    1.63471147185183   -1.22651903915975
29
 energy: -39.207781864812 gnorm: 0.001612906220 xtb: 6.3.3 (4ae9cef)
C        -5.05105183811590    0.05659718341881   -1.36047938681577
C        -4.22120235525064   -0.38739870478482   -0.43624412583974
C        -3.53364544493102    0.48544165029079    0.57252215014082
C        -2.04048176612123    0.33101311338258    0.46134265954641
C        -1.33828721001261   -0.49047025286680    1.33330480344391
C         0.03286015253402   -0.62730510814294    1.22536265075544
C         0.73267532050881    0.03959141234326    0.22477891079645
C         2.19395200996755   -0.09769957476780    0.11559743088154
C         2.78612961627197   -0.41000079608479   -1.10485657019543
C         4.15867142733392   -0.54682527014975   -1.20214212392475
C         4.95754521520846   -0.35720990390239   -0.08658470885821
C         4.37727261707004   -0.03689910329524    1.12964749533474
C         3.00374793960133    0.08437400283894    1.23314283605798
C         0.02598881947503    0.84298489960875   -0.66590781095283
C        -1.34178739031765    0.99086759800457   -0.54288695995830
H        -5.29821148582707    1.10291153820937   -1.44464797912679
H        -5.52139450515028   -0.59998360106890   -2.07314763098607
H        -3.97869805687959   -1.44040888112367   -0.37110480712359
H        -3.85511713787193    0.19130593421101    1.57523845141980
H        -3.81610745195642    1.52683324002262    0.40742868641774
H        -1.86959466289472   -1.02375784201441    2.10990461913181
H         0.56926269912194   -1.26820873297867    1.91051123969971
H         2.15991881995485   -0.56400327280001   -1.97206350713335
H         4.60765813895417   -0.80322690280154   -2.15116106937181
H         6.02995582137196   -0.45866783577887   -0.16485927243347
H         4.99820559196062    0.11958647016339    2.00025048484555
H         2.54936778379205    0.34131723338317    2.17954746526948
H         0.56146262373704    1.37116935159208   -1.44204568217696
H        -1.87909629153450    1.62807015509138   -1.23121424884428
29
 energy: -39.207897266717 gnorm: 0.003976960373 xtb: 6.3.3 (4ae9cef)
C        -5.03092834642496    0.04813517690537   -1.37037171575377
C        -4.20863747806686   -0.38747497497026   -0.43432415998666
C        -3.54029911062398    0.49171095640535    0.58174877810976
C        -2.04518812122781    0.34279561588967    0.47541215145462
C        -1.33898726400773   -0.46146663455522    1.36068823912309
C         0.03166742545398   -0.60585477788379    1.24220974611984
C         0.72821389110418    0.03807546795610    0.22234701794411
C         2.18845616266753   -0.10253056683798    0.10876323157881
C         2.78784712292080   -0.38873358216781   -1.11639377553523
C         4.16170165936405   -0.52168097481183   -1.21278510606130
C         4.95629050536133   -0.35911327142367   -0.08966695428873
C         4.37258385385932   -0.06815367197036    1.13246844711925
C         2.99827446690945    0.05383699578599    1.23245333000215
C         0.01434060163166    0.82620145595831   -0.67818470064548
C        -1.35323855097972    0.97936612512730   -0.54901469819020
H        -5.28752555101508    1.09217859402185   -1.45301466679965
H        -5.48025479990538   -0.61442971181945   -2.09141747949820
H        -3.95352982522056   -1.43709599844153   -0.37019790301501
H        -3.86929687520021    0.19944401689436    1.58374104004080
H        -3.82977000916531    1.53220263525775    0.41628348832595
H        -1.86556526076770   -0.97563878197301    2.15384352489718
H         0.56926777974247   -1.23909171976153    1.93415336485432
H         2.16719673675534   -0.52662630610522   -1.99091757448349
H         4.61548511363450   -0.75411751918591   -2.16649531732831
H         6.02994651199631   -0.45899646423819   -0.16658519840836
H         4.99101827979864    0.06550005237735    2.00948292477071
H         2.54322488267703    0.29233464527314    2.18372621345759
H         0.54299227567869    1.33796562853697   -1.47047700107765
H        -1.89528707694965    1.60125558975647   -1.24824124672609
29
 energy: -39.207950895685 gnorm: 0.003016990153 xtb: 6.3.3 (4ae9cef)
C        -5.02240825265794    0.04521823460242   -1.37466571178574
C        -4.20382561212885   -0.38743352620296   -0.43432938862854
C        -3.54126267571919    0.49312424021672    0.58390657124370
C        -2.04608441799735    0.34591414942086    0.47904215386222
C        -1.33775863125016   -0.45003503900812    1.36971710346916
C         0.03206805229279   -0.59607684999379    1.24924132251769
C         0.72686831168519    0.03856891529253    0.22268066283579
C         2.18653651557312   -0.10361272763118    0.10760858746610
C         2.78659800128555   -0.37905870540169   -1.11932187273209
C         4.16016805545328   -0.51158604067799   -1.21601795249714
C         4.95457484526236   -0.36028218840139   -0.09137237383054
C         4.36984819681669   -0.08084863514656    1.13283757283928
C         2.99598696187410    0.04153347977176    1.23283238116049
C         0.01099441823071    0.81960167316271   -0.68221421865658
C        -1.35586413566679    0.97370926081246   -0.55156538133211
H        -5.28294017547403    1.08802594185219   -1.45888871521698
H        -5.46752585750845   -0.61924157385825   -2.09592949401879
H        -3.94670299368117   -1.43633396016541   -0.36772437839346
H        -3.87102161936843    0.19935573857835    1.58497308200331
H        -3.83211299266923    1.53289003385319    0.41740047239805
H        -1.86217408483770   -0.95683879045672    2.16873141606445
H         0.57021678510632   -1.22391341339678    1.94560744419556
H         2.16728048810374   -0.50872106888679   -1.99602847603602
H         4.61419107463621   -0.73453454490108   -2.17162288640970
H         6.02804368537942   -0.45971519921684   -0.16863080227659
H         4.98725003139877    0.04363441191383    2.01162574074845
H         2.54104868412287    0.27197795209014    2.18603505663230
H         0.53724881394374    1.32535593660371   -1.47969022546986
H        -1.89924247220523    1.58932029517496   -1.25500369015233
29
 energy: -39.208024081467 gnorm: 0.001293640302 xtb: 6.3.3 (4ae9cef)
C        -5.00973378858603    0.04024016567465   -1.38320861520445
C        -4.19931886170118   -0.38801481538186   -0.43445836290751
C        -3.54301275433860    0.49392437543575    0.58569184674320
C        -2.04782690008075    0.34945220495649    0.48292315540045
C        -1.33543081547257   -0.43035262565849    1.38395634281764
C         0.03326688874935   -0.57735015745166    1.26269124480467
C         0.72574810273096    0.04136629604451    0.22570968926692
C         2.18445150732473   -0.10385608205097    0.10803537751571
C         2.78378996720223   -0.36038623460420   -1.12247154708697
C         4.15654750142077   -0.49341851863840   -1.22142332320856
C         4.95255867217386   -0.36297147460584   -0.09554184998498
C         4.36729028294189   -0.10371188758989    1.13267044828176
C         2.99449603988560    0.02035067940798    1.23465859754863
C         0.00684194566012    0.80943366706992   -0.68724341702860
C        -1.35914760575188    0.96310443652956   -0.55642947768290
H        -5.27341547785730    1.08138594143467   -1.47531198137483
H        -5.45158595751501   -0.62846952442813   -2.10154320591838
H        -3.94430061190995   -1.43702073866720   -0.36082536344460
H        -3.87250115843712    0.19686015076984    1.58523917141742
H        -3.83516608835875    1.53261207151926    0.41749859248757
H        -1.85595843647385   -0.92524417564648    2.19229022914128
H         0.57131141156613   -1.19548892202118    1.96740634418384
H         2.16598176095637   -0.47585841619207   -2.00191412150974
H         4.60888673994049   -0.70087001063966   -2.18067089454254
H         6.02528796826011   -0.46245669325906   -0.17474633672276
H         4.98368454209623    0.00448847707156    2.01368140897154
H         2.54176718897232    0.23709876981169    2.19178795709036
H         0.52911325195502    1.30664959569747   -1.49200223653019
H        -1.90362631535274    1.56850144541205   -1.26721567252390
29
 energy: -39.208063434861 gnorm: 0.001758422973 xtb: 6.3.3 (4ae9cef)
C        -4.99729635813313    0.03400758401316   -1.39295681142804
C        -4.19767468139074   -0.39068435437380   -0.43390408893987
C        -3.54506991043708    0.49352371418426    0.58637426317403
C        -2.04977547159929    0.35232608050589    0.48590471218117
C        -1.33342284911033   -0.40818081110094    1.40008935418098
C         0.03487015780225   -0.55491243638311    1.27987484205903
C         0.72525589019217    0.04638410194330    0.23156335369680
C         2.18296407769391   -0.10176899250059    0.11113267671083
C         2.77962859828131   -0.33638552933857   -1.12475589204626
C         4.15145816251625   -0.47162489694329   -1.22826928120242
C         4.95047822368462   -0.36696850710502   -0.10162866047754
C         4.36679003149659   -0.13102342561307    1.13218421864223
C         2.99509775520420   -0.00324402372630    1.23865203669270
C         0.00353922439329    0.79869605149067   -0.69226074663486
C        -1.36231071843567    0.95032756750299   -0.56328604642044
H        -5.25825381441554    1.07465502858645   -1.49788077858631
H        -5.43591746792427   -0.63916108516635   -2.10937676853517
H        -3.94908176157609   -1.44089578500843   -0.35050814676597
H        -3.87382324037393    0.19453640340254    1.58494211261291
H        -3.83850976289985    1.53110473387275    0.41605071787161
H        -1.85054197862471   -0.88926706060645    2.21884280515516
H         0.57310676590987   -1.16009316774108    1.99551873161613
H         2.16155802374753   -0.43317722890522   -2.00622769507656
H         4.60059786133198   -0.66010945630222   -2.19289494373001
H         6.02225741371582   -0.46810727346048   -0.18443204555135
H         4.98368164587994   -0.04406230662475    2.01521856546537
H         2.54602764339077    0.19644372271674    2.20116705623786
H         0.52251472675693    1.28562181566697   -1.50527496520440
H        -1.90814918707621    1.54203753701434   -1.28462457569752
29
 energy: -39.208079787557 gnorm: 0.000952640141 xtb: 6.3.3 (4ae9cef)
C        -4.99635470751815    0.03229635368409   -1.39681847558963
C        -4.20188611992801   -0.39358478567235   -0.43397109854351
C        -3.54645807161580    0.49134393351759    0.58424337228841
C        -2.05077520967988    0.35099617284847    0.48475673411606
C        -1.33406524524919   -0.40323890528269    1.40349226589797
C         0.03509398601858   -0.54810411886369    1.28587840146002
C         0.72629917073783    0.04999354790071    0.23643351509687
C         2.18406825399442   -0.09864156896118    0.11522390071923
C         2.77855264105448   -0.32817972388990   -1.12277544087261
C         4.15007783596161   -0.46511905369723   -1.23025429578245
C         4.95128450194504   -0.36895242706893   -0.10495678113764
C         4.37060354564295   -0.13885643559713    1.13087554969560
C         2.99914845504271   -0.00773189571205    1.24102024099918
C         0.00394358101666    0.79744255542101   -0.69098538532007
C        -1.36287208076903    0.94600228072036   -0.56564569894967
H        -5.24936823213511    1.07433122207533   -1.50795310791040
H        -5.43801031844702   -0.64156666465742   -2.11099363323382
H        -3.96124173382983   -1.44530856546267   -0.34587857233588
H        -3.87531215074990    0.19459572449842    1.58360490128607
H        -3.83979590968146    1.52902363428914    0.41309570999141
H        -1.85153017586634   -0.88179707056521    2.22317736140852
H         0.57289886621658   -1.14960471131694    2.00446693765679
H         2.15858728462471   -0.41989366514956   -2.00292302057507
H         4.59678180333895   -0.64937447094762   -2.19655590587024
H         6.02282233353259   -0.47244072077078   -0.19043182340982
H         4.98976225448653   -0.05844108287911    2.01265228948561
H         2.55333579539047    0.18846438193207    2.20532817923822
H         0.52306239805295    1.28308869287079   -1.50437128676539
H        -1.90865375158670    1.53325536673690   -1.29050083304366
29
 energy: -39.208087898725 gnorm: 0.000517929424 xtb: 6.3.3 (4ae9cef)
C        -4.99329838446826    0.02981867428766   -1.39979563255850
C        -4.20406869422020   -0.39734976954679   -0.43302973595941
C        -3.54672181922899    0.48991437455413    0.58258214840128
C        -2.05091791408497    0.34970842095246    0.48397672033024
C        -1.33460554935616   -0.39934444002908    1.40724897175147
C         0.03532905217249   -0.54213269183026    1.29214265708019
C         0.72656981157684    0.05322082283490    0.24057014833755
C         2.18434979704217   -0.09500550652147    0.11900473484735
C         2.77618106469266   -0.31923493237508   -1.12196106946687
C         4.14717896794085   -0.45845992463708   -1.23311858700453
C         4.95004503458655   -0.37094003492784   -0.10812911521462
C         4.37265726090861   -0.14643643221387    1.13041943354712
C         3.00150376273347   -0.01209801422697    1.24427071623614
C         0.00419465528898    0.79571635639519   -0.69135958622829
C        -1.36326310270783    0.94178212848790   -0.56880795032371
H        -5.23758999362787    1.07365023906190   -1.51501921974358
H        -5.43618185520674   -0.64297010992918   -2.11485483198478
H        -3.96929861430888   -1.45002824816358   -0.33971905722162
H        -3.87595287957513    0.19694333095641    1.58308102500503
H        -3.83989793763548    1.52733595836658    0.40859715231826
H        -1.85329028261368   -0.87446567676123    2.22865723972913
H         0.57404006118315   -1.13887209612856    2.01409785784717
H         2.15317042541999   -0.40442939203883   -2.00069917642532
H         4.59194632992743   -0.63749879083771   -2.20160200575167
H         6.02133539727053   -0.47708919411158   -0.19616235401657
H         4.99432737367750   -0.07356669052579    2.01136774443238
H         2.55758648313523    0.17922922632515    2.21067375822728
H         0.52456098806984    1.27879054847799   -1.50583160975479
H        -1.90989043859138    1.52380986410507   -1.29736637643623
29
 energy: -39.208090224971 gnorm: 0.000288347526 xtb: 6.3.3 (4ae9cef)
C        -4.99354278110871    0.02977059482903   -1.40081656106262
C        -4.20559999384430   -0.39821149371019   -0.43329510051910
C        -3.54708158013184    0.48907339166254    0.58133002929558
C        -2.05113182102975    0.34858488253268    0.48331962280070
C        -1.33493454500697   -0.40079562310116    1.40641936225205
C         0.03514813182566   -0.54272220452501    1.29210870041969
C         0.72701634722991    0.05413057315753    0.24191337054679
C         2.18488689166707   -0.09405567581500    0.12024382963438
C         2.77600608112405   -0.31960771758506   -1.12078066286524
C         4.14678685363644   -0.45927527280703   -1.23306512628787
C         4.95047545338705   -0.37127968751163   -0.10885302520246
C         4.37407285745903   -0.14544925258032    1.12977724684889
C         3.00306342233824   -0.01035753636594    1.24453151039403
C         0.00464576082165    0.79721498578334   -0.68941912228029
C        -1.36297531730647    0.94226699992940   -0.56798693108723
H        -5.23477776636034    1.07424538389927   -1.51653397343663
H        -5.43910926597347   -0.64254654580788   -2.11427358487907
H        -3.97400783959271   -1.45131781675502   -0.33816134915125
H        -3.87658209572203    0.19753132118707    1.58225305930220
H        -3.83953847312124    1.52656993943514    0.40637175017460
H        -1.85400565586753   -0.87744804210729    2.22646562176081
H         0.57352328510367   -1.13994692867325    2.01382856496160
H         2.15238737981403   -0.40539290118309   -1.99892550717365
H         4.59079000684552   -0.63938607739288   -2.20155285692206
H         6.02166623659410   -0.47821212577555   -0.19761680145715
H         4.99655170613514   -0.07219425545651    2.00995106312263
H         2.56032262118316    0.18243578128808    2.21106066741296
H         0.52524226377277    1.28182439294777   -1.50268699864980
H        -1.90929916387144    1.52454891050140   -1.29637279795239
