      -----------------------------------------------------------      
     |                   =====================                   |     
     |                           x T B                           |     
     |                   =====================                   |     
     |                         S. Grimme                         |     
     |          Mulliken Center for Theoretical Chemistry        |     
     |                    University of Bonn                     |     
      -----------------------------------------------------------      

   * xtb version 6.3.3 (4ae9cef) compiled by 'conda@95abc7406d43' on 2020-10-14

   xtb is free software: you can redistribute it and/or modify it under
   the terms of the GNU Lesser General Public License as published by
   the Free Software Foundation, either version 3 of the License, or
   (at your option) any later version.
   
   xtb is distributed in the hope that it will be useful,
   but WITHOUT ANY WARRANTY; without even the implied warranty of
   MERCHANTABILITY or FITNESS FOR A PARTICULAR PURPOSE.  See the
   GNU Lesser General Public License for more details.
   
   Cite this work as:
   * C. Bannwarth, E. Caldeweyher, S. Ehlert, A. Hansen, P. Pracht,
     J. Seibert, S. Spicher, S. Grimme, WIREs Comput. Mol. Sci., 2020,
     e01493. DOI: 10.1002/wcms.1493
   
   for GFN2-xTB:
   * S. Grimme, C. Bannwarth, P. Shushkov, J. Chem. Theory Comput., 2017,
     13, 1989-2009. DOI: 10.1021/acs.jctc.7b00118
   for GFN1-xTB:
   * C. Bannwarth, S. Ehlert and S. Grimme., J. Chem. Theory Comput., 2019,
     15, 1652-1671. DOI: 10.1021/acs.jctc.8b01176
   for GFN0-xTB:
   * P. Pracht, E. Caldeweyher, S. Ehlert, S. Grimme, ChemRxiv, 2019, preprint.
     DOI: 10.26434/chemrxiv.8326202.v1
   for GFN-FF:
   * S. Spicher and S. Grimme, Angew. Chem. Int. Ed., 2020, 59, 15665-15673.
     DOI: 10.1002/anie.202004239
   
   for DFT-D4:
   * E. Caldeweyher, C. Bannwarth and S. Grimme, J. Chem. Phys., 2017,
     147, 034112. DOI: 10.1063/1.4993215
   * E. Caldeweyher, S. Ehlert, A. Hansen, H. Neugebauer, S. Spicher,
     C. Bannwarth and S. Grimme, J. Chem. Phys., 2019, 150, 154122.
     DOI: 10.1063/1.5090222
   * E. Caldeweyher, J.-M. Mewes, S. Ehlert and S. Grimme, Phys. Chem. Chem. Phys.
     2020, 22, 8499-8512. DOI: 10.1039/D0CP00502A
   
   for sTDA-xTB:
   * S. Grimme and C. Bannwarth, J. Chem. Phys., 2016, 145, 054103.
     DOI: 10.1063/1.4959605
   
   in the mass-spec context:
   * V. Asgeirsson, C. Bauer and S. Grimme, Chem. Sci., 2017, 8, 4879.
     DOI: 10.1039/c7sc00601b
   * J. Koopman and S. Grimme, ACS Omega 2019, 4, 12, 15120-15133.
     DOI: 10.1021/acsomega.9b02011
   
   for metadynamics refer to:
   * S. Grimme, J. Chem. Theory Comput., 2019, 155, 2847-2862
     DOI: 10.1021/acs.jctc.9b00143
   
   with help from (in alphabetical order)
   C. Bannwarth, F. Bohle, G. Brandenburg, E. Caldeweyher, M. Checinski,
   S. Dohm, S. Ehlert, S. Ehrlich, F. März, H. Neugebauer, J. Pisarek,
   P. Pracht, P. Shushkov, and S. Spicher.
   
 * started run on 2022/03/17 at 02:20:31.779     

           -------------------------------------------------
          |                Calculation Setup                |
           -------------------------------------------------

          program call               : xtb sub_7.xyz --opt --chrg 0 --uhf 0 --gfn 2
          coordinate file            : sub_7.xyz
          omp threads                :                    64
          number of atoms            :                    28
          number of electrons        :                    84
          charge                     :                     0
          spin                       :                   0.0
          first test random number   :      0.66630850166024

   ID    Z sym.   atoms
    1    9 F      1
    2    6 C      2-5, 7-9, 11-17
    3    7 N      6, 10
    4    1 H      18-28

           -------------------------------------------------
          |                 G F N 2 - x T B                 |
           -------------------------------------------------

        Reference                      10.1021/acs.jctc.8b01176
      * Hamiltonian:
        H0-scaling (s, p, d)           1.850000    2.230000    2.230000
        zeta-weighting                 0.500000
      * Dispersion:
        s8                             2.700000
        a1                             0.520000
        a2                             5.000000
        s9                             5.000000
      * Repulsion:
        kExp                           1.500000    1.000000
        rExp                           1.000000
      * Coulomb:
        alpha                          2.000000
        third order                    shell-resolved
        anisotropic                    true
        a3                             3.000000
        a5                             4.000000
        cn-shift                       1.200000
        cn-exp                         4.000000
        max-rad                        5.000000


          ...................................................
          :                      SETUP                      :
          :.................................................:
          :  # basis functions                  79          :
          :  # atomic orbitals                  79          :
          :  # shells                           45          :
          :  # electrons                        84          :
          :  max. iterations                   250          :
          :  Hamiltonian                  GFN2-xTB          :
          :  restarted?                      false          :
          :  GBSA solvation                  false          :
          :  PC potential                    false          :
          :  electronic temp.          300.0000000     K    :
          :  accuracy                    1.0000000          :
          :  -> integral cutoff          0.2500000E+02      :
          :  -> integral neglect         0.1000000E-07      :
          :  -> SCF convergence          0.1000000E-05 Eh   :
          :  -> wf. convergence          0.1000000E-03 e    :
          :  Broyden damping             0.4000000          :
          ...................................................

 iter      E             dE          RMSdq      gap      omega  full diag
   1    -46.8146464 -0.468146E+02  0.416E+00    2.94       0.0  T
   2    -46.8610279 -0.463815E-01  0.273E+00    2.86       1.0  T
   3    -46.8516636  0.936427E-02  0.140E+00    3.05       1.0  T
   4    -46.8716140 -0.199504E-01  0.450E-01    2.84       1.0  T
   5    -46.8754761 -0.386210E-02  0.123E-01    2.90       1.0  T
   6    -46.8756898 -0.213628E-03  0.554E-02    2.90       1.0  T
   7    -46.8757444 -0.546865E-04  0.218E-02    2.90       1.0  T
   8    -46.8757458 -0.132874E-05  0.106E-02    2.90       1.8  T
   9    -46.8757470 -0.125867E-05  0.320E-03    2.90       5.9  T
  10    -46.8757471 -0.476587E-07  0.117E-03    2.90      16.2  T
  11    -46.8757471 -0.240691E-07  0.449E-04    2.90      42.1  T
  12    -46.8757471 -0.153646E-08  0.228E-04    2.90      82.8  T

   *** convergence criteria satisfied after 12 iterations ***

         #    Occupation            Energy/Eh            Energy/eV
      -------------------------------------------------------------
         1        2.0000           -0.8078935             -21.9839
       ...           ...                  ...                  ...
        36        2.0000           -0.4385731             -11.9342
        37        2.0000           -0.4328172             -11.7776
        38        2.0000           -0.4258595             -11.5882
        39        2.0000           -0.4139340             -11.2637
        40        2.0000           -0.3891446             -10.5892
        41        2.0000           -0.3833867             -10.4325
        42        2.0000           -0.3717553             -10.1160 (HOMO)
        43                         -0.2652160              -7.2169 (LUMO)
        44                         -0.2523589              -6.8670
        45                         -0.2415101              -6.5718
        46                         -0.2028818              -5.5207
        47                         -0.1693654              -4.6087
       ...                                ...                  ...
        79                          0.6971194              18.9696
      -------------------------------------------------------------
                  HL-Gap            0.1065393 Eh            2.8991 eV
             Fermi-level           -0.3184856 Eh           -8.6664 eV

 SCC (total)                   0 d,  0 h,  0 min,  0.236 sec
 SCC setup                      ...        0 min,  0.014 sec (  5.867%)
 Dispersion                     ...        0 min,  0.013 sec (  5.640%)
 classical contributions        ...        0 min,  0.015 sec (  6.341%)
 integral evaluation            ...        0 min,  0.047 sec ( 19.700%)
 iterations                     ...        0 min,  0.023 sec (  9.848%)
 molecular gradient             ...        0 min,  0.124 sec ( 52.448%)
 printout                       ...        0 min,  0.000 sec (  0.127%)

         :::::::::::::::::::::::::::::::::::::::::::::::::::::
         ::                     SUMMARY                     ::
         :::::::::::::::::::::::::::::::::::::::::::::::::::::
         :: total energy             -46.178208307427 Eh    ::
         :: gradient norm              0.077343605363 Eh/a0 ::
         :: HOMO-LUMO gap              2.899082786371 eV    ::
         ::.................................................::
         :: SCC energy               -46.875747097225 Eh    ::
         :: -> isotropic ES            0.023227176799 Eh    ::
         :: -> anisotropic ES          0.002983984655 Eh    ::
         :: -> anisotropic XC          0.023624823621 Eh    ::
         :: -> dispersion             -0.029319237125 Eh    ::
         :: repulsion energy           0.697673525170 Eh    ::
         :: add. restraining           0.000000000000 Eh    ::
         :: total charge              -0.000000000000 e     ::
         :::::::::::::::::::::::::::::::::::::::::::::::::::::

      ----------------------------------------------------------- 
     |                   =====================                   |
     |                        A N C O P T                        |
     |                   =====================                   |
     |               Approximate Normal Coordinate               |
     |                Rational Function Optimizer                |
      ----------------------------------------------------------- 

          ...................................................
          :                      SETUP                      :
          :.................................................:
          :   optimization level            normal          :
          :   max. optcycles                   200          :
          :   ANC micro-cycles                  20          :
          :   degrees of freedom                78          :
          :.................................................:
          :   RF solver                   davidson          :
          :   write xtbopt.log                true          :
          :   linear?                        false          :
          :   energy convergence         0.5000000E-05 Eh   :
          :   grad. convergence          0.1000000E-02 Eh/α :
          :   maximium RF displ.         1.0000000          :
          :   Hlow (freq-cutoff)         0.1000000E-01      :
          :   Hmax (freq-cutoff)         5.0000000          :
          :   S6 in model hess.         20.0000000          :
          ...................................................

generating ANC from model Hessian ...
Using Lindh-Hessian (1995)
 Shifting diagonal of input Hessian by    9.0674473933467399E-003
 Lowest  eigenvalues of input Hessian
    0.000000    0.000000    0.000000    0.000000    0.000000    0.000000
    0.010000    0.010712    0.011067    0.013370    0.017452    0.018227
    0.019300    0.023890    0.024336    0.027154    0.030626    0.030850
 Highest eigenvalues
    1.911012    1.948964    1.999468    2.045498    2.092671    2.139088


........................................................................
.............................. CYCLE    1 ..............................
........................................................................
   1    -46.8757471 -0.468757E+02  0.699E-05    2.90       0.0  T
   2    -46.8757471 -0.401457E-10  0.405E-05    2.90     467.0  T
   3    -46.8757471 -0.168754E-10  0.252E-05    2.90     749.6  T
     SCC iter.                  ...        0 min,  0.010 sec
     gradient                   ...        0 min,  0.126 sec
 * total energy  :   -46.1782083 Eh     change       -0.2752998E-09 Eh
   gradient norm :     0.0773430 Eh/α   predicted     0.0000000E+00 (-100.00%)
   displ. norm   :     0.2974673 α      lambda       -0.9791959E-02
   maximum displ.:     0.1169325 α      in ANC's #9, #12, #11, ...

........................................................................
.............................. CYCLE    2 ..............................
........................................................................
   1    -46.9127517 -0.469128E+02  0.186E-01    3.04       0.0  T
   2    -46.9128537 -0.102002E-03  0.132E-01    3.04       1.0  T
   3    -46.9128675 -0.138372E-04  0.665E-02    3.05       1.0  T
   4    -46.9129221 -0.546239E-04  0.169E-02    3.05       1.1  T
   5    -46.9129270 -0.489386E-05  0.582E-03    3.05       3.2  T
   6    -46.9129274 -0.384516E-06  0.258E-03    3.05       7.3  T
   7    -46.9129275 -0.500488E-07  0.901E-04    3.05      21.0  T
   8    -46.9129275 -0.711568E-08  0.297E-04    3.05      63.7  T
     SCC iter.                  ...        0 min,  0.021 sec
     gradient                   ...        0 min,  0.134 sec
 * total energy  :   -46.1848576 Eh     change       -0.6649287E-02 Eh
   gradient norm :     0.0309342 Eh/α   predicted    -0.5329228E-02 ( -19.85%)
   displ. norm   :     0.2453796 α      lambda       -0.2558823E-02
   maximum displ.:     0.1122884 α      in ANC's #9, #12, #10, ...

........................................................................
.............................. CYCLE    3 ..............................
........................................................................
   1    -46.9309332 -0.469309E+02  0.117E-01    3.11       0.0  T
   2    -46.9309949 -0.617130E-04  0.871E-02    3.12       1.0  T
   3    -46.9310211 -0.261771E-04  0.440E-02    3.13       1.0  T
   4    -46.9310320 -0.108448E-04  0.139E-02    3.12       1.4  T
   5    -46.9310349 -0.295492E-05  0.435E-03    3.13       4.3  T
   6    -46.9310352 -0.244264E-06  0.180E-03    3.13      10.5  T
   7    -46.9310352 -0.216145E-07  0.611E-04    3.13      30.9  T
   8    -46.9310352 -0.318911E-08  0.204E-04    3.13      92.6  T
     SCC iter.                  ...        0 min,  0.014 sec
     gradient                   ...        0 min,  0.143 sec
 * total energy  :   -46.1862545 Eh     change       -0.1396954E-02 Eh
   gradient norm :     0.0068793 Eh/α   predicted    -0.1356451E-02 (  -2.90%)
   displ. norm   :     0.1135021 α      lambda       -0.2327311E-03
   maximum displ.:     0.0694904 α      in ANC's #3, #6, #1, ...

........................................................................
.............................. CYCLE    4 ..............................
........................................................................
   1    -46.9306450 -0.469306E+02  0.531E-02    3.12       0.0  T
   2    -46.9306475 -0.245052E-05  0.319E-02    3.12       1.0  T
   3    -46.9306452  0.225218E-05  0.115E-02    3.12       1.6  T
   4    -46.9306480 -0.278555E-05  0.261E-03    3.12       7.3  T
   5    -46.9306481 -0.135473E-06  0.959E-04    3.12      19.7  T
   6    -46.9306481 -0.102519E-07  0.447E-04    3.12      42.3  T
     SCC iter.                  ...        0 min,  0.020 sec
     gradient                   ...        0 min,  0.164 sec
 * total energy  :   -46.1864273 Eh     change       -0.1727793E-03 Eh
   gradient norm :     0.0039122 Eh/α   predicted    -0.1178799E-03 ( -31.77%)
   displ. norm   :     0.1747599 α      lambda       -0.1985774E-03
   maximum displ.:     0.1174299 α      in ANC's #3, #1, #6, ...

........................................................................
.............................. CYCLE    5 ..............................
........................................................................
   1    -46.9292382 -0.469292E+02  0.766E-02    3.12       0.0  T
   2    -46.9292403 -0.211675E-05  0.451E-02    3.12       1.0  T
   3    -46.9292376  0.267542E-05  0.125E-02    3.12       1.5  T
   4    -46.9292410 -0.342501E-05  0.204E-03    3.12       9.3  T
   5    -46.9292411 -0.314828E-07  0.949E-04    3.12      19.9  T
   6    -46.9292411 -0.300082E-08  0.419E-04    3.12      45.1  T
     SCC iter.                  ...        0 min,  0.020 sec
     gradient                   ...        0 min,  0.136 sec
 * total energy  :   -46.1865614 Eh     change       -0.1340914E-03 Eh
   gradient norm :     0.0037879 Eh/α   predicted    -0.1023217E-03 ( -23.69%)
   displ. norm   :     0.1400912 α      lambda       -0.9276927E-04
   maximum displ.:     0.0921189 α      in ANC's #3, #1, #2, ...

........................................................................
.............................. CYCLE    6 ..............................
........................................................................
   1    -46.9288095 -0.469288E+02  0.626E-02    3.12       0.0  T
   2    -46.9288103 -0.769347E-06  0.366E-02    3.11       1.0  T
   3    -46.9288090  0.136014E-05  0.791E-03    3.11       2.4  T
   4    -46.9288106 -0.169126E-05  0.143E-03    3.11      13.2  T
   5    -46.9288107 -0.101962E-07  0.711E-04    3.11      26.6  T
   6    -46.9288107 -0.484297E-08  0.258E-04    3.11      73.3  T
     SCC iter.                  ...        0 min,  0.012 sec
     gradient                   ...        0 min,  0.149 sec
 * total energy  :   -46.1866374 Eh     change       -0.7602327E-04 Eh
   gradient norm :     0.0040070 Eh/α   predicted    -0.4729788E-04 ( -37.78%)
   displ. norm   :     0.1982744 α      lambda       -0.1209380E-03
   maximum displ.:     0.1223821 α      in ANC's #3, #1, #2, ...

........................................................................
.............................. CYCLE    7 ..............................
........................................................................
   1    -46.9288716 -0.469289E+02  0.899E-02    3.12       0.0  T
   2    -46.9288734 -0.177470E-05  0.524E-02    3.11       1.0  T
   3    -46.9288717  0.170142E-05  0.899E-03    3.11       2.1  T
   4    -46.9288739 -0.217747E-05  0.228E-03    3.11       8.3  T
   5    -46.9288739 -0.632220E-07  0.977E-04    3.11      19.3  T
   6    -46.9288739 -0.231198E-08  0.489E-04    3.11      38.7  T
     SCC iter.                  ...        0 min,  0.014 sec
     gradient                   ...        0 min,  0.122 sec
 * total energy  :   -46.1867337 Eh     change       -0.9623864E-04 Eh
   gradient norm :     0.0033119 Eh/α   predicted    -0.6285327E-04 ( -34.69%)
   displ. norm   :     0.2457827 α      lambda       -0.1124519E-03
   maximum displ.:     0.1436772 α      in ANC's #3, #1, #2, ...

........................................................................
.............................. CYCLE    8 ..............................
........................................................................
   1    -46.9290637 -0.469291E+02  0.113E-01    3.11       0.0  T
   2    -46.9290661 -0.235104E-05  0.657E-02    3.11       1.0  T
   3    -46.9290653  0.757422E-06  0.763E-03    3.11       2.5  T
   4    -46.9290666 -0.128236E-05  0.266E-03    3.11       7.1  T
   5    -46.9290667 -0.832549E-07  0.107E-03    3.11      17.6  T
   6    -46.9290667 -0.196806E-08  0.411E-04    3.11      46.0  T
   7    -46.9290667 -0.280989E-08  0.124E-04    3.11     152.3  T
     SCC iter.                  ...        0 min,  0.020 sec
     gradient                   ...        0 min,  0.142 sec
 * total energy  :   -46.1868138 Eh     change       -0.8012289E-04 Eh
   gradient norm :     0.0026748 Eh/α   predicted    -0.5963524E-04 ( -25.57%)
   displ. norm   :     0.1603129 α      lambda       -0.5067148E-04
   maximum displ.:     0.1029680 α      in ANC's #1, #3, #2, ...

........................................................................
.............................. CYCLE    9 ..............................
........................................................................
   1    -46.9296244 -0.469296E+02  0.736E-02    3.11       0.0  T
   2    -46.9296252 -0.770825E-06  0.429E-02    3.11       1.0  T
   3    -46.9296250  0.185534E-06  0.449E-03    3.11       4.2  T
   4    -46.9296254 -0.392545E-06  0.172E-03    3.11      11.0  T
   5    -46.9296254 -0.281308E-07  0.730E-04    3.11      25.9  T
   6    -46.9296254 -0.266522E-08  0.293E-04    3.11      64.6  T
     SCC iter.                  ...        0 min,  0.012 sec
     gradient                   ...        0 min,  0.134 sec
 * total energy  :   -46.1868510 Eh     change       -0.3719361E-04 Eh
   gradient norm :     0.0018796 Eh/α   predicted    -0.2598787E-04 ( -30.13%)
   displ. norm   :     0.1360415 α      lambda       -0.2620236E-04
   maximum displ.:     0.1033297 α      in ANC's #1, #2, #3, ...

........................................................................
.............................. CYCLE   10 ..............................
........................................................................
   1    -46.9305661 -0.469306E+02  0.607E-02    3.11       0.0  T
   2    -46.9305667 -0.536157E-06  0.354E-02    3.11       1.0  T
   3    -46.9305658  0.899428E-06  0.653E-03    3.11       2.9  T
   4    -46.9305669 -0.113202E-05  0.145E-03    3.11      13.0  T
   5    -46.9305669 -0.120120E-07  0.700E-04    3.11      27.0  T
   6    -46.9305669 -0.373964E-08  0.207E-04    3.11      91.4  T
     SCC iter.                  ...        0 min,  0.012 sec
     gradient                   ...        0 min,  0.143 sec
 * total energy  :   -46.1868768 Eh     change       -0.2579444E-04 Eh
   gradient norm :     0.0010742 Eh/α   predicted    -0.1321290E-04 ( -48.78%)
   displ. norm   :     0.0569170 α      lambda       -0.1004717E-04
   maximum displ.:     0.0499694 α      in ANC's #1, #2, #5, ...

........................................................................
.............................. CYCLE   11 ..............................
........................................................................
   1    -46.9304026 -0.469304E+02  0.192E-02    3.11       0.0  T
   2    -46.9304026 -0.721265E-07  0.112E-02    3.11       1.7  T
   3    -46.9304025  0.128300E-06  0.243E-03    3.11       7.8  T
   4    -46.9304027 -0.156934E-06  0.532E-04    3.11      35.5  T
   5    -46.9304027 -0.327366E-08  0.262E-04    3.11      72.1  T
     SCC iter.                  ...        0 min,  0.010 sec
     gradient                   ...        0 min,  0.125 sec
 * total energy  :   -46.1868897 Eh     change       -0.1288228E-04 Eh
   gradient norm :     0.0007580 Eh/α   predicted    -0.5035448E-05 ( -60.91%)
   displ. norm   :     0.0595711 α      lambda       -0.1058681E-04
   maximum displ.:     0.0448220 α      in ANC's #1, #3, #5, ...

........................................................................
.............................. CYCLE   12 ..............................
........................................................................
   1    -46.9303869 -0.469304E+02  0.139E-02    3.11       0.0  T
   2    -46.9303869 -0.321551E-07  0.818E-03    3.11       2.3  T
   3    -46.9303868  0.716550E-07  0.166E-03    3.11      11.4  T
   4    -46.9303869 -0.862345E-07  0.332E-04    3.11      56.8  T
   5    -46.9303869 -0.131995E-08  0.178E-04    3.11     105.9  T
     SCC iter.                  ...        0 min,  0.013 sec
     gradient                   ...        0 min,  0.137 sec
 * total energy  :   -46.1869031 Eh     change       -0.1345013E-04 Eh
   gradient norm :     0.0008835 Eh/α   predicted    -0.5306338E-05 ( -60.55%)
   displ. norm   :     0.0732625 α      lambda       -0.1136300E-04
   maximum displ.:     0.0554205 α      in ANC's #1, #3, #2, ...

........................................................................
.............................. CYCLE   13 ..............................
........................................................................
   1    -46.9300965 -0.469301E+02  0.174E-02    3.11       0.0  T
   2    -46.9300965 -0.273822E-07  0.103E-02    3.11       1.8  T
   3    -46.9300965  0.433779E-07  0.143E-03    3.11      13.2  T
   4    -46.9300965 -0.574769E-07  0.296E-04    3.11      63.8  T
   5    -46.9300965 -0.967830E-10  0.149E-04    3.11     126.8  T
     SCC iter.                  ...        0 min,  0.010 sec
     gradient                   ...        0 min,  0.114 sec
 * total energy  :   -46.1869171 Eh     change       -0.1401383E-04 Eh
   gradient norm :     0.0010127 Eh/α   predicted    -0.5695750E-05 ( -59.36%)
   displ. norm   :     0.0857248 α      lambda       -0.1100721E-04
   maximum displ.:     0.0653550 α      in ANC's #1, #3, #6, ...

........................................................................
.............................. CYCLE   14 ..............................
........................................................................
   1    -46.9299614 -0.469300E+02  0.196E-02    3.11       0.0  T
   2    -46.9299614 -0.303134E-07  0.116E-02    3.11       1.6  T
   3    -46.9299614  0.568487E-08  0.884E-04    3.10      21.4  T
   4    -46.9299614 -0.167320E-07  0.336E-04    3.11      56.3  T
     SCC iter.                  ...        0 min,  0.009 sec
     gradient                   ...        0 min,  0.061 sec
 * total energy  :   -46.1869308 Eh     change       -0.1362555E-04 Eh
   gradient norm :     0.0007352 Eh/α   predicted    -0.5524865E-05 ( -59.45%)
   displ. norm   :     0.1007717 α      lambda       -0.1016169E-04
   maximum displ.:     0.0780438 α      in ANC's #1, #3, #6, ...

........................................................................
.............................. CYCLE   15 ..............................
........................................................................
   1    -46.9302215 -0.469302E+02  0.245E-02    3.11       0.0  T
   2    -46.9302216 -0.665179E-07  0.144E-02    3.11       1.3  T
   3    -46.9302215  0.725120E-07  0.175E-03    3.11      10.8  T
   4    -46.9302216 -0.949841E-07  0.484E-04    3.11      39.1  T
   5    -46.9302216 -0.267472E-08  0.255E-04    3.11      74.0  T
     SCC iter.                  ...        0 min,  0.010 sec
     gradient                   ...        0 min,  0.121 sec
 * total energy  :   -46.1869426 Eh     change       -0.1179203E-04 Eh
   gradient norm :     0.0004321 Eh/α   predicted    -0.5105072E-05 ( -56.71%)
   displ. norm   :     0.0893704 α      lambda       -0.6173650E-05
   maximum displ.:     0.0714730 α      in ANC's #1, #3, #6, ...

........................................................................
.............................. CYCLE   16 ..............................
........................................................................
   1    -46.9301291 -0.469301E+02  0.247E-02    3.10       0.0  T
   2    -46.9301292 -0.767187E-07  0.145E-02    3.10       1.3  T
   3    -46.9301291  0.510107E-07  0.188E-03    3.10      10.1  T
   4    -46.9301292 -0.765449E-07  0.518E-04    3.10      36.5  T
   5    -46.9301292 -0.154311E-08  0.257E-04    3.10      73.5  T
     SCC iter.                  ...        0 min,  0.013 sec
     gradient                   ...        0 min,  0.130 sec
 * total energy  :   -46.1869495 Eh     change       -0.6941002E-05 Eh
   gradient norm :     0.0004464 Eh/α   predicted    -0.3100634E-05 ( -55.33%)
   displ. norm   :     0.0605704 α      lambda       -0.3087355E-05
   maximum displ.:     0.0494226 α      in ANC's #1, #6, #3, ...

........................................................................
.............................. CYCLE   17 ..............................
........................................................................
   1    -46.9302234 -0.469302E+02  0.193E-02    3.10       0.0  T
   2    -46.9302234 -0.510076E-07  0.113E-02    3.10       1.7  T
   3    -46.9302234  0.424640E-07  0.151E-03    3.10      12.5  T
   4    -46.9302234 -0.572714E-07  0.413E-04    3.10      45.7  T
   5    -46.9302234 -0.166449E-08  0.206E-04    3.10      91.6  T
     SCC iter.                  ...        0 min,  0.014 sec
     gradient                   ...        0 min,  0.137 sec
 * total energy  :   -46.1869532 Eh     change       -0.3675675E-05 Eh
   gradient norm :     0.0003185 Eh/α   predicted    -0.1547451E-05 ( -57.90%)
   displ. norm   :     0.0613201 α      lambda       -0.1020651E-05
   maximum displ.:     0.0503389 α      in ANC's #1, #6, #3, ...

   *** GEOMETRY OPTIMIZATION CONVERGED AFTER 17 ITERATIONS ***

------------------------------------------------------------------------
 total energy gain   :        -0.0087449 Eh       -5.4875 kcal/mol
 total RMSD          :         0.3006863 a0        0.1591 Å
 total power (kW/mol):        -1.3505671 (step)   -5.8160 (real)
------------------------------------------------------------------------

 ANCopt (total)                0 d,  0 h,  0 min,  3.948 sec
 optimizer setup                ...        0 min,  0.000 sec (  0.003%)
 model hessian                  ...        0 min,  0.011 sec (  0.272%)
 ANC generation                 ...        0 min,  0.001 sec (  0.034%)
 coordinate transformation      ...        0 min,  0.000 sec (  0.005%)
 single point calculation       ...        0 min,  3.705 sec ( 93.843%)
 optimization log               ...        0 min,  0.001 sec (  0.035%)
 hessian update                 ...        0 min,  0.227 sec (  5.753%)
 rational function              ...        0 min,  0.001 sec (  0.031%)

================
 final structure:
================
28
 xtb: 6.3.3 (4ae9cef)
F        -5.52850871229174    1.40838305487945   -0.09740845180232
C        -4.27773675783398    0.89338157508000   -0.16923173620386
C        -4.12262277111136   -0.46905688981411   -0.26624177245013
C        -2.81970316080611   -0.95744712013405   -0.33288723809912
C        -1.71718830759364   -0.06610775652869   -0.27594516146999
N        -0.56814411902875   -0.82194459816933   -0.36664638114537
C        -0.93236732220253   -2.14114280726790   -0.51052607599294
C        -2.28222440147859   -2.26819500340021   -0.47916349789616
C         0.75911171825106   -0.40948255488759   -0.29954731109921
N         1.62453541664547   -1.15853723342469   -0.97318419087989
C         2.90267774889059   -0.83536194372115   -0.94537469419669
C         3.41502105836407    0.25431416869230   -0.25090917798480
C         4.87618504841691    0.57130832739426   -0.25022123145621
C         2.50339023275441    1.01454845185338    0.47768587215213
C         1.16225494264406    0.68523154612697    0.46727084072371
C        -1.91144192255706    1.30920716577636   -0.22389686396471
C        -3.20537930801678    1.78324528180533   -0.16368171432942
H        -4.97805319817105   -1.12413906829581   -0.29923925393656
H        -0.16696515566575   -2.88488351202649   -0.61123226251853
H        -2.84280027489461   -3.17833610876459   -0.55108218759191
H         3.55349870589736   -1.48704720253682   -1.51465109888667
H         5.36590158178542    0.13851496073542   -1.11891725892974
H         5.03696380945809    1.64734778815377   -0.24984826880883
H         5.34595134658307    0.16161830162367    0.64465050709143
H         2.84818857799698    1.85571346229924    1.06276514859444
H         0.45291186443596    1.23384917480024    1.06445643130735
H        -1.08705092775251    2.00334946673466   -0.25718627711307
H        -3.40640371271952    2.84167007301671   -0.11936769311321

 Bond Distances (Angstroems)
 ---------------------------
F1-C2=1.3546         C2-F1=1.3546         C2-C3=1.3747         C2-C17=1.3935        C3-C2=1.3747         C3-C4=1.3930         
C3-H18=1.0780        C4-C3=1.3930         C4-C5=1.4189         C4-C8=1.4242         C5-C4=1.4189         C5-N6=1.3783         
C5-C16=1.3899        N6-C5=1.3783         N6-C7=1.3761         N6-C9=1.3915         C7-N6=1.3761         C7-C8=1.3562         
C7-H19=1.0720        C8-C4=1.4242         C8-C7=1.3562         C8-H20=1.0713        C9-N6=1.3915         C9-N10=1.3281        
C9-C15=1.3960        N10-C9=1.3281        N10-C11=1.3187       C11-N10=1.3187       C11-C12=1.3900       C11-H21=1.0827       
C12-C11=1.3900       C12-C13=1.4952       C12-C14=1.3928       C13-C12=1.4952       C13-H22=1.0871       C13-H23=1.0880       
C13-H24=1.0906       C14-C12=1.3928       C14-C15=1.3810       C14-H25=1.0811       C15-C9=1.3960        C15-C14=1.3810       
C15-H26=1.0774       C16-C5=1.3899        C16-C17=1.3794       C16-H27=1.0782       C17-C2=1.3935        C17-C16=1.3794       
C17-H28=1.0783       H18-C3=1.0780        H19-C7=1.0720        H20-C8=1.0713        H21-C11=1.0827       H22-C13=1.0871       
H23-C13=1.0880       H24-C13=1.0906       H25-C14=1.0811       H26-C15=1.0774       H27-C16=1.0782       H28-C17=1.0783       
 C  H  Rav=1.0804 sigma=0.0059  Rmin=1.0713  Rmax=1.0906    11
 C  C  Rav=1.3988 sigma=0.0324  Rmin=1.3562  Rmax=1.4952    13
 N  C  Rav=1.3585 sigma=0.0293  Rmin=1.3187  Rmax=1.3915     5
 F  C  Rav=1.3546 sigma=0.0000  Rmin=1.3546  Rmax=1.3546     1

 selected bond angles (degree)
 --------------------
C3-C2-F1=119.00                C17-C2-F1=117.88               C17-C2-C3=123.12               C4-C3-C2=117.15                
H18-C3-C2=120.99               H18-C3-C4=121.85               C5-C4-C3=120.30                C8-C4-C3=132.89                
C8-C4-C5=106.80                N6-C5-C4=107.50                C16-C5-C4=120.96               C16-C5-N6=131.42               
C7-N6-C5=108.18                C9-N6-C5=129.01                C9-N6-C7=122.80                C8-C7-N6=110.54                
H19-C7-N6=119.08               H19-C7-C8=130.38               C7-C8-C4=106.96                H20-C8-C4=126.25               
H20-C8-C7=126.79               N10-C9-N6=115.46               C15-C9-N6=122.30               C15-C9-N10=122.19              
C11-N10-C9=118.86              

 selected dihedral angles (degree)
 ---------------------------------
C4-C3-C2-F1=180.23            C4-C3-C2-C17=  1.36           H18-C3-C2-F1=  0.85           H18-C3-C2-C17=181.99          
C5-C4-C3-C2=  1.13            C5-C4-C3-H18=180.50           C8-C4-C3-C2=182.36            C8-C4-C3-H18=  1.73           
N6-C5-C4-C3=180.16            N6-C5-C4-C8=359.22            C16-C5-C4-C3=356.60           C16-C5-C4-C8=175.66           
C7-N6-C5-C4=  1.48            C7-N6-C5-C16=185.55           C9-N6-C5-C4=183.03            C9-N6-C5-C16=  7.11           
C8-C7-N6-C5=358.33            C8-C7-N6-C9=176.89            H19-C7-N6-C5=179.17           H19-C7-N6-C9=357.73           
C7-C8-C4-C3=178.68            C7-C8-C4-C5=359.78            H20-C8-C4-C3=358.72           H20-C8-C4-C5=179.83           
C4-C8-C7-N6=  1.15            C4-C8-C7-H19=180.19           H20-C8-C7-N6=181.11           H20-C8-C7-H19=  0.15          
N10-C9-N6-C5=208.72           N10-C9-N6-C7= 30.47           C15-C9-N6-C5= 31.21           C15-C9-N6-C7=212.96           
C11-N10-C9-N6=180.62          C11-N10-C9-C15=358.13         
           -------------------------------------------------
          |                Final Singlepoint                |
           -------------------------------------------------

          ...................................................
          :                      SETUP                      :
          :.................................................:
          :  # basis functions                  79          :
          :  # atomic orbitals                  79          :
          :  # shells                           45          :
          :  # electrons                        84          :
          :  max. iterations                   250          :
          :  Hamiltonian                  GFN2-xTB          :
          :  restarted?                      false          :
          :  GBSA solvation                  false          :
          :  PC potential                    false          :
          :  electronic temp.          300.0000000     K    :
          :  accuracy                    1.0000000          :
          :  -> integral cutoff          0.2500000E+02      :
          :  -> integral neglect         0.1000000E-07      :
          :  -> SCF convergence          0.1000000E-05 Eh   :
          :  -> wf. convergence          0.1000000E-03 e    :
          :  Broyden damping             0.4000000          :
          ...................................................

 iter      E             dE          RMSdq      gap      omega  full diag
   1    -46.9302235 -0.469302E+02  0.862E-05    3.10       0.0  T
   2    -46.9302235 -0.289617E-10  0.573E-05    3.10     329.8  T
   3    -46.9302235 -0.356053E-10  0.311E-05    3.10     607.7  T

   *** convergence criteria satisfied after 3 iterations ***

         #    Occupation            Energy/Eh            Energy/eV
      -------------------------------------------------------------
         1        2.0000           -0.8026146             -21.8403
       ...           ...                  ...                  ...
        36        2.0000           -0.4422659             -12.0347
        37        2.0000           -0.4349613             -11.8359
        38        2.0000           -0.4260225             -11.5927
        39        2.0000           -0.4152117             -11.2985
        40        2.0000           -0.3881895             -10.5632
        41        2.0000           -0.3823748             -10.4049
        42        2.0000           -0.3732008             -10.1553 (HOMO)
        43                         -0.2591758              -7.0525 (LUMO)
        44                         -0.2502815              -6.8105
        45                         -0.2383430              -6.4856
        46                         -0.2029356              -5.5222
        47                         -0.1649513              -4.4886
       ...                                ...                  ...
        79                          0.7228175              19.6689
      -------------------------------------------------------------
                  HL-Gap            0.1140251 Eh            3.1028 eV
             Fermi-level           -0.3161883 Eh           -8.6039 eV

 SCC (total)                   0 d,  0 h,  0 min,  0.220 sec
 SCC setup                      ...        0 min,  0.019 sec (  8.721%)
 Dispersion                     ...        0 min,  0.022 sec ( 10.104%)
 classical contributions        ...        0 min,  0.016 sec (  7.256%)
 integral evaluation            ...        0 min,  0.034 sec ( 15.551%)
 iterations                     ...        0 min,  0.006 sec (  2.951%)
 molecular gradient             ...        0 min,  0.122 sec ( 55.289%)
 printout                       ...        0 min,  0.000 sec (  0.098%)

         :::::::::::::::::::::::::::::::::::::::::::::::::::::
         ::                     SUMMARY                     ::
         :::::::::::::::::::::::::::::::::::::::::::::::::::::
         :: total energy             -46.186953173208 Eh    ::
         :: gradient norm              0.000317746534 Eh/a0 ::
         :: HOMO-LUMO gap              3.102780136018 eV    ::
         ::.................................................::
         :: SCC energy               -46.930223450252 Eh    ::
         :: -> isotropic ES            0.023666438758 Eh    ::
         :: -> anisotropic ES          0.002509690414 Eh    ::
         :: -> anisotropic XC          0.022700544196 Eh    ::
         :: -> dispersion             -0.029715853136 Eh    ::
         :: repulsion energy           0.743386461515 Eh    ::
         :: add. restraining           0.000000000000 Eh    ::
         :: total charge               0.000000000000 e     ::
         :::::::::::::::::::::::::::::::::::::::::::::::::::::

           -------------------------------------------------
          |                Property Printout                |
           -------------------------------------------------

    * Orbital Energies and Occupations

         #    Occupation            Energy/Eh            Energy/eV
      -------------------------------------------------------------
         1        2.0000           -0.8026146             -21.8403
       ...           ...                  ...                  ...
        30        2.0000           -0.4754608             -12.9379
        31        2.0000           -0.4690512             -12.7635
        32        2.0000           -0.4662445             -12.6872
        33        2.0000           -0.4588767             -12.4867
        34        2.0000           -0.4578536             -12.4588
        35        2.0000           -0.4514241             -12.2839
        36        2.0000           -0.4422659             -12.0347
        37        2.0000           -0.4349613             -11.8359
        38        2.0000           -0.4260225             -11.5927
        39        2.0000           -0.4152117             -11.2985
        40        2.0000           -0.3881895             -10.5632
        41        2.0000           -0.3823748             -10.4049
        42        2.0000           -0.3732008             -10.1553 (HOMO)
        43                         -0.2591758              -7.0525 (LUMO)
        44                         -0.2502815              -6.8105
        45                         -0.2383430              -6.4856
        46                         -0.2029356              -5.5222
        47                         -0.1649513              -4.4886
        48                         -0.1146237              -3.1191
        49                         -0.0820276              -2.2321
        50                          0.0137855               0.3751
        51                          0.0563724               1.5340
        52                          0.0923487               2.5129
        53                          0.1124428               3.0597
       ...                                ...                  ...
        79                          0.7228175              19.6689
      -------------------------------------------------------------
                  HL-Gap            0.1140251 Eh            3.1028 eV
             Fermi-level           -0.3161883 Eh           -8.6039 eV

     #   Z          covCN         q      C6AA      α(0)
     1   9 F        0.787    -0.236    11.611     4.025
     2   6 C        2.787     0.159    24.544     8.115
     3   6 C        2.909    -0.057    29.406     8.892
     4   6 C        3.122    -0.006    27.979     8.662
     5   6 C        3.080     0.033    27.185     8.548
     6   7 N        2.833    -0.012    21.492     6.885
     7   6 C        3.040     0.003    27.912     8.665
     8   6 C        3.001    -0.067    29.667     8.935
     9   6 C        2.904     0.142    24.914     8.184
    10   7 N        1.846    -0.243    27.200     7.729
    11   6 C        2.912     0.052    26.840     8.495
    12   6 C        2.961     0.003    27.960     8.673
    13   6 C        3.757    -0.111    22.671     6.789
    14   6 C        2.935    -0.022    28.556     8.764
    15   6 C        2.913    -0.058    29.452     8.899
    16   6 C        2.912    -0.048    29.194     8.860
    17   6 C        2.921    -0.056    29.403     8.892
    18   1 H        0.926     0.056     2.243     2.342
    19   1 H        0.926     0.058     2.216     2.328
    20   1 H        0.926     0.041     2.434     2.440
    21   1 H        0.925     0.042     2.418     2.432
    22   1 H        0.925     0.048     2.351     2.398
    23   1 H        0.925     0.049     2.330     2.387
    24   1 H        0.924     0.053     2.281     2.362
    25   1 H        0.926     0.039     2.458     2.452
    26   1 H        0.926     0.045     2.385     2.415
    27   1 H        0.926     0.039     2.458     2.452
    28   1 H        0.926     0.054     2.271     2.356

 Mol. C6AA /au·bohr⁶  :      10681.972227
 Mol. C8AA /au·bohr⁸  :     263208.064451
 Mol. α(0) /au        :        164.376847


Wiberg/Mayer (AO) data.
largest (>0.10) Wiberg bond orders for each atom

 ---------------------------------------------------------------------------
     #   Z sym  total        # sym  WBO       # sym  WBO       # sym  WBO
 ---------------------------------------------------------------------------
     1   9 F    1.072 --     2 C    0.949
     2   6 C    3.876 --     3 C    1.451    17 C    1.344     1 F    0.949
     3   6 C    3.987 --     2 C    1.451     4 C    1.336    18 H    0.966
                            16 C    0.109
     4   6 C    3.982 --     3 C    1.336     5 C    1.248     8 C    1.212
     5   6 C    3.957 --    16 C    1.355     4 C    1.248     6 N    1.133
     6   7 N    3.626 --     7 C    1.159     5 C    1.133     9 C    1.068
     7   6 C    3.952 --     8 C    1.632     6 N    1.159    19 H    0.966
     8   6 C    3.972 --     7 C    1.632     4 C    1.212    20 H    0.972
     9   6 C    3.968 --    10 N    1.376    15 C    1.346     6 N    1.068
    10   7 N    3.057 --    11 C    1.442     9 C    1.376
    11   6 C    3.981 --    10 N    1.442    12 C    1.397    21 H    0.961
                            15 C    0.109
    12   6 C    3.974 --    11 C    1.397    14 C    1.394    13 C    1.028
    13   6 C    3.995 --    12 C    1.028    22 H    0.983    23 H    0.979
                            24 H    0.966
    14   6 C    3.990 --    15 C    1.469    12 C    1.394    25 H    0.968
    15   6 C    3.987 --    14 C    1.469     9 C    1.346    26 H    0.964
                            11 C    0.109
    16   6 C    3.988 --    17 C    1.479     5 C    1.355    27 H    0.964
                             3 C    0.109
    17   6 C    3.986 --    16 C    1.479     2 C    1.344    28 H    0.968
    18   1 H    0.996 --     3 C    0.966
    19   1 H    0.996 --     7 C    0.966
    20   1 H    0.997 --     8 C    0.972
    21   1 H    0.998 --    11 C    0.961
    22   1 H    0.997 --    13 C    0.983
    23   1 H    0.997 --    13 C    0.979
    24   1 H    0.995 --    13 C    0.966
    25   1 H    0.998 --    14 C    0.968
    26   1 H    0.998 --    15 C    0.964
    27   1 H    0.998 --    16 C    0.964
    28   1 H    0.997 --    17 C    0.968
 ---------------------------------------------------------------------------

Topologies differ in total number of bonds
Writing topology from bond orders to xtbtopo.mol

molecular dipole:
                 x           y           z       tot (Debye)
 q only:        1.685      -0.152       0.182
   full:        1.948       0.163       0.379       5.062
molecular quadrupole (traceless):
                xx          xy          yy          xz          yz          zz
 q only:       -8.030       9.024       5.577       0.171       0.496       2.454
  q+dip:       -6.424      10.937       7.645       0.359       1.626      -1.220
   full:       -8.143      10.393       5.809       0.786      -0.524       2.334

           -------------------------------------------------
          |                Geometry Summary                 |
           -------------------------------------------------

      molecular mass/u    :      226.2494604
   center of mass at/Å    :       -0.6536798      -0.0327040      -0.2708912
  moments of inertia/u·Å² :        0.3675599E+03   0.2125227E+04   0.2449299E+04
rotational constants/cm⁻¹ :        0.4586363E-01   0.7932157E-02   0.6882634E-02

 * 28 selected distances

     #   Z          #   Z                                           value/Å
     2   6 C        3   6 C                                       1.3746672
     3   6 C        4   6 C                                       1.3930420
     4   6 C        5   6 C                                       1.4188965
     5   6 C        6   7 N                                       1.3783391
     6   7 N        7   6 C                                       1.3760973
     4   6 C        8   6 C                                       1.4241981 (max)
     7   6 C        8   6 C                                       1.3561858
     6   7 N        9   6 C                                       1.3914867
     9   6 C       10   7 N                                       1.3280918
    10   7 N       11   6 C                                       1.3186597
    11   6 C       12   6 C                                       1.3900259
    12   6 C       14   6 C                                       1.3927949
     9   6 C       15   6 C                                       1.3960421
    14   6 C       15   6 C                                       1.3810148
     5   6 C       16   6 C                                       1.3899405
     2   6 C       17   6 C                                       1.3934987
    16   6 C       17   6 C                                       1.3793520
     3   6 C       18   1 H                                       1.0779530
     7   6 C       19   1 H                                       1.0719760
     8   6 C       20   1 H                                       1.0713424 (min)
    11   6 C       21   1 H                                       1.0827452
    13   6 C       22   1 H                                       1.0870902
    13   6 C       23   1 H                                       1.0879848
    13   6 C       24   1 H                                       1.0905603
    14   6 C       25   1 H                                       1.0810931
    15   6 C       26   1 H                                       1.0773948
    16   6 C       27   1 H                                       1.0782218
    17   6 C       28   1 H                                       1.0782567

 * 3 distinct bonds (by element types)

   Z      Z             #   av. dist./Å        max./Å        min./Å
   1 H    6 C          11     1.0804198     1.0905603     1.0713424
   6 C    6 C          12     1.3908049     1.4241981     1.3561858
   6 C    7 N           5     1.3585349     1.3914867     1.3186597


optimized geometry written to: xtbopt.xyz


           -------------------------------------------------
          | TOTAL ENERGY              -46.186953173208 Eh   |
          | GRADIENT NORM               0.000317746534 Eh/α |
          | HOMO-LUMO GAP               3.102780136018 eV   |
           -------------------------------------------------

------------------------------------------------------------------------
 * finished run on 2022/03/17 at 02:20:36.327     
------------------------------------------------------------------------
 total:
 * wall-time:     0 d,  0 h,  0 min,  4.547 sec
 *  cpu-time:     0 d,  0 h,  2 min, 24.018 sec
 * ratio c/w:    31.670 speedup
 SCF:
 * wall-time:     0 d,  0 h,  0 min,  0.236 sec
 *  cpu-time:     0 d,  0 h,  0 min,  7.430 sec
 * ratio c/w:    31.450 speedup
 ANC optimizer:
 * wall-time:     0 d,  0 h,  0 min,  4.168 sec
 *  cpu-time:     0 d,  0 h,  2 min, 12.520 sec
 * ratio c/w:    31.793 speedup

