28
 energy: -46.178208307702 gnorm: 0.077342957413 xtb: 6.3.3 (4ae9cef)
F        -5.58935800000000    1.37448600000000    0.11268700000000
C        -4.34360900000000    0.90392500000000   -0.03558500000000
C        -4.14362700000000   -0.46721100000000   -0.15281200000000
C        -2.83333500000000   -0.95825400000000   -0.32007100000000
C        -1.74854800000000   -0.06341300000000   -0.32109000000000
N        -0.58205800000000   -0.83042600000000   -0.44752300000000
C        -0.96008100000000   -2.14293400000000   -0.68350000000000
C        -2.31976800000000   -2.25786900000000   -0.54502000000000
C         0.79276000000000   -0.43081500000000   -0.36259400000000
N         1.71454900000000   -1.27772800000000   -0.89552700000000
C         3.01699000000000   -0.92268300000000   -0.82458400000000
C         3.47293500000000    0.24558600000000   -0.23228200000000
C         4.93298600000000    0.55735600000000   -0.15565700000000
C         2.51949000000000    1.07603100000000    0.35274800000000
C         1.16585700000000    0.73815500000000    0.29073400000000
C        -1.97562500000000    1.32891800000000   -0.25437700000000
C        -3.28544400000000    1.79411800000000   -0.09865900000000
H        -4.99568000000000   -1.13874000000000   -0.13820400000000
H        -0.20794800000000   -2.89815200000000   -0.87382500000000
H        -2.88606300000000   -3.17625900000000   -0.62918300000000
H         3.70515500000000   -1.63468600000000   -1.27314100000000
H         5.46418000000000    0.15760500000000   -1.02588800000000
H         5.10076500000000    1.63943500000000   -0.14193700000000
H         5.36314500000000    0.12205200000000    0.75155900000000
H         2.82175200000000    1.98182200000000    0.87334800000000
H         0.45747200000000    1.36830200000000    0.81120300000000
H        -1.17268200000000    2.05119000000000   -0.35204900000000
H        -3.48420800000000    2.86019000000000   -0.03833200000000
28
 energy: -46.184857594533 gnorm: 0.030934187623 xtb: 6.3.3 (4ae9cef)
F        -5.56510315746141    1.36091304716317    0.11200840571184
C        -4.31596687079361    0.88283646919414   -0.04148479617634
C        -4.13002139926142   -0.47760105353242   -0.16615000002732
C        -2.82482173293067   -0.95171956556671   -0.32663305092201
C        -1.73053457014409   -0.05392788656979   -0.31155618533245
N        -0.57083208075137   -0.80949927083891   -0.46479596266547
C        -0.94865052438953   -2.12647808933459   -0.65024341139282
C        -2.30085373387857   -2.25107915672856   -0.55154268489553
C         0.78008654162191   -0.41181216230270   -0.37535328813241
N         1.68288620270406   -1.24704706224549   -0.90554365847823
C         2.97067046016969   -0.91888894493069   -0.82475369217797
C         3.45052912765203    0.23917302049098   -0.22725840784813
C         4.91476421881583    0.55042254828038   -0.16415288832773
C         2.50458490068248    1.07320234990314    0.35809644790169
C         1.15865968853880    0.74602305313937    0.29607216552601
C        -1.95467055409258    1.32185608093215   -0.23997048327906
C        -3.25472470938802    1.77870825712390   -0.10047384337049
H        -4.97814396485763   -1.14683734858658   -0.15022173303437
H        -0.19853708417135   -2.87303670795394   -0.83180050368271
H        -2.86171773165169   -3.16376229250394   -0.63995585125907
H         3.64875568669751   -1.63618155991097   -1.27212343889648
H         5.44438798574695    0.14156439240138   -1.02447004028592
H         5.08467857114996    1.62721105212919   -0.13688528564563
H         5.35102730207367    0.11908333757683    0.73755799662442
H         2.81366643210211    1.97444978577555    0.87119115791422
H         0.44360077879002    1.37178195638353    0.80404621958232
H        -1.15709075737738    2.04112890160801   -0.33860764571052
H        -3.45662702559571    2.83951784890356   -0.04455654171985
28
 energy: -46.186254548854 gnorm: 0.006879308867 xtb: 6.3.3 (4ae9cef)
F        -5.54611305745807    1.35684492744770    0.10968064249927
C        -4.29485887700890    0.87028532758953   -0.04952716587171
C        -4.11896939919468   -0.48594799082279   -0.18123623145433
C        -2.81591006774761   -0.94974689369672   -0.33574550116269
C        -1.71816908082832   -0.04872888717661   -0.31501835863790
N        -0.56410456812575   -0.79599819194945   -0.46963930445969
C        -0.93377101145032   -2.11379807468746   -0.63645889540810
C        -2.27917669394965   -2.25047638755207   -0.54901181351227
C         0.76689570377850   -0.40001708583382   -0.36656767957882
N         1.65727596890324   -1.22178742219859   -0.90920304923219
C         2.93630058452442   -0.91202545085356   -0.83476356483863
C         3.43267211905104    0.23707983116200   -0.22886643574785
C         4.89780773494500    0.53950108448411   -0.17150829190674
C         2.49339163735419    1.07558403739965    0.36280339308138
C         1.15061973245265    0.75652238082991    0.31152761500093
C        -1.93979074899733    1.32005458298290   -0.24428760874158
C        -3.23456102776714    1.77248717808123   -0.10442455982574
H        -4.96392296958005   -1.15524626606022   -0.17045193032284
H        -0.17674426341004   -2.85369698908413   -0.79895290365434
H        -2.83529042061889   -3.16217267965044   -0.62800949695317
H         3.60723265900120   -1.63325673647958   -1.28437603130182
H         5.41774557200157    0.12343437652560   -1.03068152336344
H         5.06644799188466    1.61369571458491   -0.13934552728198
H         5.33459721824433    0.10576383116355    0.72845360554636
H         2.81245383876226    1.96939270129493    0.87864766878563
H         0.43071630574903    1.37528999074167    0.81716398766149
H        -1.14114424606788    2.03792731885626   -0.32635085174112
H        -3.44162863444747    2.82903677290150   -0.04341118757811
28
 energy: -46.186427328136 gnorm: 0.003912162974 xtb: 6.3.3 (4ae9cef)
F        -5.54461351975594    1.35754208020091    0.10177225374225
C        -4.29281983272603    0.86842072189931   -0.05707226975975
C        -4.11840183963423   -0.48853744193005   -0.19017539134875
C        -2.81427161486427   -0.95121978050473   -0.33873716009883
C        -1.71848787055644   -0.04797710468474   -0.31509950497719
N        -0.56454854715291   -0.79120129500170   -0.46682199014450
C        -0.92649036858036   -2.11158883808331   -0.62524517599686
C        -2.27181887776989   -2.25239327086136   -0.54426163799619
C         0.76239119174819   -0.39115550408849   -0.36541514434301
N         1.65051906866459   -1.21115854661536   -0.91591069786185
C         2.93072121087565   -0.90908271460924   -0.84109803652903
C         3.42948610953867    0.23572698516682   -0.22894584891389
C         4.89414485303284    0.53366171685313   -0.17554101829376
C         2.49360748699580    1.07398558566104    0.37046530672531
C         1.14956106601532    0.76166362645638    0.32049368251256
C        -1.93896718339803    1.32182110680067   -0.24442345639871
C        -3.23470945148940    1.77339404194681   -0.10639359844249
H        -4.96239196748855   -1.15890299363396   -0.18484713429438
H        -0.16274627782605   -2.84834650275774   -0.77626566522702
H        -2.82631208106421   -3.16544716699971   -0.62033420948650
H         3.59863258660772   -1.62568344980658   -1.30283257287041
H         5.40776011304081    0.11524963714442   -1.03732524508577
H         5.06521136371414    1.60728505729230   -0.14343199920298
H         5.33068037945384    0.09635605412041    0.72311323485786
H         2.81809587329702    1.96530249546650    0.88826580708098
H         0.42980844067188    1.37417473688461    0.83429234616628
H        -1.13896642063396    2.03920151349258   -0.32502824070882
H        -3.44507189071621    2.82891025019111   -0.04275763310459
28
 energy: -46.186561419487 gnorm: 0.003787950408 xtb: 6.3.3 (4ae9cef)
F        -5.54585302032940    1.35849850271862    0.08380017332324
C        -4.29311631773042    0.86657373424148   -0.07005628907352
C        -4.11987576702978   -0.49116240724881   -0.20357259531711
C        -2.81386516276527   -0.95351408044762   -0.34224350398638
C        -1.72143402654131   -0.04742337314401   -0.31524014090088
N        -0.56623440148507   -0.78647577870406   -0.45684245263476
C        -0.91907016113801   -2.10957350212006   -0.60783918275137
C        -2.26453658980943   -2.25502677203752   -0.53430367652134
C         0.75851662557304   -0.38173846735481   -0.35826721214039
N         1.64298022579293   -1.19590115204917   -0.92729769211869
C         2.92493503239820   -0.89881218773660   -0.85850735357749
C         3.42681448298157    0.23713637770309   -0.23295110579318
C         4.89202041087849    0.52647019949477   -0.18224382205939
C         2.49638186905056    1.07116024191940    0.38224522078060
C         1.15089192142222    0.76461916601820    0.33803143576063
C        -1.94033052951099    1.32405651312531   -0.24570733827307
C        -3.23778688318858    1.77454396299553   -0.11135764357146
H        -4.96315309497277   -1.16249949666292   -0.20662301987003
H        -0.14689137702676   -2.84165640630144   -0.74372782776819
H        -2.81690282972703   -3.17028155416240   -0.60542009118272
H         3.58893649300417   -1.61116222744143   -1.33247492824729
H         5.39837761945611    0.10610865846044   -1.04759143338912
H         5.07039642930527    1.59884120273295   -0.14892708405556
H         5.32810450651649    0.08293031162341    0.71383973035484
H         2.82883931490124    1.95573302470593    0.90804433762136
H         0.43203325489486    1.36990068272186    0.86276118397877
H        -1.13765372405215    2.03971387425037   -0.32289547809222
H        -3.45252230086825    2.82894195269957   -0.04419321049533
28
 energy: -46.186637442760 gnorm: 0.004007079003 xtb: 6.3.3 (4ae9cef)
F        -5.54882580408350    1.35881380536858    0.06456594545072
C        -4.29509986599699    0.86577927151544   -0.08184455856370
C        -4.12186679212795   -0.49210382421602   -0.21292837397120
C        -2.81453809603041   -0.95481595665236   -0.34280927170019
C        -1.72411550959019   -0.04716405700449   -0.31346120403122
N        -0.56727535600104   -0.78451098194014   -0.44652456804706
C        -0.91631504272023   -2.10908638039389   -0.59267810294953
C        -2.26201509622285   -2.25632115911827   -0.52480381297227
C         0.75767297487535   -0.37656469115775   -0.35368931577090
N         1.63884163871516   -1.18525214237811   -0.93665153882764
C         2.92166049556057   -0.88951720550644   -0.87205489000597
C         3.42638778115737    0.23891630112239   -0.23561688715558
C         4.89267247993052    0.52300012838659   -0.18780805109329
C         2.49982187207113    1.06749073741309    0.39259460898141
C         1.15360386120841    0.76320440932640    0.35130652128275
C        -1.94217312970928    1.32492569733436   -0.24533465291310
C        -3.24069095111842    1.77486252254356   -0.11684042440253
H        -4.96511378410309   -1.16347789909898   -0.22136627878000
H        -0.14050018575810   -2.83846316074996   -0.72048076633721
H        -2.81317816699965   -3.17270276493113   -0.59334945460195
H         3.58229670478053   -1.59526106608453   -1.36058146851895
H         5.39509279461065    0.10180371484504   -1.05525284911704
H         5.07697561902859    1.59441047143527   -0.15338068016611
H         5.32888100474087    0.07578202198440    0.70639569587003
H         2.83700532116619    1.94571419067204    0.92644724144493
H         0.43596870806735    1.36313258054067    0.88461328786675
H        -1.13730902605067    2.03864535122442   -0.31888586859201
H        -3.45786244940040    2.82876108551992   -0.04914128237925
28
 energy: -46.186733681400 gnorm: 0.003312074388 xtb: 6.3.3 (4ae9cef)
F        -5.55400898313895    1.35895703941802    0.03292165544095
C        -4.29864119207491    0.86547810935788   -0.09962739281752
C        -4.12449563757697   -0.49241632375242   -0.22451038561948
C        -2.81572939061261   -0.95590582040394   -0.34153407074657
C        -1.72699174874532   -0.04691496143866   -0.30861339187597
N        -0.56805817182415   -0.78372807795430   -0.43002644384664
C        -0.91501060671455   -2.10929784715307   -0.57139766063564
C        -2.26105914485909   -2.25732762014093   -0.51125740961334
C         0.75813619670394   -0.37261995626429   -0.34704025169068
N         1.63418352112401   -1.17149554348544   -0.95070277621973
C         2.91727688393951   -0.87439413647650   -0.89358038962367
C         3.42679508990971    0.24222617632937   -0.24025972132978
C         4.89479515419699    0.52024265228072   -0.19560507809548
C         2.50512895397101    1.06110430864687    0.40728729772610
C         1.15833772389066    0.75753081845207    0.36951443468050
C        -1.94446454418934    1.32530123823016   -0.24253266584175
C        -3.24410167640437    1.77495797582663   -0.12582637147292
H        -4.96801137808686   -1.16336119638403   -0.23852042229852
H        -0.13701878490618   -2.83697629958726   -0.69035465103204
H        -2.81085480160266   -3.17477048179842   -0.57696304187121
H         3.57363651448445   -1.57097260308349   -1.40062711858433
H         5.39347132003431    0.09861960580882   -1.06510277730637
H         5.08583460247894    1.59049359367036   -0.15926523643958
H         5.33109414757809    0.06906808844823    0.69649263936998
H         2.84700752568900    1.92998436347989    0.95327517441708
H         0.44289947624120    1.35126316620362    0.91329052912423
H        -1.13672525613916    2.03637351462304   -0.30873934338894
H        -3.46342379336683    2.82858121714722   -0.06025613040881
28
 energy: -46.186813804293 gnorm: 0.002675121920 xtb: 6.3.3 (4ae9cef)
F        -5.56034043047952    1.35907003749239   -0.00996743077225
C        -4.30283287038538    0.86586821728903   -0.12255834733295
C        -4.12677441578625   -0.49222455825814   -0.23746974192846
C        -2.81668268125085   -0.95645664624457   -0.33796784711084
C        -1.72879789428558   -0.04655915280485   -0.29986283820190
N        -0.56826573462867   -0.78384128662258   -0.40903507749433
C        -0.91445149658520   -2.10982296677942   -0.54615018659379
C        -2.26086036503981   -2.25807062538305   -0.49484646608323
C         0.75906001003498   -0.36991173515342   -0.33872453707629
N         1.62841590187070   -1.15552948491521   -0.96784958237898
C         2.91132971046374   -0.85619182449795   -0.91941402194366
C         3.42753977520888    0.24564509463564   -0.24606930157536
C         4.89717783660609    0.51838175394380   -0.20554184614689
C         2.51167775336996    1.05218454843632    0.42490225470155
C         1.16439142595567    0.74848598862636    0.39174514346385
C        -1.94651033827834    1.32533698949357   -0.23687262482244
C        -3.24726491479827    1.77512269847485   -0.13798418101526
H        -4.97053829239922   -1.16274019231393   -0.25672724724381
H        -0.13588500033003   -2.83780933612167   -0.65592328868240
H        -2.80907327778633   -3.17648248343516   -0.55812602445567
H         3.56256239456036   -1.53994390688438   -1.45064971766834
H         5.39212525969670    0.09656903745460   -1.07700572811949
H         5.09345430767023    1.58759806796599   -0.16714152697996
H         5.33402364814809    0.06392106966313    0.68453530299415
H         2.85808252474544    1.90947382046423    0.98590827693220
H         0.45258204603001    1.33479816191872    0.94875642981521
H        -1.13614318584069    2.03431021538578   -0.29160576577204
H        -3.46799969648694    2.82881949817016   -0.07791507850880
28
 energy: -46.186850997901 gnorm: 0.001879815456 xtb: 6.3.3 (4ae9cef)
F        -5.56306195362682    1.36006801724892   -0.04035960049447
C        -4.30448744458728    0.86705992744824   -0.13810489434228
C        -4.12723380829713   -0.49152802166787   -0.24489257591678
C        -2.81684420262344   -0.95642024905785   -0.33407342298286
C        -1.72850454787550   -0.04678792852302   -0.29210517677169
N        -0.56801807633356   -0.78510712560536   -0.39511999676082
C        -0.91470822624816   -2.11076163665493   -0.53097905702419
C        -2.26136921818526   -2.25854999748152   -0.48472798244040
C         0.75944092300868   -0.37005480651927   -0.33223345804583
N         1.62438417519113   -1.14598232187045   -0.97784784307720
C         2.90686461606644   -0.84462746017232   -0.93555214068488
C         3.42765594577530    0.24735165753001   -0.25004727364784
C         4.89770742923949    0.51892329135678   -0.21277210884477
C         2.51556521905555    1.04512855954909    0.43630542443749
C         1.16813508397990    0.74088011744368    0.40701651854217
C        -1.94660331196751    1.32484348671553   -0.23187009473922
C        -3.24778570504719    1.77545594100517   -0.14661920656270
H        -4.97115078616024   -1.16179952129892   -0.26695089070271
H        -0.13729938777330   -2.84064464465000   -0.63646024199405
H        -2.80891562573560   -3.17721231653255   -0.54773212826820
H         3.55499614717470   -1.51962924772566   -1.48105748407864
H         5.39061283277875    0.09756524352017   -1.08545664876453
H         5.09462193414133    1.58789949410516   -0.17344778083219
H         5.33588335380080    0.06353649582630    0.67616919964652
H         2.86428513644207    1.89533482370375    1.00594105318974
H         0.45930519131788    1.32204709389921    0.97316517384447
H        -1.13534323641405    2.03344686694380   -0.27775350968882
H        -3.46813045709726    2.82956526146420   -0.09199485299553
28
 energy: -46.186876792339 gnorm: 0.001074209250 xtb: 6.3.3 (4ae9cef)
F        -5.56243089182988    1.36334066070363   -0.06754883602911
C        -4.30383059555775    0.86972962975118   -0.15114798455411
C        -4.12655657970731   -0.48979129072883   -0.24969095780973
C        -2.81672338884406   -0.95613568031580   -0.32896635777439
C        -1.72663975469480   -0.04819224491422   -0.28333049395329
N        -0.56761632673261   -0.78837240014107   -0.38367709650835
C        -0.91596072832961   -2.11307400366950   -0.52068108616244
C        -2.26298545384684   -2.25932631616922   -0.47738911776340
C         0.75937781984759   -0.37295655865387   -0.32520663789718
N         1.62101602541168   -1.14005606281383   -0.98365634024240
C         2.90302747282775   -0.83665676726087   -0.94617332792254
C         3.42695959831950    0.24798560033033   -0.25276876135293
C         4.89639180034790    0.52261279968556   -0.21992948859788
C         2.51769912209005    1.03790875930769    0.44579889020789
C         1.17049299791439    0.73229100269937    0.42101794066473
C        -1.94437146661971    1.32337753780071   -0.22654802885831
C        -3.24543147689076    1.77609284627781   -0.15432483069903
H        -4.97085616957528   -1.15956652055661   -0.27362630241284
H        -0.14135412779990   -2.84639163909079   -0.62544024433283
H        -2.81084293958050   -3.17756674965304   -0.54198315758679
H         3.54890700119987   -1.50326379107586   -1.50353076041662
H         5.38804682181067    0.10213564405901   -1.09359704083196
H         5.09006998129981    1.59213175853381   -0.18133438158228
H         5.33777680575267    0.06891118568864    0.66829483334473
H         2.86777520156015    1.88300725709330    1.02135536030190
H         0.46445599986408    1.30831982058625    0.99547776850139
H        -1.13310047580089    2.03243556669533   -0.26462221500110
H        -3.46329427243651    2.83107095583120   -0.10633234473137
28
 energy: -46.186889674624 gnorm: 0.000758000068 xtb: 6.3.3 (4ae9cef)
F        -5.55948335826442    1.36759008081921   -0.07628208278649
C        -4.30166672417217    0.87205929729462   -0.15493463340609
C        -4.12617872356324   -0.48806880405463   -0.25097526771222
C        -2.81694162331962   -0.95630183187817   -0.32686894261936
C        -1.72549454249248   -0.05005171276895   -0.27985995211802
N        -0.56765965955890   -0.79145125905601   -0.38030310401677
C        -0.91706372773061   -2.11564007682060   -0.51865958183735
C        -2.26442178479070   -2.26032352308765   -0.47587140635950
C         0.75902383629503   -0.37592407363054   -0.32143713551906
N         1.62035477592914   -1.14004975239190   -0.98389240561884
C         2.90226156799953   -0.83542607715476   -0.94840095765522
C         3.42579320723780    0.24811100940908   -0.25301722438755
C         4.89441776241088    0.52674294447111   -0.22338239900585
C         2.51689715109379    1.03484898668423    0.45017982569558
C         1.17010093868138    0.72795792684890    0.42748992112781
C        -1.94128958052572    1.32188779018890   -0.22493628346903
C        -3.24196245992023    1.77666104402377   -0.15659018991216
H        -4.97120896911562   -1.15691082034117   -0.27619145099695
H        -0.14372819028268   -2.85045116852918   -0.62445261159264
H        -2.81330567335771   -3.17791282153505   -0.54170425087678
H         3.54784332909931   -1.49975541809959   -1.50854619836693
H         5.38548364903966    0.10672599764777   -1.09764147778217
H         5.08477186084036    1.59699950187306   -0.18655063069200
H         5.33899434229610    0.07548744511120    0.66452983336754
H         2.86725288721034    1.87935495744312    1.02666251011179
H         0.46427193077584    1.30123255399990    1.00495759893171
H        -1.12947363873834    2.03042754446653   -0.26168976247309
H        -3.45758658307707    2.83218125906712   -0.11119274003057
28
 energy: -46.186903124749 gnorm: 0.000883545544 xtb: 6.3.3 (4ae9cef)
F        -5.55497015330747    1.37337534821459   -0.08012646564099
C        -4.29834452644693    0.87490040406846   -0.15618553661057
C        -4.12572818985307   -0.48574351330978   -0.25134522580675
C        -2.81734339930743   -0.95662770957963   -0.32567401719271
C        -1.72433230374690   -0.05248491611840   -0.27790731551392
N        -0.56776399225721   -0.79543905786477   -0.37927274902827
C        -0.91891931621844   -2.11896422446294   -0.51954728956925
C        -2.26655741704230   -2.26148237955320   -0.47637912551040
C         0.75875680259922   -0.38006207054857   -0.31850333853387
N         1.62080139707531   -1.14300918764515   -0.98087425880379
C         2.90249584194408   -0.83680695969015   -0.94605276860350
C         3.42420794218642    0.24835408597436   -0.25220166920096
C         4.89179173083102    0.53270408463053   -0.22660116376036
C         2.51479261747704    1.03263603174450    0.45297448410873
C         1.16874428661897    0.72333936046344    0.43218594293168
C        -1.93708700356710    1.32001968606454   -0.22440012957918
C        -3.23700867135545    1.77739521683358   -0.15718482049812
H        -4.97195531753148   -1.15298075166237   -0.27803946257557
H        -0.14678078690650   -2.85484055990170   -0.62733610205614
H        -2.81711428331403   -3.17806715158266   -0.54338209249704
H         3.54842264801182   -1.49953801902111   -1.50790278420372
H         5.38237065590151    0.11242302190871   -1.10106346375856
H         5.07782865590945    1.60393254246684   -0.19337925442901
H         5.34060112784136    0.08583985605674    0.66139597258127
H         2.86499539696639    1.87719354783833    1.02991385881499
H         0.46224674836140    1.29332851635010    1.01211099425455
H        -1.12401874490151    2.02713578870889   -0.26155449769135
H        -3.45012974596857    2.83347000961714   -0.11322872162742
28
 energy: -46.186917138576 gnorm: 0.001012698282 xtb: 6.3.3 (4ae9cef)
F        -5.54966300073996    1.38052638993848   -0.08321681334328
C        -4.29434240512628    0.87837493217172   -0.15776176243263
C        -4.12531324046415   -0.48272382139851   -0.25273624841764
C        -2.81791809256894   -0.95700994457646   -0.32567776038723
C        -1.72317106113226   -0.05527978440889   -0.27669657321363
N        -0.56791955388637   -0.80033310649416   -0.37797620218261
C        -0.92134507091263   -2.12312834633612   -0.51982017060753
C        -2.26939189866272   -2.26283185632783   -0.47735384659531
C         0.75868546508925   -0.38555418447927   -0.31482063561027
N         1.62177668470840   -1.14662677067783   -0.97853252198332
C         2.90301023226483   -0.83744985532589   -0.94523501864989
C         3.42238844601697    0.24942112478174   -0.25185684965055
C         4.88879614980429    0.54018681401439   -0.23082440930496
C         2.51218051559677    1.02964363160271    0.45742963880442
C         1.16706632775458    0.71690684713407    0.43854890784132
C        -1.93203386262552    1.31791235685862   -0.22421380982239
C        -3.23097060801758    1.77847813400690   -0.15788856694701
H        -4.97319530589428   -1.14772620428225   -0.28087393061223
H        -0.15013278339314   -2.86000159315656   -0.62823123277500
H        -2.82199989345341   -3.17818454684602   -0.54516430359111
H         3.54984301241558   -1.49999106053629   -1.50555471383455
H         5.37881489871202    0.11908963204719   -1.10521564590050
H         5.06994034174625    1.61247955623128   -0.20213978202339
H         5.34218875758843    0.09875321172200    0.65753730409626
H         2.86165210423911    1.87446598278726    1.03446880121867
H         0.45948025669270    1.28305438235617    1.02087595094640
H        -1.11675769903826    2.02248469771602   -0.26208894148312
H        -3.44166671671407    2.83506438147787   -0.11454186353914
28
 energy: -46.186930764128 gnorm: 0.000735293753 xtb: 6.3.3 (4ae9cef)
F        -5.54376239909858    1.38833340417005   -0.08575765368548
C        -4.28978689692210    0.88239082682608   -0.15972944265319
C        -4.12470143929394   -0.47906896457744   -0.25526096509317
C        -2.81848880558726   -0.95720786835354   -0.32700606675945
C        -1.72174876031319   -0.05818948992385   -0.27650464685972
N        -0.56802812622405   -0.80598694485829   -0.37625188714637
C        -0.92434454879811   -2.12791879519650   -0.51905900334877
C        -2.27287083523422   -2.26425504986383   -0.47841289292602
C         0.75880700733435   -0.39212047580264   -0.31097787984795
N         1.62300377685349   -1.15106052850858   -0.97567767700105
C         2.90355835782488   -0.83847596830689   -0.94293599840707
C         3.42040621739465    0.25053964622017   -0.25093537798537
C         4.88545360153014    0.54884411253220   -0.23574980056340
C         2.50934938486626    1.02621596147948    0.46217036149853
C         1.16534744768665    0.70892751721908    0.44539362804809
C        -1.92648681256371    1.31565691377541   -0.22454753527266
C        -3.22406696536319    1.77982124500123   -0.15902594863339
H        -4.97462517676088   -1.14140734278625   -0.28451046857381
H        -0.15435788084345   -2.86614459888262   -0.62683413417531
H        -2.82775033184060   -3.17817941499995   -0.54711536862537
H         3.55160646580484   -1.49859567399319   -1.50587055234146
H         5.37500543931111    0.12577895417951   -1.10943738576746
H         5.06102575682052    1.62227486065587   -0.21347125404103
H         5.34387742095984    0.11484868016896    0.65366909571378
H         2.85758992308818    1.87048554275751    1.04085120391365
H         0.45681162721552    1.27043444301985    1.03119188290042
H        -1.10854317612816    2.01717296930762   -0.26217555461307
H        -3.43227827171940    2.83688703874088   -0.11558967775412
28
 energy: -46.186942556162 gnorm: 0.000432055379 xtb: 6.3.3 (4ae9cef)
F        -5.53701682546284    1.39697442555814   -0.08865977205432
C        -4.28449655132238    0.88703721316783   -0.16257878447803
C        -4.12378831401256   -0.47481757086716   -0.25896617056128
C        -2.81900739735441   -0.95730822628345   -0.32941661666060
C        -1.71983298873257   -0.06151682161758   -0.27667737840912
N        -0.56807213503227   -0.81267995804725   -0.37361484994252
C        -0.92789124932753   -2.13344270159091   -0.51719445433547
C        -2.27691689509637   -2.26586096541209   -0.47953229013689
C         0.75895187777762   -0.39974187492006   -0.30667426189707
N         1.62415902240481   -1.15556186561022   -0.97301226604882
C         2.90361440156580   -0.83823342979310   -0.94217268407003
C         3.41808683195172    0.25217442417702   -0.25068656023253
C         4.88151151247473    0.55873301930974   -0.24168449883516
C         2.50639251623848    1.02180186235373    0.46784420969797
C         1.16366129718553    0.69914976847172    0.45352671588185
C        -1.92002987400113    1.31301070461116   -0.22460429573649
C        -3.21598562740684    1.78135568028583   -0.16041577971757
H        -4.97611941067260   -1.13404311165543   -0.28958451861460
H        -0.15966192707724   -2.87362706241541   -0.62302510225628
H        -2.83434945353233   -3.17811243474011   -0.54955971257766
H         3.55322908208838   -1.49616158003310   -1.50511704469695
H         5.37075722568835    0.13278112914946   -1.11406677427118
H         5.05065156848738    1.63338713950368   -0.22741851881929
H         5.34537307718194    0.13389209310548    0.64933540987907
H         2.85293793649046    1.86527985655624    1.04856723987214
H         0.45441622211276    1.25534964244446    1.04354927455109
H        -1.09924278592185    2.01121871487078   -0.26123175018972
H        -3.42132913669552    2.83896292942092   -0.11648976534079
28
 energy: -46.186949497164 gnorm: 0.000446474404 xtb: 6.3.3 (4ae9cef)
F        -5.53166431484913    1.40410209326449   -0.09274671785772
C        -4.28025496235947    0.89099667667906   -0.16605993300813
C        -4.12305593572353   -0.47119972888814   -0.26297853670732
C        -2.81946763257530   -0.95734825273867   -0.33177245931394
C        -1.71822382044664   -0.06431805097510   -0.27672277500684
N        -0.56814094392638   -0.81842995935712   -0.36996062806078
C        -0.93077179429046   -2.13819302645670   -0.51388285032168
C        -2.28032932696492   -2.26722872905187   -0.47987699927799
C         0.75909958162629   -0.40607755451626   -0.30226314847526
N         1.62476465373551   -1.15804071544667   -0.97278055932775