72
 energy: -124.380194598454 gnorm: 0.136459911262 xtb: 6.3.3 (4ae9cef)
C        -4.53801800000000   -3.80285300000000   -0.53553700000000
C        -4.60179700000000   -4.03346700000000    0.84107700000000
C        -3.77537400000000   -3.31627400000000    1.69736400000000
C        -2.87851500000000   -2.37816300000000    1.17245000000000
C        -2.77783900000000   -2.11845400000000   -0.22516100000000
C        -3.65437200000000   -2.84817300000000   -1.07665600000000
C        -3.65002300000000   -2.62452000000000   -2.46299500000000
C        -2.81944400000000   -1.66174000000000   -3.02406900000000
C        -1.95506300000000   -0.93572000000000   -2.20775000000000
C        -1.87645500000000   -1.17483100000000   -0.81767000000000
C        -0.80120300000000   -0.47965300000000    0.00965000000000
C         0.62838100000000   -0.55154600000000   -0.61686700000000
C         1.41167000000000   -1.80015000000000   -0.21754700000000
C         1.74345600000000   -1.98355500000000    1.14191900000000
C         2.40902900000000   -3.12080900000000    1.57822600000000
C         2.75774400000000   -4.10890200000000    0.66683800000000
C         2.47050900000000   -3.96492400000000   -0.69832800000000
C         1.79565300000000   -2.80413300000000   -1.16726600000000
C         1.55966500000000   -2.72702900000000   -2.56437700000000
C         1.96635600000000   -3.73552000000000   -3.44799600000000
C         2.61692000000000   -4.85699700000000   -2.96253200000000
C         2.86542400000000   -4.97517200000000   -1.59558300000000
N         1.27243600000000    0.70817000000000   -0.21781700000000
C         2.40258900000000    1.14206600000000   -0.89388100000000
C         2.95183000000000    2.47317900000000   -0.58975800000000
C         3.92969500000000    2.68744500000000    0.38932000000000
I         4.69694500000000    1.15588500000000    1.59337000000000
C         4.43952100000000    3.97840200000000    0.56958800000000
C         3.98728200000000    5.03121900000000   -0.23542400000000
C         3.03015800000000    4.80729400000000   -1.22643400000000
C         2.51749200000000    3.52472400000000   -1.41004300000000
O         2.94613900000000    0.51415300000000   -1.79658400000000
C         0.32545600000000    1.58130200000000    0.46798900000000
C         0.69855700000000    1.65782400000000    1.97302600000000
O         1.25917800000000    2.84106700000000    2.31283300000000
O         0.56158600000000    0.78390500000000    2.81643900000000
N        -0.98473000000000    0.95607300000000    0.27938000000000
C        -2.18715400000000    1.49106900000000    0.72182400000000
C        -2.18029600000000    2.81894900000000    1.36761700000000
C        -2.32485400000000    2.80372300000000    2.76417800000000
C        -2.34731100000000    3.98862800000000    3.48811300000000
C        -2.23713600000000    5.20117600000000    2.81728000000000
C        -2.13137000000000    5.22696200000000    1.42121800000000
C        -2.12045200000000    4.03686100000000    0.68981500000000
I        -2.07210600000000    4.18412000000000   -1.39059500000000
O        -3.25911700000000    0.90121700000000    0.73481300000000
H        -5.20152500000000   -4.36969400000000   -1.18643100000000
H        -5.31387800000000   -4.75021700000000    1.24374500000000
H        -3.84567100000000   -3.45726600000000    2.77840600000000
H        -2.29632400000000   -1.82003300000000    1.90069300000000
H        -4.31640300000000   -3.18642700000000   -3.11415300000000
H        -2.84655700000000   -1.48431800000000   -4.10552100000000
H        -1.33544900000000   -0.18518000000000   -2.68745300000000
H        -0.74568100000000   -0.93500700000000    1.00115300000000
H         0.56608600000000   -0.47440200000000   -1.70087500000000
H         1.49336700000000   -1.23247200000000    1.88243900000000
H         2.65996000000000   -3.23118800000000    2.62859000000000
H         3.27334000000000   -4.99442800000000    1.03525200000000
H         1.07142600000000   -1.86674400000000   -3.01055700000000
H         1.78324300000000   -3.62126200000000   -4.51757800000000
H         2.94301700000000   -5.63846800000000   -3.64124100000000
H         3.39011200000000   -5.85944800000000   -1.23836000000000
H         5.20574300000000    4.17839200000000    1.31700300000000
H         4.39276000000000    6.03364400000000   -0.09815800000000
H         2.68621100000000    5.61371400000000   -1.86483700000000
H         1.79502300000000    3.34188000000000   -2.20562200000000
H         0.32025900000000    2.58324800000000    0.04097100000000
H         1.49067700000000    2.72749200000000    3.25716300000000
H        -2.44265900000000    1.85411300000000    3.28115200000000
H        -2.46743600000000    3.96092100000000    4.56909200000000
H        -2.25181000000000    6.12869100000000    3.37456100000000
H        -2.07887400000000    6.19163200000000    0.92710500000000
72
 energy: -124.400401806044 gnorm: 0.053484199722 xtb: 6.3.3 (4ae9cef)
C        -4.53611662942990   -3.79880161067240   -0.52831369405810
C        -4.59651133233747   -4.02008959712099    0.82753449632402
C        -3.76642720063426   -3.29171665273142    1.67848470712327
C        -2.87406993394951   -2.37066782009271    1.16793185328328
C        -2.76897623382802   -2.11690062894843   -0.22086280590846
C        -3.65005352846327   -2.84836800213935   -1.07400010128808
C        -3.64464454422031   -2.61486038534348   -2.46030197521632
C        -2.82191063982790   -1.65755456397989   -3.00094456125231
C        -1.95110151368101   -0.93943254999905   -2.17854858645366
C        -1.87200207908210   -1.17341315098766   -0.81144519377469
C        -0.79373731780149   -0.49041539416460    0.01330316165744
C         0.62260255069755   -0.55867185838208   -0.62640110515911
C         1.40323212063778   -1.79939499243321   -0.22120913290181
C         1.73641500897115   -1.97459721712538    1.11545901140868
C         2.40836969275417   -3.11309196918392    1.56157376257305
C         2.75768018150985   -4.09874138550315    0.67157404271775
C         2.46934030780286   -3.96093455904791   -0.69680137187397
C         1.78780314071301   -2.79785617732843   -1.16893628009335
C         1.55556602796811   -2.72068272463148   -2.56089971612759
C         1.96279180163306   -3.71643013143907   -3.42681556217203
C         2.61626353582628   -4.84844617321934   -2.94722709695960
C         2.86409502993265   -4.96758166065174   -1.59988865998887
N         1.26030741433227    0.70375011051363   -0.21432386142798
C         2.37777658590829    1.13311034377693   -0.88895619121959
C         2.92285089210836    2.48264956169164   -0.57159946395469
C         3.90689635127940    2.71152585177047    0.38624587118023
I         4.64415771318745    1.13141494717778    1.58163457795572
C         4.43280816283482    3.98653273894757    0.55454422758466
C         3.98443222430673    5.03045879692094   -0.23929324001541
C         3.03413051912930    4.80368626514392   -1.22296281292326
C         2.51385386418875    3.53082758776610   -1.39484384131340
O         2.91990562037155    0.47338581741997   -1.75570733387586
C         0.32024600043680    1.57534593789188    0.47143890663765
C         0.69379899341531    1.65101502111057    1.96586338314410
O         1.25449022509803    2.82460992501517    2.30288751411208
O         0.54073980780691    0.77877642876916    2.77948689947537
N        -0.98004123033109    0.95105079806455    0.26850841474155
C        -2.16757112350756    1.47080133413041    0.72191526245084
C        -2.14466772334126    2.81628122698429    1.37296308469388
C        -2.31053871886344    2.80663364316748    2.75939356463014
C        -2.34871753264942    3.98803995524710    3.47971690018801
C        -2.23836497375971    5.19918927297913    2.81625102663102
C        -2.13567340151304    5.22652189574154    1.43408085627691
C        -2.10142132921985    4.04006467570680    0.71306186035740
I        -2.03936194745077    4.13334113997346   -1.40006798816065
O        -3.22474464444624    0.87117467336945    0.69348805146732
H        -5.19330247620319   -4.35701929105036   -1.18342494063996
H        -5.29599260318144   -4.74231417234448    1.23134265254063
H        -3.82645752339987   -3.44440100939790    2.75065639438195
H        -2.28173889982369   -1.81848554273093    1.88387199913858
H        -4.30563379916231   -3.18090789100914   -3.10505346387801
H        -2.84101334391926   -1.47466347242400   -4.07119715445821
H        -1.33041570435267   -0.18749885656973   -2.64909074976120
H        -0.73893111101964   -0.96768510188382    0.99777229863986
H         0.55394796061080   -0.50784194306193   -1.71512421864677
H         1.47908486086034   -1.22178095365073    1.84883013058201
H         2.65033854905595   -3.22048619763888    2.61090224320019
H         3.26871022262242   -4.98405591506468    1.03027720068011
H         1.06591740420018   -1.86307658474382   -2.99735902634046
H         1.77576717180184   -3.60923982814043   -4.48909936118598
H         2.93615298969287   -5.62757122693859   -3.62777122646642
H         3.38165288699751   -5.84548250499487   -1.23409510782153
H         5.19164844031056    4.17400472800391    1.30382807439402
H         4.38994693368627    6.02376103229689   -0.09795615684583
H         2.69361102235255    5.60881679542827   -1.85801949261010
H         1.79463348802469    3.34276582448731   -2.18234776064162
H         0.33543922546864    2.58987137428367    0.05860720698719
H         1.49523454636194    2.74577178730347    3.24592115083088
H        -2.42235106682488    1.85807579596058    3.26766280328448
H        -2.46523590736033    3.96016564279269    4.55497236373461
H        -2.25234156810487    6.12634789662066    3.36947793812761
H        -2.08257289320724    6.18139187031252    0.92942134227834
72
 energy: -124.406718546673 gnorm: 0.015103740203 xtb: 6.3.3 (4ae9cef)
C        -4.53091393544344   -3.79106801576183   -0.52304173297571
C        -4.58644715451446   -4.00971824385868    0.82108426413194
C        -3.74856323027220   -3.27667817408644    1.66968547509790
C        -2.86183762961491   -2.36548545155964    1.16698277855843
C        -2.75971067456560   -2.11458286312547   -0.21760384677615
C        -3.64332682641896   -2.84211225921686   -1.07158985688593
C        -3.63517611910444   -2.60066942293923   -2.45879117949087
C        -2.81966399586429   -1.64349873372808   -2.98502792124813
C        -1.94512150196668   -0.93110316839346   -2.15500766591451
C        -1.86473301121000   -1.17168206751759   -0.80639623965634
C        -0.78556101622595   -0.49969642588116    0.01716360280593
C         0.61599353092254   -0.56322219020431   -0.63234878502086
C         1.39940399445462   -1.79356298199187   -0.22365902965874
C         1.72755566052873   -1.95943384611352    1.09851248916467
C         2.40367723331276   -3.09841912233867    1.55431073378060
C         2.75529461823099   -4.08213707665287    0.67802554409756
C         2.46646900620804   -3.95050869129047   -0.69402152391772
C         1.78239131220675   -2.78940664297463   -1.16977032656766
C         1.54717335755688   -2.71287342954930   -2.55909085637484
C         1.95275109431589   -3.69980665056936   -3.41358926473835
C         2.61174046444367   -4.83873552352005   -2.93666098387387
C         2.86000627360865   -4.95650524722196   -1.60089282659330
N         1.25053215345584    0.69813757446505   -0.21538443718751
C         2.36241763519196    1.11479361403976   -0.88573474404481
C         2.89301107553032    2.48361999266937   -0.56782511008592
C         3.87588357953168    2.71869018394687    0.38037308353747
I         4.56985262468542    1.12708956951816    1.58791473395573
C         4.41302927026753    3.98166897356686    0.55475434828442
C         3.97659575269765    5.02516886569814   -0.23892347722503
C         3.02391000039969    4.80209999617261   -1.21708978765649
C         2.49408663256395    3.53611056505619   -1.38473802347209
O         2.90540975482309    0.42467089160841   -1.72033890087452
C         0.31590444158048    1.56756307084491    0.47044042551746
C         0.68101381846134    1.63677237419811    1.96233930843557
O         1.24803801723340    2.80273290663122    2.28725418698823
O         0.50724156037587    0.75783298810077    2.75530444188850
N        -0.97452507528219    0.94335174818138    0.26009476768888
C        -2.15484320743409    1.44708788052529    0.71514121453283
C        -2.11726338640003    2.80123574411415    1.37626048864417
C        -2.28491638039016    2.79929551281441    2.75875798504147
C        -2.33518906680383    3.98220802869844    3.47244663739942
C        -2.23512849332947    5.19192912850547    2.80675313425779
C        -2.12499591554057    5.21479021900502    1.42943658549606
C        -2.07990134764260    4.02444086422459    0.72518688656194
I        -1.97404792030173    4.09144600019429   -1.38475981991780
O        -3.19876377710405    0.83705240087688    0.65638667734133
H        -5.18190990390267   -4.33951642585750   -1.18868448885564
H        -5.27918708234687   -4.73112731535897    1.23003232526687
H        -3.81096332360580   -3.43028316547197    2.73673338007535
H        -2.25917261852904   -1.81266979195593    1.86991478456634
H        -4.29584761512359   -3.17128414877693   -3.09536341677364
H        -2.83333915724298   -1.44595037165494   -4.04626456526505
H        -1.32229773317422   -0.17640286333979   -2.61468083617581
H        -0.72784420620847   -0.98924435646371    0.99630277193986
H         0.54180004317030   -0.52834731596567   -1.72200212792299
H         1.46484599461105   -1.20247691702756    1.82361943314684
H         2.64106964831054   -3.19599369111291    2.60322146079576
H         3.26603924938804   -4.96894364672517    1.02443594833723
H         1.05442039018412   -1.85502117384143   -2.98523574038316
H         1.76762559918402   -3.59832193534145   -4.47251948025154
H         2.92702087646119   -5.61308670603219   -3.62147027290170
H         3.37385653410971   -5.82764318495561   -1.22060399171728
H         5.17985177047365    4.15047238378464    1.29591082358589
H         4.39412243738065    6.01019683015404   -0.10003053869443
H         2.69747512338325    5.60736846570960   -1.85622684858137
H         1.77241320011524    3.34830762308807   -2.16505032026584
H         0.34710565171151    2.58997499856828    0.06548244940603
H         1.50488199128246    2.76857088987594    3.22813245797944
H        -2.38925974163673    1.85195167271595    3.26482724937006
H        -2.46238229405993    3.95870588360806    4.54343886646873
H        -2.26156139041271    6.12157801294948    3.35463743356544
H        -2.08751764068069    6.16030438426670    0.90911579023327
72
 energy: -124.408769751906 gnorm: 0.013664372994 xtb: 6.3.3 (4ae9cef)
C        -4.52306752504807   -3.78288510138965   -0.52208049182556
C        -4.57659413736075   -4.00197593659516    0.82202383875489
C        -3.73475157842942   -3.27035799088391    1.67150874649957
C        -2.84574402266619   -2.36397316855511    1.16867387049865
C        -2.74967634470551   -2.11424288459130   -0.21643064275555
C        -3.63456308703586   -2.83417385903654   -1.07096296932740
C        -3.62881593247161   -2.58409208247514   -2.45815587978357
C        -2.81914193010573   -1.62068854162830   -2.97999903211247
C        -1.94189359846980   -0.91390107417012   -2.14626793277517
C        -1.85745617333696   -1.16989054946958   -0.80290722399685
C        -0.77927581177375   -0.50475512617239    0.02006695970772
C         0.61177296554473   -0.56408789181526   -0.63704305614277
C         1.39686917157970   -1.78746998906023   -0.22539253790020
C         1.72455412004967   -1.94376501305235    1.09605268793722
C         2.40358791958802   -3.08033018126454    1.55660422912633
C         2.75525313672445   -4.06507467226425    0.68290751582039
C         2.46415126620075   -3.93865673896456   -0.69076342255930
C         1.77812314551090   -2.78319065452909   -1.16928089631716
C         1.53722085275549   -2.70587547736598   -2.55795417604449
C         1.94341887892017   -3.69123528448341   -3.41085735740233
C         2.60620861552654   -4.83043996497375   -2.93242557232003
C         2.85674538987290   -4.94604339733228   -1.59756272676765
N         1.24421636520535    0.69554037873948   -0.22149441070339
C         2.35765982462163    1.10236923629336   -0.88733738263016
C         2.87216314089492    2.48078737577701   -0.57387847982126
C         3.84482277401062    2.71315430290477    0.38348473774844
I         4.49302047163238    1.10789359686358    1.60974719866803
C         4.39567511035965    3.97060645393726    0.55636648276144
C         3.96991698546698    5.01688381586898   -0.24173394912948
C         3.01009341574284    4.80050833593333   -1.21553653665352
C         2.47288598135578    3.53787585271465   -1.38510317518396
O         2.91422631973941    0.39190643902602   -1.69611201238783
C         0.31356772559145    1.56218134801297    0.46764880483921
C         0.67281648579412    1.62487396057460    1.96176465412821
O         1.24759276495466    2.78546734921508    2.27938155401877
O         0.47498094344513    0.74341085597479    2.74837634063566
N        -0.97129609021085    0.93594214980774    0.25787888308098
C        -2.15252351658524    1.43000022076890    0.71162928164911
C        -2.10416052601897    2.78362999901795    1.37810364549380
C        -2.26524891560772    2.78722990515702    2.76114263210496
C        -2.32147059302011    3.97417985087893    3.46755021346133
C        -2.23458069025379    5.18166092426551    2.79485092642074
C        -2.11455463173244    5.19782093475553    1.41712965291505
C        -2.05593775356310    4.00212604888074    0.72160004488266
I        -1.89961420000960    4.04059284704715   -1.39498870478922
O        -3.19391810412731    0.81917995210590    0.63598033239872
H        -5.17421044399302   -4.32368864450408   -1.19411489282403
H        -5.26615608822528   -4.72294609574274    1.23521973590517
H        -3.79655306698998   -3.42739584651718    2.73773703854182
H        -2.23534917306772   -1.81008574287844    1.86432914482015
H        -4.29076527741478   -3.15661284728392   -3.09127862027963
H        -2.83196275014453   -1.40899560906384   -4.03788546743171
H        -1.32045142714730   -0.15320347890611   -2.59735937035304
H        -0.71630026724329   -0.99606153967847    0.99739962652269
H         0.53277948850914   -0.53306390995633   -1.72571494796405
H         1.45719247477365   -1.18360099002861    1.81554072569732
H         2.63752898600912   -3.16989768832492    2.60647088718447
H         3.26768906570380   -4.95281061869504    1.02369767457526
H         1.03945726638208   -1.84767613418147   -2.97811256804112
H         1.75637149959485   -3.59494337558132   -4.46966575537770
H         2.91817064293912   -5.60252728076102   -3.62009273574243
H         3.37079679474488   -5.81334617392242   -1.20824234175199
H         5.15935803179812    4.13104556687336    1.30177924067754
H         4.39678115210297    5.99832541877861   -0.10439480284804
H         2.68883249581837    5.60915226458792   -1.85281554110203
H         1.74272072007513    3.35581511294921   -2.15923308552329
H         0.35033279689948    2.58626331592600    0.06624461631633
H         1.51126061432793    2.77868766491029    3.21826604023352
H        -2.35562097153077    1.84063981741483    3.27192194098568
H        -2.44799393173634    3.95619790416125    4.53848478419011
H        -2.27273373513029    6.11415053902363    3.33789491612677
H        -2.07843450561061    6.13786281695234    0.88771509323929
72
 energy: -124.409942963045 gnorm: 0.007976106425 xtb: 6.3.3 (4ae9cef)
C        -4.51502354940950   -3.77427916317240   -0.52322585004802
C        -4.56406031279768   -3.99657366216551    0.82213057637963
C        -3.71750034917894   -3.27136624718038    1.67326830677947
C        -2.82620586632189   -2.36689673573211    1.16945568667296
C        -2.73963788014331   -2.11471718638675   -0.21679018734107
C        -3.62667066675601   -2.82505136741579   -1.07192679739326
C        -3.62669918977518   -2.56327153490972   -2.45795637299524
C        -2.82450696468844   -1.59061336519430   -2.97680557744794
C        -1.94491238284639   -0.89016270612330   -2.14080123082109
C        -1.85234904431414   -1.16691403498210   -0.80030271464709
C        -0.77370554056353   -0.50922811946569    0.02079325902241
C         0.60952704225024   -0.56471493526016   -0.64142056167517
C         1.39759463721101   -1.78131776321272   -0.22768530519849
C         1.72607457940276   -1.92792560921251    1.09636646887166
C         2.40779138347615   -3.06038744271699    1.56072113694016
C         2.75936275155340   -4.04692992128627    0.68764332319824
C         2.46479763116197   -3.92693869511293   -0.68660651704122
C         1.77626314521311   -2.77822638086225   -1.16823198948550
C         1.52595222590886   -2.70213591572417   -2.55614453495904
C         1.93190470421341   -3.68886135176999   -3.40847040638134
C         2.59983958585114   -4.82455187159640   -2.92701714413767
C         2.85569170118154   -4.93680979040662   -1.59178411557551
N         1.23844554905290    0.69402985485644   -0.23053251432565
C         2.35700527639753    1.09159101924854   -0.88912882458165
C         2.85227623757041    2.47679201131024   -0.58440089813763
C         3.81170778240554    2.70274579651496    0.38744995481524
I         4.41357118420892    1.10360963966601    1.63996483719042
C         4.37052258904468    3.95562419317754    0.56554743454132
C         3.95833556077324    5.00394471574977   -0.23967615088370
C         2.99337420784426    4.79729313894081   -1.21197628360664
C         2.44899790024684    3.53830713068692   -1.38796817517873
O         2.92898160318587    0.36816554656183   -1.67458577649511
C         0.31145053767182    1.55571589191992    0.46593658308724
C         0.66428298375949    1.61499832262040    1.96411781980667
O         1.25281450248841    2.76737900117333    2.27537961865986
O         0.44087766189514    0.73585532533609    2.74769392396560
N        -0.96945461734831    0.92703805053225    0.25732075701608
C        -2.15397211138336    1.41323966414275    0.70885183291572
C        -2.09451055035332    2.76211783106771    1.37928255200371
C        -2.24570459337045    2.77298819193772    2.76335959794563
C        -2.30410813115841    3.96654282292524    3.45835694627277
C        -2.22945394247603    5.16871393866575    2.77339592999307
C        -2.09542080081345    5.17503614387020    1.39532762991899
C        -2.02783737010158    3.97295056912648    0.71190840563349
I        -1.83148106539157    4.00046403306267   -1.39706765778096
O        -3.19589679170014    0.80633591917880    0.62147225779868
H        -5.16911347910098   -4.30872927272331   -1.19783213488735
H        -5.25415510680427   -4.71462406701799    1.23906154511621
H        -3.77955682339816   -3.43053845406922    2.73971206938043
H        -2.20941528734393   -1.81396403357748    1.86056987894012
H        -4.29102935345549   -3.13413892229441   -3.09031582101014
H        -2.84189933254347   -1.36188161034537   -4.03184933050846
H        -1.32881000056865   -0.11940947763977   -2.58238274016470
H        -0.70396317262081   -0.99948662034183    0.99731684933573
H         0.52523903643040   -0.53391894087000   -1.72860761533987
H         1.45580548555850   -1.16365112278215    1.81003637410314
H         2.64137200768005   -3.14073390344621    2.61140988498520
H         3.27500493651613   -4.93368380333461    1.02675869930121
H         1.02157123996513   -1.84574098129556   -2.97306246025152
H         1.74161698294370   -3.59770842236872   -4.46769689945512
H         2.90960350531377   -5.59526033045618   -3.61670574065899
H         3.37191852252164   -5.80082620299121   -1.19736295326234
H         5.13010591316821    4.10921418064942    1.31657207283321
H         4.39857536009711    5.98079562546369   -0.10691655775698
H         2.67453576819152    5.61173762034216   -1.84358537699904
H         1.71250962879989    3.36446027396175   -2.15915736223354
H         0.34962891586836    2.58036062365417    0.06939089992756
H         1.52072290586925    2.78243117605692    3.21124645246337
H        -2.32398059188451    1.82906419389054    3.28241567846898
H        -2.42428640754538    3.95775930485657    4.53070241482227
H        -2.28375909009227    6.10537642821349    3.30838118426587
H        -2.05657380664247    6.10949278608188    0.85665773529279
72
 energy: -124.410335595774 gnorm: 0.004681475296 xtb: 6.3.3 (4ae9cef)
C        -4.51256281509332   -3.77024688575381   -0.52600877526258
C        -4.55613301439523   -3.99729476553283    0.81953848768859
C        -3.70512586354492   -3.27933599013673    1.67160583673363
C        -2.81319589952166   -2.37464531867568    1.16754558463268
C        -2.73463598625667   -2.11645454430614   -0.21883616537286
C        -3.62575537145081   -2.81936578197304   -1.07428783628671
C        -3.63337179637153   -2.54616356896983   -2.45812802173040
C        -2.83692182142991   -1.56618176145523   -2.97454843078465
C        -1.95366348119780   -0.87217304300860   -2.13833103686603
C        -1.85215301648421   -1.16442331091547   -0.80014328786702
C        -0.77209703205303   -0.51134321319412    0.01990018503529
C         0.60957953171939   -0.56517225169668   -0.64392946260249
C         1.40022969725077   -1.77860393848735   -0.22918339741811
C         1.73192618410197   -1.91951586983904    1.09625493369732
C         2.41700897784385   -3.04792738136488    1.56221658030088
C         2.76833791567416   -4.03633497414922    0.68977587118824
C         2.46926203735563   -3.92205011404291   -0.68371723053854
C         1.77676430377177   -2.77759159764578   -1.16711122126077
C         1.51857762388233   -2.70539350863517   -2.55428652200342
C         1.92354765605890   -3.69438339663597   -3.40572439976985
C         2.59660839376939   -4.82542038989906   -2.92219364061901
C         2.85873295040375   -4.93402789437282   -1.58715660667657
N         1.23514441080246    0.69438328079894   -0.23629202769744
C         2.35854371531111    1.08888915332449   -0.88832550264343
C         2.84289143496751    2.47567693654318   -0.58844602063490
C         3.79202379458688    2.69845538684988    0.39556088678031
I         4.36778673782683    1.09801074840587    1.65769211710242
C         4.35281587847456    3.95016611464006    0.57580350297321
C         3.94803442514662    4.99791109382893   -0.23426162660806
C         2.98322594689630    4.79593527110244   -1.20772134738403
C         2.43880215922223    3.53763894317760   -1.39022078999822
O         2.94173267317936    0.36222077732361   -1.66146485619991
C         0.31021986509398    1.55186425509061    0.46684385657606
C         0.66067876565330    1.60980164499265    1.96781380834553
O         1.25989904715065    2.75644127478722    2.27613094499532
O         0.42129355883513    0.73640130445309    2.75296768055984
N        -0.96983431329715    0.92214961051566    0.25791613597596
C        -2.15653877102821    1.40636536344731    0.70781647988539
C        -2.09196690732686    2.75174133086761    1.37769472604700
C        -2.23551033814761    2.76782741064652    2.76234681285868
C        -2.29016287087621    3.96590359723323    3.44983557958886
C        -2.21896231625498    5.16319619865694    2.75630216496186
C        -2.08085294859082    5.16281768150151    1.37854649585849
C        -2.01632917883529    3.95753173638198    0.70105366551852
I        -1.80037887774583    3.96632396414033   -1.40676685700905
O        -3.20009975575801    0.80326550366075    0.61874124864759
H        -5.17129788117459   -4.30128841995289   -1.19874110390856
H        -5.24763111836280   -4.71386091657807    1.23737906946893
H        -3.76432575230982   -3.44194216499497    2.73822827704565
H        -2.19228898360695   -1.82604591438945    1.85843925647200
H        -4.30001289737706   -3.11244424053175   -3.09243711281958
H        -2.86217565058727   -1.32611249748342   -4.02755203339345
H        -1.34292895936371   -0.09342952487206   -2.57377691408891
H        -0.69857134938776   -1.00102789551821    0.99623728844872
H         0.52252451833052   -0.53343849105130   -1.73065292742893
H         1.46124544598771   -1.15271428595104    1.80695028298482
H         2.65333613203397   -3.12279765067843    2.61288865358817
H         3.28740656868527   -4.92034252089388    1.03136759664326
H         1.00861991785533   -1.85249484733390   -2.97175648923362
H         1.72805895758920   -3.60726810098647   -4.46478717500473
H         2.90530805070151   -5.59692628086146   -3.61170961936069
H         3.37855484596347   -5.79613533654639   -1.19342857998671
H         5.10444746986872    4.10366212789243    1.33485477300829
H         4.39221409820759    5.97297006043660   -0.10242507730453
H         2.66356563007271    5.61375077978030   -1.83489639377526
H         1.70253710166179    3.36763303362191   -2.16288509991322
H         0.34732172201043    2.57691813109978    0.07410245386807
H         1.52717505133824    2.77893040772202    3.21063010704214
H        -2.31125648971805    1.82675631278895    3.28713284011612
H        -2.40453464252994    3.96413678245782    4.52324973296579
H        -2.28016428801195    6.10243814917524    3.28520669285768
H        -2.03454380719487    6.09420522196851    0.83555897898989
72
 energy: -124.410647211469 gnorm: 0.004647583815 xtb: 6.3.3 (4ae9cef)
C        -4.51367665114464   -3.76823742206282   -0.53059409826834
C        -4.54985792001259   -4.00298612206530    0.81408501200300
C        -3.69299462604696   -3.29374948095747    1.66671408292395
C        -2.80157646030897   -2.38781335856162    1.16329774542591
C        -2.73211590784165   -2.11961321675317   -0.22202927794839
C        -3.62952375001509   -2.81438096986350   -1.07782212143504
C        -3.64710357771535   -2.52686994223055   -2.45838970114174
C        -2.85598261185339   -1.53979366880202   -2.97114375170256