74
 energy: -144.780095632664 gnorm: 0.000246992183 xtb: 6.3.3 (4ae9cef)
C        -2.47119377553759   -0.79066970116570   -1.64656249876905
O        -1.85976139727954    0.15761568024203   -2.41337050101887
C        -2.55192293646661    0.66630409072694   -3.53142092037561
C        -3.64102765344467   -1.44608082168019   -2.01263169276322
C        -4.20661817648426   -2.39269010032793   -1.17612904694615
C        -3.61175948094070   -2.70320537898325    0.03099615097863
C        -2.44595880523745   -2.05530901257965    0.39855161783003
C        -1.86757134751569   -1.09643721657355   -0.41760697270066
C        -0.59702314993617   -0.43103361782277    0.03039069361044
C         0.64332533573182   -0.93175282248305   -0.74712809153089
C         1.22331686871548   -2.20288224704423   -0.19946911514358
C         1.29360739617977   -3.31981786491318   -1.01472357129885
C         1.80643556762823   -4.51802689570387   -0.55076481216613
C         2.26291099210687   -4.59845800489809    0.75023067293098
C         2.19715687596057   -3.49756691499007    1.58543770125485
C         1.67561032526138   -2.29287904159121    1.12744573671359
O         1.55478792329607   -1.17664133785755    1.88915916851019
C         1.94504338427043   -1.22838153217367    3.24233668430943
N         1.52468928188380    0.23111512044078   -0.69766547918380
C         2.87363902623211    0.19320806065370   -0.75210906488700
C         3.52975314690251    1.55218197125054   -0.82705220337479
C         3.91587067593233    2.27112678355884    0.30335285880163
C         3.60521443975128    1.72760124340195    1.67053823272970
F         4.14624890375043    0.52092947110884    1.89141341026804
F         4.05931258163147    2.51701440495093    2.65900144112257
F         2.28324965037462    1.60359876388557    1.87662706746428
C         4.57632728288455    3.48611845808912    0.17663833375504
C         4.86364479839966    3.98639763682685   -1.08041456231544
C         4.50490593492168    3.26843286724286   -2.20855427663766
C         3.84825238773001    2.05713692266417   -2.08157949878977
O         3.53108503049599   -0.82130647620261   -0.79068628248268
C         0.70026688119639    1.39969952727460   -0.80124286909214
C         0.41253529335301    1.78572225916407   -2.26756668984000
O         1.05720427575828    0.99704158758657   -3.12988906515229
O        -0.29444194493451    2.68695215297177   -2.61301578050041
N        -0.54345664422126    1.01082352809742   -0.16694707989553
C        -1.33099992445436    1.93918059344977    0.42391504146575
C        -2.63209779697791    1.38902865532911    0.94552128926985
C        -3.73276908720866    1.50031539264025    0.10183662879501
C        -4.97056133471280    1.02190484847483    0.48557927144731
C        -5.13327669629912    0.43797703216911    1.73160900057451
C        -4.05960494366252    0.35518177979266    2.59587902318837
C        -2.81215929052279    0.83383710857104    2.20666012584740
C        -1.69786389305145    0.70630697544226    3.20644572549759
F        -1.37917919186834   -0.59313636291769    3.42439421104717
F        -0.56233416136003    1.31403701722854    2.86721038635400
F        -2.04973326767636    1.18975150324709    4.41128488603091
O        -1.07301741917738    3.12066556975770    0.43755446277120
H        -3.58001559318877    0.93755125637311   -3.27752020185787
H        -2.55825713402509   -0.05183359734625   -4.35825965881999
H        -2.01516381390172    1.56735459932647   -3.82598056145921
H        -4.11634406942133   -1.23195529104437   -2.95649344321221
H        -5.11620214374636   -2.88873676009463   -1.47924038242105
H        -4.04902106803596   -3.44234360427139    0.68323437002954
H        -1.97347178868655   -2.29137491679314    1.34012417875129
H        -0.43881743316429   -0.64741533262280    1.09128988052606
H         0.35949940923065   -1.09730373946194   -1.79573677184353
H         0.94446439808169   -3.24572677114470   -2.03447125979124
H         1.85604496456770   -5.37582814671036   -1.20336558220901
H         2.67681231916347   -5.52256413055644    1.12558321569701
H         2.56467056185815   -3.58287011899165    2.59521366963387
H         1.37018352351317   -1.98042799274269    3.79231112419403
H         1.72234259205344   -0.24151674656037    3.64372029420419
H         3.01502464347481   -1.42938758871359    3.34169744489796
H         4.86410456982025    4.03313719784803    1.06094277902911
H         5.37480659799431    4.93161466432432   -1.17548029924486
H         4.74156065656338    3.65045402036921   -3.19000420439655
H         3.58175975881364    1.48347718148811   -2.95566320202829
H         1.10726094787215    2.28402130668276   -0.29228579065020
H         0.84197794237590    1.24385675528633   -4.04417038542552
H        -3.59647810926583    1.97387134009249   -0.85819896437369
H        -5.81242592674020    1.10731656641034   -0.18457323248894
H        -6.09715967223804    0.06033019585743    2.03469775497315
H        -4.17721507435487   -0.07462900338598    3.57915248060745
