      -----------------------------------------------------------      
     |                   =====================                   |     
     |                           x T B                           |     
     |                   =====================                   |     
     |                         S. Grimme                         |     
     |          Mulliken Center for Theoretical Chemistry        |     
     |                    University of Bonn                     |     
      -----------------------------------------------------------      

   * xtb version 6.3.3 (4ae9cef) compiled by 'conda@95abc7406d43' on 2020-10-14

   xtb is free software: you can redistribute it and/or modify it under
   the terms of the GNU Lesser General Public License as published by
   the Free Software Foundation, either version 3 of the License, or
   (at your option) any later version.
   
   xtb is distributed in the hope that it will be useful,
   but WITHOUT ANY WARRANTY; without even the implied warranty of
   MERCHANTABILITY or FITNESS FOR A PARTICULAR PURPOSE.  See the
   GNU Lesser General Public License for more details.
   
   Cite this work as:
   * C. Bannwarth, E. Caldeweyher, S. Ehlert, A. Hansen, P. Pracht,
     J. Seibert, S. Spicher, S. Grimme, WIREs Comput. Mol. Sci., 2020,
     e01493. DOI: 10.1002/wcms.1493
   
   for GFN2-xTB:
   * S. Grimme, C. Bannwarth, P. Shushkov, J. Chem. Theory Comput., 2017,
     13, 1989-2009. DOI: 10.1021/acs.jctc.7b00118
   for GFN1-xTB:
   * C. Bannwarth, S. Ehlert and S. Grimme., J. Chem. Theory Comput., 2019,
     15, 1652-1671. DOI: 10.1021/acs.jctc.8b01176
   for GFN0-xTB:
   * P. Pracht, E. Caldeweyher, S. Ehlert, S. Grimme, ChemRxiv, 2019, preprint.
     DOI: 10.26434/chemrxiv.8326202.v1
   for GFN-FF:
   * S. Spicher and S. Grimme, Angew. Chem. Int. Ed., 2020, 59, 15665-15673.
     DOI: 10.1002/anie.202004239
   
   for DFT-D4:
   * E. Caldeweyher, C. Bannwarth and S. Grimme, J. Chem. Phys., 2017,
     147, 034112. DOI: 10.1063/1.4993215
   * E. Caldeweyher, S. Ehlert, A. Hansen, H. Neugebauer, S. Spicher,
     C. Bannwarth and S. Grimme, J. Chem. Phys., 2019, 150, 154122.
     DOI: 10.1063/1.5090222
   * E. Caldeweyher, J.-M. Mewes, S. Ehlert and S. Grimme, Phys. Chem. Chem. Phys.
     2020, 22, 8499-8512. DOI: 10.1039/D0CP00502A
   
   for sTDA-xTB:
   * S. Grimme and C. Bannwarth, J. Chem. Phys., 2016, 145, 054103.
     DOI: 10.1063/1.4959605
   
   in the mass-spec context:
   * V. Asgeirsson, C. Bauer and S. Grimme, Chem. Sci., 2017, 8, 4879.
     DOI: 10.1039/c7sc00601b
   * J. Koopman and S. Grimme, ACS Omega 2019, 4, 12, 15120-15133.
     DOI: 10.1021/acsomega.9b02011
   
   for metadynamics refer to:
   * S. Grimme, J. Chem. Theory Comput., 2019, 155, 2847-2862
     DOI: 10.1021/acs.jctc.9b00143
   
   with help from (in alphabetical order)
   C. Bannwarth, F. Bohle, G. Brandenburg, E. Caldeweyher, M. Checinski,
   S. Dohm, S. Ehlert, S. Ehrlich, F. März, H. Neugebauer, J. Pisarek,
   P. Pracht, P. Shushkov, and S. Spicher.
   
 * started run on 2022/03/17 at 00:49:26.149     

           -------------------------------------------------
          |                Calculation Setup                |
           -------------------------------------------------

          program call               : xtb acid_407.xyz --opt --chrg 0 --uhf 0 --gfn 2
          coordinate file            : acid_407.xyz
          omp threads                :                    64
          number of atoms            :                    60
          number of electrons        :                   190
          charge                     :                     0
          spin                       :                   0.0
          first test random number   :      0.21468730530447

   ID    Z sym.   atoms
    1    6 C      1-14, 16-20, 22, 23, 25, 26, 30-34, 36, 37
    2    7 N      15, 29
    3    9 F      21, 35
    4    8 O      24, 27, 28, 38
    5    1 H      39-60

           -------------------------------------------------
          |                 G F N 2 - x T B                 |
           -------------------------------------------------

        Reference                      10.1021/acs.jctc.8b01176
      * Hamiltonian:
        H0-scaling (s, p, d)           1.850000    2.230000    2.230000
        zeta-weighting                 0.500000
      * Dispersion:
        s8                             2.700000
        a1                             0.520000
        a2                             5.000000
        s9                             5.000000
      * Repulsion:
        kExp                           1.500000    1.000000
        rExp                           1.000000
      * Coulomb:
        alpha                          2.000000
        third order                    shell-resolved
        anisotropic                    true
        a3                             3.000000
        a5                             4.000000
        cn-shift                       1.200000
        cn-exp                         4.000000
        max-rad                        5.000000


          ...................................................
          :                      SETUP                      :
          :.................................................:
          :  # basis functions                 174          :
          :  # atomic orbitals                 174          :
          :  # shells                           98          :
          :  # electrons                       190          :
          :  max. iterations                   250          :
          :  Hamiltonian                  GFN2-xTB          :
          :  restarted?                      false          :
          :  GBSA solvation                  false          :
          :  PC potential                    false          :
          :  electronic temp.          300.0000000     K    :
          :  accuracy                    1.0000000          :
          :  -> integral cutoff          0.2500000E+02      :
          :  -> integral neglect         0.1000000E-07      :
          :  -> SCF convergence          0.1000000E-05 Eh   :
          :  -> wf. convergence          0.1000000E-03 e    :
          :  Broyden damping             0.4000000          :
          ...................................................

 iter      E             dE          RMSdq      gap      omega  full diag
   1   -108.2845371 -0.108285E+03  0.475E+00    3.46       0.0  T
   2   -108.4378515 -0.153314E+00  0.279E+00    3.01       1.0  T
   3   -108.4347260  0.312546E-02  0.144E+00    3.55       1.0  T
   4   -108.4651808 -0.304548E-01  0.300E-01    3.07       1.0  T
   5   -108.4688821 -0.370136E-02  0.928E-02    3.08       1.0  T
   6   -108.4690606 -0.178517E-03  0.444E-02    3.11       1.0  T
   7   -108.4690947 -0.340779E-04  0.185E-02    3.11       1.0  T
   8   -108.4690957 -0.983888E-06  0.712E-03    3.11       1.8  T
   9   -108.4690971 -0.137269E-05  0.329E-03    3.11       3.9  T
  10   -108.4690973 -0.258252E-06  0.108E-03    3.11      11.9  T
  11   -108.4690974 -0.263749E-07  0.558E-04    3.11      23.1  T
  12   -108.4690974 -0.445635E-08  0.217E-04    3.11      59.4  T

   *** convergence criteria satisfied after 12 iterations ***

         #    Occupation            Energy/Eh            Energy/eV
      -------------------------------------------------------------
         1        2.0000           -0.8309027             -22.6100
       ...           ...                  ...                  ...
        89        2.0000           -0.4168973             -11.3444
        90        2.0000           -0.4154285             -11.3044
        91        2.0000           -0.4137125             -11.2577
        92        2.0000           -0.4134391             -11.2502
        93        2.0000           -0.4068089             -11.0698
        94        2.0000           -0.4055338             -11.0351
        95        2.0000           -0.4025022             -10.9526 (HOMO)
        96                         -0.2880944              -7.8394 (LUMO)
        97                         -0.2650159              -7.2114
        98                         -0.2615451              -7.1170
        99                         -0.2579990              -7.0205
       100                         -0.2530493              -6.8858
       ...                                ...                  ...
       174                          0.6095633              16.5871
      -------------------------------------------------------------
                  HL-Gap            0.1144078 Eh            3.1132 eV
             Fermi-level           -0.3452983 Eh           -9.3960 eV

 SCC (total)                   0 d,  0 h,  0 min,  0.427 sec
 SCC setup                      ...        0 min,  0.023 sec (  5.337%)
 Dispersion                     ...        0 min,  0.014 sec (  3.256%)
 classical contributions        ...        0 min,  0.016 sec (  3.725%)
 integral evaluation            ...        0 min,  0.076 sec ( 17.884%)
 iterations                     ...        0 min,  0.163 sec ( 38.152%)
 molecular gradient             ...        0 min,  0.133 sec ( 31.188%)
 printout                       ...        0 min,  0.002 sec (  0.435%)

         :::::::::::::::::::::::::::::::::::::::::::::::::::::
         ::                     SUMMARY                     ::
         :::::::::::::::::::::::::::::::::::::::::::::::::::::
         :: total energy            -107.048485327729 Eh    ::
         :: gradient norm              0.096271915920 Eh/a0 ::
         :: HOMO-LUMO gap              3.113196035607 eV    ::
         ::.................................................::
         :: SCC energy              -108.469097366423 Eh    ::
         :: -> isotropic ES            0.139848646534 Eh    ::
         :: -> anisotropic ES          0.003503897924 Eh    ::
         :: -> anisotropic XC          0.035495815387 Eh    ::
         :: -> dispersion             -0.080418315148 Eh    ::
         :: repulsion energy           1.417921124698 Eh    ::
         :: add. restraining           0.000000000000 Eh    ::
         :: total charge               0.000000000000 e     ::
         :::::::::::::::::::::::::::::::::::::::::::::::::::::

      ----------------------------------------------------------- 
     |                   =====================                   |
     |                        A N C O P T                        |
     |                   =====================                   |
     |               Approximate Normal Coordinate               |
     |                Rational Function Optimizer                |
      ----------------------------------------------------------- 

          ...................................................
          :                      SETUP                      :
          :.................................................:
          :   optimization level            normal          :
          :   max. optcycles                   200          :
          :   ANC micro-cycles                  20          :
          :   degrees of freedom               174          :
          :.................................................:
          :   RF solver                   davidson          :
          :   write xtbopt.log                true          :
          :   linear?                        false          :
          :   energy convergence         0.5000000E-05 Eh   :
          :   grad. convergence          0.1000000E-02 Eh/α :
          :   maximium RF displ.         1.0000000          :
          :   Hlow (freq-cutoff)         0.1000000E-01      :
          :   Hmax (freq-cutoff)         5.0000000          :
          :   S6 in model hess.         20.0000000          :
          ...................................................

generating ANC from model Hessian ...
Using Lindh-Hessian (1995)
 Shifting diagonal of input Hessian by    9.7867897724739309E-003
 Lowest  eigenvalues of input Hessian
    0.000000    0.000000    0.000000    0.000000    0.000000    0.000000
    0.010000    0.010103    0.010206    0.010334    0.010600    0.010647
    0.010833    0.010874    0.010946    0.011290    0.011588    0.012091
 Highest eigenvalues
    1.952405    2.056423    2.061517    2.201204    2.237373    2.254493


........................................................................
.............................. CYCLE    1 ..............................
........................................................................
   1   -108.4690974 -0.108469E+03  0.948E-05    3.11       0.0  T
   2   -108.4690974 -0.186660E-09  0.623E-05    3.11     207.3  T
   3   -108.4690974 -0.178773E-09  0.331E-05    3.11     390.4  T
     SCC iter.                  ...        0 min,  0.041 sec
     gradient                   ...        0 min,  0.133 sec
 * total energy  :  -107.0484853 Eh     change       -0.8440537E-09 Eh
   gradient norm :     0.0962704 Eh/α   predicted     0.0000000E+00 (-100.00%)
   displ. norm   :     0.3602286 α      lambda       -0.2058764E-01
   maximum displ.:     0.1001378 α      in ANC's #53, #93, #19, ...

........................................................................
.............................. CYCLE    2 ..............................
........................................................................
   1   -108.5689328 -0.108569E+03  0.180E-01    3.39       0.0  T
   2   -108.5690395 -0.106783E-03  0.110E-01    3.34       1.0  T
   3   -108.5689695  0.700852E-04  0.485E-02    3.35       1.0  T
   4   -108.5690739 -0.104491E-03  0.856E-03    3.34       1.5  T
   5   -108.5690773 -0.336193E-05  0.334E-03    3.34       3.9  T
   6   -108.5690776 -0.323606E-06  0.144E-03    3.34       9.0  T
   7   -108.5690776 -0.138502E-07  0.592E-04    3.34      21.8  T
   8   -108.5690776 -0.725041E-08  0.260E-04    3.34      49.6  T
     SCC iter.                  ...        0 min,  0.113 sec
     gradient                   ...        0 min,  0.151 sec
 * total energy  :  -107.0625125 Eh     change       -0.1402719E-01 Eh
   gradient norm :     0.0337489 Eh/α   predicted    -0.1162960E-01 ( -17.09%)
   displ. norm   :     0.3548411 α      lambda       -0.5963267E-02
   maximum displ.:     0.1582772 α      in ANC's #19, #23, #21, ...

........................................................................
.............................. CYCLE    3 ..............................
........................................................................
   1   -108.6131168 -0.108613E+03  0.118E-01    3.47       0.0  T
   2   -108.6131633 -0.464886E-04  0.735E-02    3.44       1.0  T
   3   -108.6131301  0.331605E-04  0.316E-02    3.45       1.0  T
   4   -108.6131797 -0.496169E-04  0.612E-03    3.44       2.1  T
   5   -108.6131816 -0.189964E-05  0.207E-03    3.44       6.2  T
   6   -108.6131817 -0.771528E-07  0.898E-04    3.44      14.4  T
   7   -108.6131817 -0.813066E-08  0.410E-04    3.44      31.5  T
     SCC iter.                  ...        0 min,  0.098 sec
     gradient                   ...        0 min,  0.128 sec
 * total energy  :  -107.0662067 Eh     change       -0.3694191E-02 Eh
   gradient norm :     0.0118452 Eh/α   predicted    -0.3357061E-02 (  -9.13%)
   displ. norm   :     0.2529061 α      lambda       -0.1283617E-02
   maximum displ.:     0.1338349 α      in ANC's #19, #23, #15, ...

........................................................................
.............................. CYCLE    4 ..............................
........................................................................
   1   -108.6175398 -0.108618E+03  0.748E-02    3.45       0.0  T
   2   -108.6175491 -0.930685E-05  0.455E-02    3.44       1.0  T
   3   -108.6175363  0.128245E-04  0.158E-02    3.45       1.0  T
   4   -108.6175524 -0.160882E-04  0.315E-03    3.44       4.1  T
   5   -108.6175528 -0.457255E-06  0.127E-03    3.44      10.2  T
   6   -108.6175528 -0.852944E-08  0.548E-04    3.44      23.5  T
   7   -108.6175528 -0.431670E-08  0.217E-04    3.44      59.6  T
     SCC iter.                  ...        0 min,  0.101 sec
     gradient                   ...        0 min,  0.125 sec
 * total energy  :  -107.0670918 Eh     change       -0.8850658E-03 Eh
   gradient norm :     0.0075087 Eh/α   predicted    -0.6828714E-03 ( -22.85%)
   displ. norm   :     0.2468566 α      lambda       -0.6334579E-03
   maximum displ.:     0.1223668 α      in ANC's #19, #4, #23, ...

........................................................................
.............................. CYCLE    5 ..............................
........................................................................
   1   -108.6156451 -0.108616E+03  0.717E-02    3.44       0.0  T
   2   -108.6156475 -0.239766E-05  0.422E-02    3.44       1.0  T
   3   -108.6156445  0.300903E-05  0.847E-03    3.43       1.5  T
   4   -108.6156486 -0.413918E-05  0.200E-03    3.43       6.5  T
   5   -108.6156487 -0.406129E-07  0.111E-03    3.43      11.7  T
   6   -108.6156487 -0.130060E-07  0.341E-04    3.43      37.8  T
   7   -108.6156487 -0.132559E-08  0.148E-04    3.43      87.3  T
     SCC iter.                  ...        0 min,  0.096 sec
     gradient                   ...        0 min,  0.115 sec
 * total energy  :  -107.0675064 Eh     change       -0.4145983E-03 Eh
   gradient norm :     0.0052370 Eh/α   predicted    -0.3360477E-03 ( -18.95%)
   displ. norm   :     0.2019925 α      lambda       -0.2833195E-03
   maximum displ.:     0.1071963 α      in ANC's #4, #19, #11, ...

........................................................................
.............................. CYCLE    6 ..............................
........................................................................
   1   -108.6137170 -0.108614E+03  0.624E-02    3.42       0.0  T
   2   -108.6137184 -0.133340E-05  0.367E-02    3.42       1.0  T
   3   -108.6137172  0.114137E-05  0.512E-03    3.42       2.5  T
   4   -108.6137189 -0.173933E-05  0.159E-03    3.42       8.1  T
   5   -108.6137190 -0.292528E-07  0.863E-04    3.42      15.0  T
   6   -108.6137190 -0.992348E-08  0.280E-04    3.42      46.1  T
     SCC iter.                  ...        0 min,  0.082 sec
     gradient                   ...        0 min,  0.123 sec
 * total energy  :  -107.0677067 Eh     change       -0.2003472E-03 Eh
   gradient norm :     0.0062851 Eh/α   predicted    -0.1474404E-03 ( -26.41%)
   displ. norm   :     0.2356067 α      lambda       -0.2557495E-03
   maximum displ.:     0.1354207 α      in ANC's #4, #9, #18, ...

........................................................................
.............................. CYCLE    7 ..............................
........................................................................
   1   -108.6129920 -0.108613E+03  0.636E-02    3.43       0.0  T
   2   -108.6129957 -0.363521E-05  0.372E-02    3.43       1.0  T
   3   -108.6129927  0.297736E-05  0.744E-03    3.43       1.7  T
   4   -108.6129964 -0.375854E-05  0.214E-03    3.43       6.0  T
   5   -108.6129967 -0.223950E-06  0.998E-04    3.43      12.9  T
   6   -108.6129967 -0.798545E-08  0.502E-04    3.43      25.7  T
     SCC iter.                  ...        0 min,  0.075 sec
     gradient                   ...        0 min,  0.129 sec
 * total energy  :  -107.0678943 Eh     change       -0.1875828E-03 Eh
   gradient norm :     0.0046328 Eh/α   predicted    -0.1349846E-03 ( -28.04%)
   displ. norm   :     0.2586895 α      lambda       -0.2340142E-03
   maximum displ.:     0.1536251 α      in ANC's #4, #18, #9, ...

........................................................................
.............................. CYCLE    8 ..............................
........................................................................
   1   -108.6132531 -0.108613E+03  0.727E-02    3.42       0.0  T
   2   -108.6132553 -0.215014E-05  0.427E-02    3.43       1.0  T
   3   -108.6132518  0.343242E-05  0.777E-03    3.43       1.7  T
   4   -108.6132562 -0.437420E-05  0.172E-03    3.43       7.5  T
   5   -108.6132563 -0.579218E-07  0.953E-04    3.43      13.6  T
   6   -108.6132563 -0.382065E-08  0.397E-04    3.43      32.6  T
     SCC iter.                  ...        0 min,  0.093 sec
     gradient                   ...        0 min,  0.131 sec
 * total energy  :  -107.0680704 Eh     change       -0.1760465E-03 Eh
   gradient norm :     0.0054242 Eh/α   predicted    -0.1248369E-03 ( -29.09%)
   displ. norm   :     0.2614011 α      lambda       -0.2161291E-03
   maximum displ.:     0.1615818 α      in ANC's #4, #9, #8, ...

........................................................................
.............................. CYCLE    9 ..............................
........................................................................
   1   -108.6149084 -0.108615E+03  0.692E-02    3.46       0.0  T
   2   -108.6149112 -0.284947E-05  0.405E-02    3.45       1.0  T
   3   -108.6149089  0.234724E-05  0.684E-03    3.45       1.9  T
   4   -108.6149119 -0.301088E-05  0.165E-03    3.45       7.8  T
   5   -108.6149120 -0.987960E-07  0.792E-04    3.45      16.3  T
   6   -108.6149120 -0.187578E-08  0.404E-04    3.45      32.0  T
     SCC iter.                  ...        0 min,  0.085 sec
     gradient                   ...        0 min,  0.133 sec
 * total energy  :  -107.0682216 Eh     change       -0.1512501E-03 Eh
   gradient norm :     0.0039079 Eh/α   predicted    -0.1154489E-03 ( -23.67%)
   displ. norm   :     0.2539085 α      lambda       -0.1408920E-03
   maximum displ.:     0.1564781 α      in ANC's #4, #8, #9, ...

........................................................................
.............................. CYCLE   10 ..............................
........................................................................
   1   -108.6147351 -0.108615E+03  0.717E-02    3.42       0.0  T
   2   -108.6147369 -0.179792E-05  0.422E-02    3.42       1.0  T
   3   -108.6147347  0.219944E-05  0.638E-03    3.43       2.0  T
   4   -108.6147377 -0.292124E-05  0.146E-03    3.43       8.9  T
   5   -108.6147377 -0.304358E-07  0.831E-04    3.43      15.5  T
   6   -108.6147377 -0.583242E-08  0.319E-04    3.43      40.5  T
     SCC iter.                  ...        0 min,  0.083 sec
     gradient                   ...        0 min,  0.113 sec
 * total energy  :  -107.0683123 Eh     change       -0.9073893E-04 Eh
   gradient norm :     0.0044453 Eh/α   predicted    -0.7498996E-04 ( -17.36%)
   displ. norm   :     0.1948754 α      lambda       -0.1244521E-03
   maximum displ.:     0.1180854 α      in ANC's #4, #8, #1, ...

........................................................................
.............................. CYCLE   11 ..............................
........................................................................
   1   -108.6165812 -0.108617E+03  0.502E-02    3.47       0.0  T
   2   -108.6165832 -0.205351E-05  0.295E-02    3.46       1.0  T
   3   -108.6165806  0.263325E-05  0.765E-03    3.46       1.7  T
   4   -108.6165839 -0.331140E-05  0.119E-03    3.46      10.8  T
   5   -108.6165840 -0.519699E-07  0.624E-04    3.46      20.7  T
   6   -108.6165840 -0.460368E-08  0.248E-04    3.46      52.1  T
     SCC iter.                  ...        0 min,  0.083 sec
     gradient                   ...        0 min,  0.143 sec
 * total energy  :  -107.0683887 Eh     change       -0.7631675E-04 Eh
   gradient norm :     0.0038942 Eh/α   predicted    -0.6463741E-04 ( -15.30%)
   displ. norm   :     0.1870227 α      lambda       -0.8080126E-04
   maximum displ.:     0.1119086 α      in ANC's #4, #8, #1, ...

........................................................................
.............................. CYCLE   12 ..............................
........................................................................
   1   -108.6161855 -0.108616E+03  0.458E-02    3.45       0.0  T
   2   -108.6161861 -0.634337E-06  0.269E-02    3.45       1.0  T
   3   -108.6161848  0.126263E-05  0.471E-03    3.45       2.7  T
   4   -108.6161864 -0.155992E-05  0.810E-04    3.45      15.9  T
   5   -108.6161864 -0.124904E-07  0.448E-04    3.45      28.8  T
   6   -108.6161864 -0.132381E-08  0.163E-04    3.45      79.3  T
     SCC iter.                  ...        0 min,  0.086 sec
     gradient                   ...        0 min,  0.125 sec
 * total energy  :  -107.0684550 Eh     change       -0.6632292E-04 Eh
   gradient norm :     0.0031442 Eh/α   predicted    -0.4181605E-04 ( -36.95%)
   displ. norm   :     0.2670755 α      lambda       -0.1185299E-03
   maximum displ.:     0.1484737 α      in ANC's #4, #8, #1, ...

........................................................................
.............................. CYCLE   13 ..............................
........................................................................
   1   -108.6157223 -0.108616E+03  0.627E-02    3.44       0.0  T
   2   -108.6157237 -0.137784E-05  0.369E-02    3.44       1.0  T
   3   -108.6157208  0.290850E-05  0.686E-03    3.44       1.9  T
   4   -108.6157243 -0.348501E-05  0.107E-03    3.44      12.1  T
   5   -108.6157243 -0.342593E-07  0.529E-04    3.44      24.4  T
   6   -108.6157243 -0.135512E-08  0.209E-04    3.44      61.7  T
     SCC iter.                  ...        0 min,  0.080 sec
     gradient                   ...        0 min,  0.124 sec
 * total energy  :  -107.0685430 Eh     change       -0.8803307E-04 Eh
   gradient norm :     0.0024211 Eh/α   predicted    -0.6349256E-04 ( -27.88%)
   displ. norm   :     0.2498729 α      lambda       -0.7805565E-04
   maximum displ.:     0.1391075 α      in ANC's #4, #1, #8, ...

........................................................................
.............................. CYCLE   14 ..............................
........................................................................
   1   -108.6152542 -0.108615E+03  0.572E-02    3.44       0.0  T
   2   -108.6152552 -0.100038E-05  0.337E-02    3.44       1.0  T
   3   -108.6152528  0.234660E-05  0.606E-03    3.44       2.1  T
   4   -108.6152556 -0.280819E-05  0.884E-04    3.44      14.6  T
   5   -108.6152556 -0.233509E-07  0.465E-04    3.44      27.8  T
   6   -108.6152556 -0.117832E-08  0.156E-04    3.44      82.6  T
     SCC iter.                  ...        0 min,  0.084 sec
     gradient                   ...        0 min,  0.143 sec
 * total energy  :  -107.0686030 Eh     change       -0.5997193E-04 Eh
   gradient norm :     0.0026006 Eh/α   predicted    -0.4146531E-04 ( -30.86%)
   displ. norm   :     0.2474679 α      lambda       -0.7135992E-04
   maximum displ.:     0.1358750 α      in ANC's #4, #1, #8, ...

........................................................................
.............................. CYCLE   15 ..............................
........................................................................
   1   -108.6153082 -0.108615E+03  0.554E-02    3.44       0.0  T
   2   -108.6153089 -0.678167E-06  0.325E-02    3.44       1.0  T
   3   -108.6153071  0.183840E-05  0.529E-03    3.44       2.4  T
   4   -108.6153093 -0.220892E-05  0.722E-04    3.44      17.9  T
   5   -108.6153093 -0.643254E-08  0.399E-04    3.44      32.4  T
   6   -108.6153093 -0.155958E-08  0.139E-04    3.44      92.9  T
     SCC iter.                  ...        0 min,  0.081 sec
     gradient                   ...        0 min,  0.110 sec
 * total energy  :  -107.0686608 Eh     change       -0.5780494E-04 Eh
   gradient norm :     0.0022639 Eh/α   predicted    -0.3786749E-04 ( -34.49%)
   displ. norm   :     0.3171730 α      lambda       -0.8745868E-04
   maximum displ.:     0.1710577 α      in ANC's #4, #1, #8, ...

........................................................................
.............................. CYCLE   16 ..............................
........................................................................
   1   -108.6154740 -0.108615E+03  0.693E-02    3.44       0.0  T
   2   -108.6154750 -0.966134E-06  0.407E-02    3.45       1.0  T
   3   -108.6154722  0.277812E-05  0.658E-03    3.45       2.0  T
   4   -108.6154756 -0.335896E-05  0.897E-04    3.45      14.4  T
   5   -108.6154756 -0.423849E-08  0.487E-04    3.45      26.5  T
   6   -108.6154756 -0.326978E-08  0.143E-04    3.45      90.1  T
     SCC iter.                  ...        0 min,  0.082 sec
     gradient                   ...        0 min,  0.118 sec
 * total energy  :  -107.0687286 Eh     change       -0.6783134E-04 Eh
   gradient norm :     0.0019496 Eh/α   predicted    -0.4813002E-04 ( -29.04%)
   displ. norm   :     0.4842245 α      lambda       -0.7573065E-04
   maximum displ.:     0.2573279 α      in ANC's #4, #1, #8, ...

........................................................................
.............................. CYCLE   17 ..............................
........................................................................
   1   -108.6153508 -0.108615E+03  0.104E-01    3.45       0.0  T
   2   -108.6153533 -0.252518E-05  0.609E-02    3.45       1.0  T
   3   -108.6153466  0.667912E-05  0.102E-02    3.45       1.3  T
   4   -108.6153547 -0.810111E-05  0.142E-03    3.45       9.1  T
   5   -108.6153547 -0.183567E-07  0.810E-04    3.45      15.9  T
   6   -108.6153547 -0.464497E-08  0.242E-04    3.45      53.3  T
     SCC iter.                  ...        0 min,  0.085 sec
     gradient                   ...        0 min,  0.135 sec
 * total energy  :  -107.0688018 Eh     change       -0.7313250E-04 Eh
   gradient norm :     0.0026843 Eh/α   predicted    -0.4181221E-04 ( -42.83%)
   displ. norm   :     0.1536094 α      lambda       -0.4063383E-04
   maximum displ.:     0.0762151 α      in ANC's #4, #1, #5, ...

........................................................................
.............................. CYCLE   18 ..............................
........................................................................
   1   -108.6163860 -0.108616E+03  0.326E-02    3.46       0.0  T
   2   -108.6163865 -0.446009E-06  0.191E-02    3.46       1.0  T
   3   -108.6163857  0.741639E-06  0.363E-03    3.46       3.6  T
   4   -108.6163867 -0.914026E-06  0.588E-04    3.46      21.9  T
   5   -108.6163867 -0.957502E-08  0.319E-04    3.46      40.5  T
     SCC iter.                  ...        0 min,  0.071 sec
     gradient                   ...        0 min,  0.148 sec
 * total energy  :  -107.0688373 Eh     change       -0.3558570E-04 Eh
   gradient norm :     0.0021871 Eh/α   predicted    -0.2079887E-04 ( -41.55%)
   displ. norm   :     0.3268678 α      lambda       -0.9266305E-04
   maximum displ.:     0.1633216 α      in ANC's #1, #4, #5, ...

........................................................................
.............................. CYCLE   19 ..............................
........................................................................
   1   -108.6171418 -0.108617E+03  0.712E-02    3.47       0.0  T
   2   -108.6171444 -0.253430E-05  0.417E-02    3.46       1.0  T
   3   -108.6171406  0.382061E-05  0.844E-03    3.47       1.5  T
   4   -108.6171453 -0.474150E-05  0.139E-03    3.46       9.3  T
   5   -108.6171454 -0.590518E-07  0.737E-04    3.46      17.5  T
   6   -108.6171454 -0.198324E-08  0.271E-04    3.46      47.6  T
     SCC iter.                  ...        0 min,  0.083 sec
     gradient                   ...        0 min,  0.099 sec
 * total energy  :  -107.0689086 Eh     change       -0.7122769E-04 Eh
   gradient norm :     0.0020028 Eh/α   predicted    -0.5128632E-04 ( -28.00%)
   displ. norm   :     0.3364413 α      lambda       -0.7213998E-04
   maximum displ.:     0.1728730 α      in ANC's #1, #4, #5, ...

........................................................................
.............................. CYCLE   20 ..............................
........................................................................
   1   -108.6169815 -0.108617E+03  0.745E-02    3.48       0.0  T
   2   -108.6169840 -0.246403E-05  0.436E-02    3.47       1.0  T
   3   -108.6169809  0.311194E-05  0.779E-03    3.47       1.7  T
   4   -108.6169848 -0.392006E-05  0.144E-03    3.47       9.0  T
   5   -108.6169848 -0.628130E-07  0.745E-04    3.47      17.3  T
   6   -108.6169848 -0.242575E-08  0.290E-04    3.47      44.5  T
     SCC iter.                  ...        0 min,  0.085 sec
     gradient                   ...        0 min,  0.115 sec
 * total energy  :  -107.0689636 Eh     change       -0.5503812E-04 Eh
   gradient norm :     0.0020782 Eh/α   predicted    -0.4015405E-04 ( -27.04%)
   displ. norm   :     0.2913251 α      lambda       -0.5890255E-04
   maximum displ.:     0.1532785 α      in ANC's #1, #4, #5, ...
 * RMSD in coord.:     0.5224660 α      energy gain  -0.2047828E-01 Eh

generating ANC from model Hessian ...
Using Lindh-Hessian (1995)
 Shifting diagonal of input Hessian by    9.7674081634318601E-003
 Lowest  eigenvalues of input Hessian
    0.000000    0.000000    0.000000    0.000000    0.000000    0.000000
    0.010000    0.010135    0.010257    0.010407    0.010678    0.010719
    0.010930    0.011008    0.011101    0.011398    0.011871    0.012269
 Highest eigenvalues
    2.030442    2.119788    2.120648    2.342831    2.346861    2.405970


........................................................................
.............................. CYCLE   21 ..............................
........................................................................
   1   -108.6171819 -0.108617E+03  0.664E-02    3.48       0.0  T
   2   -108.6171834 -0.155911E-05  0.389E-02    3.48       1.0  T
   3   -108.6171812  0.225995E-05  0.653E-03    3.48       2.0  T
   4   -108.6171840 -0.284879E-05  0.119E-03    3.48      10.9  T
   5   -108.6171841 -0.355506E-07  0.641E-04    3.48      20.2  T
   6   -108.6171841 -0.169753E-08  0.231E-04    3.48      55.8  T
     SCC iter.                  ...        0 min,  0.076 sec
     gradient                   ...        0 min,  0.139 sec
 * total energy  :  -107.0690105 Eh     change       -0.4693513E-04 Eh
   gradient norm :     0.0024016 Eh/α   predicted     0.0000000E+00 (-100.00%)
   displ. norm   :     0.0381005 α      lambda       -0.2936795E-04
   maximum displ.:     0.0151013 α      in ANC's #11, #12, #13, ...

........................................................................
.............................. CYCLE   22 ..............................
........................................................................
   1   -108.6174090 -0.108617E+03  0.102E-02    3.47       0.0  T
   2   -108.6174091 -0.145886E-06  0.604E-03    3.47       2.1  T
   3   -108.6174090  0.123121E-06  0.183E-03    3.47       7.0  T
   4   -108.6174092 -0.165336E-06  0.287E-04    3.47      45.0  T
   5   -108.6174092 -0.290446E-08  0.146E-04    3.47      88.6  T
     SCC iter.                  ...        0 min,  0.063 sec
     gradient                   ...        0 min,  0.120 sec
 * total energy  :  -107.0690353 Eh     change       -0.2480307E-04 Eh
   gradient norm :     0.0011776 Eh/α   predicted    -0.1472193E-04 ( -40.64%)
   displ. norm   :     0.1911730 α      lambda       -0.6481611E-04
   maximum displ.:     0.0815230 α      in ANC's #11, #12, #13, ...

........................................................................
.............................. CYCLE   23 ..............................
........................................................................
   1   -108.6174678 -0.108617E+03  0.489E-02    3.45       0.0  T
   2   -108.6174694 -0.154934E-05  0.288E-02    3.46       1.0  T
   3   -108.6174672  0.217759E-05  0.668E-03    3.46       1.9  T
   4   -108.6174700 -0.275840E-05  0.114E-03    3.46      11.3  T
   5   -108.6174700 -0.330861E-07  0.636E-04    3.46      20.3  T
   6   -108.6174700 -0.333419E-08  0.235E-04    3.46      55.0  T
     SCC iter.                  ...        0 min,  0.078 sec
     gradient                   ...        0 min,  0.133 sec
 * total energy  :  -107.0690750 Eh     change       -0.3961034E-04 Eh
   gradient norm :     0.0031565 Eh/α   predicted    -0.3295786E-04 ( -16.79%)
   displ. norm   :     0.0212102 α      lambda       -0.1497969E-04
   maximum displ.:     0.0094686 α      in ANC's #11, #1, #5, ...

........................................................................
.............................. CYCLE   24 ..............................
........................................................................
   1   -108.6175250 -0.108618E+03  0.612E-03    3.47       0.0  T
   2   -108.6175251 -0.977562E-07  0.367E-03    3.47       3.5  T
   3   -108.6175250  0.539276E-07  0.148E-03    3.47       8.7  T
   4   -108.6175251 -0.826075E-07  0.211E-04    3.46      61.3  T
   5   -108.6175251 -0.235102E-08  0.819E-05    3.47     157.6  T
     SCC iter.                  ...        0 min,  0.071 sec
     gradient                   ...        0 min,  0.111 sec
 * total energy  :  -107.0690877 Eh     change       -0.1270858E-04 Eh
   gradient norm :     0.0019066 Eh/α   predicted    -0.7505928E-05 ( -40.94%)
   displ. norm   :     0.1416137 α      lambda       -0.3531780E-04
   maximum displ.:     0.0638962 α      in ANC's #11, #1, #5, ...

........................................................................
.............................. CYCLE   25 ..............................
........................................................................
   1   -108.6174499 -0.108617E+03  0.358E-02    3.49       0.0  T
   2   -108.6174516 -0.168054E-05  0.212E-02    3.48       1.0  T
   3   -108.6174500  0.161111E-05  0.646E-03    3.48       2.0  T
   4   -108.6174520 -0.207847E-05  0.924E-04    3.48      14.0  T
   5   -108.6174521 -0.449812E-07  0.385E-04    3.48      33.5  T
   6   -108.6174521 -0.373525E-08  0.175E-04    3.48      73.7  T
     SCC iter.                  ...        0 min,  0.085 sec
     gradient                   ...        0 min,  0.133 sec
 * total energy  :  -107.0691109 Eh     change       -0.2319908E-04 Eh
   gradient norm :     0.0025598 Eh/α   predicted    -0.1781665E-04 ( -23.20%)
   displ. norm   :     0.0425704 α      lambda       -0.1013807E-04
   maximum displ.:     0.0180914 α      in ANC's #1, #11, #5, ...

........................................................................
.............................. CYCLE   26 ..............................
........................................................................
   1   -108.6174317 -0.108617E+03  0.957E-03    3.47       0.0  T
   2   -108.6174317 -0.367147E-07  0.563E-03    3.48       2.3  T
   3   -108.6174317  0.544100E-07  0.100E-03    3.48      12.9  T
   4   -108.6174317 -0.676838E-07  0.180E-04    3.48      71.6  T
     SCC iter.                  ...        0 min,  0.057 sec
     gradient                   ...        0 min,  0.126 sec
 * total energy  :  -107.0691199 Eh     change       -0.9023206E-05 Eh
   gradient norm :     0.0018351 Eh/α   predicted    -0.5093980E-05 ( -43.55%)
   displ. norm   :     0.2282051 α      lambda       -0.3100097E-04
   maximum displ.:     0.1008076 α      in ANC's #1, #5, #11, ...

........................................................................
.............................. CYCLE   27 ..............................
........................................................................
   1   -108.6172602 -0.108617E+03  0.512E-02    3.46       0.0  T
   2   -108.6172611 -0.835153E-06  0.301E-02    3.46       1.0  T
   3   -108.6172598  0.120964E-05  0.466E-03    3.46       2.8  T
   4   -108.6172614 -0.152115E-05  0.912E-04    3.46      14.2  T
   5   -108.6172614 -0.232491E-07  0.490E-04    3.47      26.3  T
   6   -108.6172614 -0.161246E-08  0.181E-04    3.46      71.1  T
     SCC iter.                  ...        0 min,  0.081 sec
     gradient                   ...        0 min,  0.130 sec
 * total energy  :  -107.0691428 Eh     change       -0.2293757E-04 Eh
   gradient norm :     0.0020977 Eh/α   predicted    -0.1586050E-04 ( -30.85%)
   displ. norm   :     0.1524851 α      lambda        0.3464961E-04
   maximum displ.:     0.0679793 α      in ANC's #1, #5, #11, ...

........................................................................
.............................. CYCLE   28 ..............................
........................................................................
   1   -108.6168282 -0.108617E+03  0.342E-02    3.45       0.0  T
   2   -108.6168286 -0.405157E-06  0.201E-02    3.46       1.0  T
   3   -108.6168281  0.537043E-06  0.317E-03    3.46       4.1  T
   4   -108.6168288 -0.678506E-06  0.621E-04    3.46      20.8  T
   5   -108.6168288 -0.114802E-07  0.332E-04    3.46      38.9  T
     SCC iter.                  ...        0 min,  0.074 sec
     gradient                   ...        0 min,  0.135 sec
 * total energy  :  -107.0691307 Eh     change        0.1216989E-04 Eh
   gradient norm :     0.0046586 Eh/α   predicted     0.1772469E-04 (  45.64%)
   displ. norm   :     0.1016208 α      lambda       -0.3269145E-04
   maximum displ.:     0.0437369 α      in ANC's #11, #1, #5, ...

........................................................................
.............................. CYCLE   29 ..............................
........................................................................
   1   -108.6173289 -0.108617E+03  0.238E-02    3.47       0.0  T
   2   -108.6173294 -0.448300E-06  0.140E-02    3.47       1.0  T
   3   -108.6173289  0.513959E-06  0.334E-03    3.47       3.9  T
   4   -108.6173295 -0.644907E-06  0.554E-04    3.47      23.3  T
   5   -108.6173295 -0.124865E-07  0.268E-04    3.47      48.2  T
     SCC iter.                  ...        0 min,  0.068 sec
     gradient                   ...        0 min,  0.144 sec
 * total energy  :  -107.0691506 Eh     change       -0.1993007E-04 Eh
   gradient norm :     0.0015310 Eh/α   predicted    -0.1651524E-04 ( -17.13%)
   displ. norm   :     0.0488916 α      lambda       -0.9355869E-05
   maximum displ.:     0.0230688 α      in ANC's #5, #1, #7, ...

........................................................................
.............................. CYCLE   30 ..............................
........................................................................
   1   -108.6175706 -0.108618E+03  0.103E-02    3.48       0.0  T
   2   -108.6175708 -0.200147E-06  0.609E-03    3.48       2.1  T
   3   -108.6175707  0.139641E-06  0.211E-03    3.48       6.1  T
   4   -108.6175709 -0.197619E-06  0.315E-04    3.47      41.0  T
   5   -108.6175709 -0.398825E-08  0.150E-04    3.48      85.9  T
     SCC iter.                  ...        0 min,  0.068 sec
     gradient                   ...        0 min,  0.114 sec
 * total energy  :  -107.0691612 Eh     change       -0.1061155E-04 Eh
   gradient norm :     0.0004402 Eh/α   predicted    -0.4688797E-05 ( -55.81%)
   displ. norm   :     0.1438698 α      lambda       -0.1349752E-04
   maximum displ.:     0.0726591 α      in ANC's #1, #5, #7, ...

........................................................................
.............................. CYCLE   31 ..............................
........................................................................
   1   -108.6176755 -0.108618E+03  0.297E-02    3.48       0.0  T
   2   -108.6176759 -0.331077E-06  0.174E-02    3.48       1.0  T
   3   -108.6176754  0.449737E-06  0.293E-03    3.48       4.4  T
   4   -108.6176760 -0.578693E-06  0.536E-04    3.48      24.1  T
   5   -108.6176760 -0.544972E-08  0.302E-04    3.48      42.8  T
     SCC iter.                  ...        0 min,  0.076 sec
     gradient                   ...        0 min,  0.122 sec
 * total energy  :  -107.0691778 Eh     change       -0.1659801E-04 Eh
   gradient norm :     0.0011938 Eh/α   predicted    -0.6811590E-05 ( -58.96%)
   displ. norm   :     0.2457461 α      lambda       -0.1827288E-04
   maximum displ.:     0.1244952 α      in ANC's #1, #5, #7, ...

........................................................................
.............................. CYCLE   32 ..............................
........................................................................
   1   -108.6173518 -0.108617E+03  0.514E-02    3.49       0.0  T
   2   -108.6173525 -0.618554E-06  0.302E-02    3.48       1.0  T
   3   -108.6173515  0.959009E-06  0.413E-03    3.48       3.1  T
   4   -108.6173527 -0.124498E-05  0.801E-04    3.48      16.1  T
   5   -108.6173528 -0.781417E-08  0.449E-04    3.48      28.8  T
   6   -108.6173528 -0.216676E-08  0.130E-04    3.48      99.7  T
     SCC iter.                  ...        0 min,  0.081 sec
     gradient                   ...        0 min,  0.088 sec
 * total energy  :  -107.0692000 Eh     change       -0.2215783E-04 Eh
   gradient norm :     0.0015117 Eh/α   predicted    -0.9383540E-05 ( -57.65%)
   displ. norm   :     0.3047576 α      lambda       -0.1915868E-04
   maximum displ.:     0.1548432 α      in ANC's #1, #5, #4, ...

........................................................................
.............................. CYCLE   33 ..............................
........................................................................
   1   -108.6171439 -0.108617E+03  0.646E-02    3.49       0.0  T
   2   -108.6171447 -0.819510E-06  0.379E-02    3.49       1.0  T
   3   -108.6171431  0.167875E-05  0.527E-03    3.49       2.4  T
   4   -108.6171452 -0.211413E-05  0.909E-04    3.49      14.2  T
   5   -108.6171452 -0.709787E-08  0.509E-04    3.49      25.4  T
   6   -108.6171452 -0.324768E-08  0.143E-04    3.49      90.1  T
     SCC iter.                  ...        0 min,  0.083 sec
     gradient                   ...        0 min,  0.104 sec
 * total energy  :  -107.0692224 Eh     change       -0.2240837E-04 Eh
   gradient norm :     0.0012786 Eh/α   predicted    -0.9975128E-05 ( -55.48%)
   displ. norm   :     0.3086296 α      lambda       -0.1656036E-04
   maximum displ.:     0.1567936 α      in ANC's #1, #5, #4, ...

........................................................................
.............................. CYCLE   34 ..............................
........................................................................
   1   -108.6171143 -0.108617E+03  0.661E-02    3.49       0.0  T
   2   -108.6171151 -0.856592E-06  0.388E-02    3.49       1.0  T
   3   -108.6171129  0.222444E-05  0.588E-03    3.49       2.2  T
   4   -108.6171156 -0.270963E-05  0.847E-04    3.49      15.2  T
   5   -108.6171156 -0.694826E-08  0.482E-04    3.49      26.8  T
   6   -108.6171156 -0.257614E-08  0.143E-04    3.49      90.0  T
     SCC iter.                  ...        0 min,  0.086 sec
     gradient                   ...        0 min,  0.139 sec
 * total energy  :  -107.0692421 Eh     change       -0.1974172E-04 Eh
   gradient norm :     0.0009395 Eh/α   predicted    -0.8635195E-05 ( -56.26%)
   displ. norm   :     0.2620729 α      lambda       -0.1518971E-04
   maximum displ.:     0.1322221 α      in ANC's #1, #5, #4, ...

........................................................................
.............................. CYCLE   35 ..............................
........................................................................
   1   -108.6177082 -0.108618E+03  0.562E-02    3.49       0.0  T
   2   -108.6177088 -0.647590E-06  0.330E-02    3.49       1.0  T
   3   -108.6177067  0.214212E-05  0.565E-03    3.49       2.3  T
   4   -108.6177092 -0.254453E-05  0.644E-04    3.49      20.1  T
   5   -108.6177092 -0.410638E-08  0.370E-04    3.49      34.9  T
   6   -108.6177092 -0.154697E-08  0.109E-04    3.49     118.0  T
     SCC iter.                  ...        0 min,  0.082 sec
     gradient                   ...        0 min,  0.132 sec
 * total energy  :  -107.0692599 Eh     change       -0.1776714E-04 Eh
   gradient norm :     0.0006725 Eh/α   predicted    -0.7826930E-05 ( -55.95%)
   displ. norm   :     0.2717245 α      lambda       -0.1553508E-04
   maximum displ.:     0.1349622 α      in ANC's #1, #5, #2, ...

........................................................................
.............................. CYCLE   36 ..............................
........................................................................
   1   -108.6176924 -0.108618E+03  0.592E-02    3.49       0.0  T
   2   -108.6176932 -0.770942E-06  0.347E-02    3.49       1.0  T
   3   -108.6176905  0.267857E-05  0.629E-03    3.49       2.1  T
   4   -108.6176937 -0.315999E-05  0.633E-04    3.49      20.4  T
   5   -108.6176937 -0.513657E-08  0.367E-04    3.49      35.2  T
   6   -108.6176937 -0.111226E-08  0.123E-04    3.49     104.8  T
     SCC iter.                  ...        0 min,  0.081 sec
     gradient                   ...        0 min,  0.125 sec
 * total energy  :  -107.0692779 Eh     change       -0.1799624E-04 Eh
   gradient norm :     0.0007148 Eh/α   predicted    -0.8023711E-05 ( -55.41%)
   displ. norm   :     0.2749502 α      lambda       -0.1575794E-04
   maximum displ.:     0.1324727 α      in ANC's #1, #2, #4, ...

........................................................................
.............................. CYCLE   37 ..............................
........................................................................
   1   -108.6180860 -0.108618E+03  0.600E-02    3.49       0.0  T
   2   -108.6180868 -0.826024E-06  0.352E-02    3.49       1.0  T
   3   -108.6180839  0.298536E-05  0.665E-03    3.49       1.9  T
   4   -108.6180874 -0.352659E-05  0.660E-04    3.49      19.6  T
   5   -108.6180874 -0.339205E-08  0.392E-04    3.49      32.9  T
   6   -108.6180874 -0.151121E-08  0.127E-04    3.49     101.7  T
     SCC iter.                  ...        0 min,  0.082 sec
     gradient                   ...        0 min,  0.121 sec
 * total energy  :  -107.0692957 Eh     change       -0.1782684E-04 Eh
   gradient norm :     0.0009736 Eh/α   predicted    -0.8144915E-05 ( -54.31%)
   displ. norm   :     0.2710377 α      lambda       -0.1299323E-04
   maximum displ.:     0.1301393 α      in ANC's #1, #2, #4, ...

........................................................................
.............................. CYCLE   38 ..............................
........................................................................
   1   -108.6175147 -0.108618E+03  0.600E-02    3.49       0.0  T
   2   -108.6175156 -0.891672E-06  0.352E-02    3.49       1.0  T
   3   -108.6175128  0.285509E-05  0.658E-03    3.49       2.0  T
   4   -108.6175162 -0.340095E-05  0.728E-04    3.49      17.7  T
   5   -108.6175162 -0.455800E-08  0.434E-04    3.49      29.7  T
   6   -108.6175162 -0.139872E-08  0.162E-04    3.49      79.7  T
     SCC iter.                  ...        0 min,  0.082 sec
     gradient                   ...        0 min,  0.135 sec
 * total energy  :  -107.0693097 Eh     change       -0.1400848E-04 Eh
   gradient norm :     0.0009156 Eh/α   predicted    -0.6712801E-05 ( -52.08%)
   displ. norm   :     0.2715892 α      lambda        0.6862338E-06
   maximum displ.:     0.1312831 α      in ANC's #1, #2, #4, ...

........................................................................
.............................. CYCLE   39 ..............................
........................................................................
   1   -108.6162414 -0.108616E+03  0.600E-02    3.49       0.0  T
   2   -108.6162423 -0.934904E-06  0.352E-02    3.49       1.0  T
   3   -108.6162395  0.287434E-05  0.663E-03    3.49       1.9  T
   4   -108.6162429 -0.342535E-05  0.748E-04    3.49      17.3  T
   5   -108.6162429 -0.661045E-08  0.446E-04    3.49      29.0  T
   6   -108.6162429 -0.130396E-08  0.173E-04    3.49      74.7  T
     SCC iter.                  ...        0 min,  0.085 sec
     gradient                   ...        0 min,  0.142 sec
 * total energy  :  -107.0693093 Eh     change        0.4453081E-06 Eh
   gradient norm :     0.0017139 Eh/α   predicted     0.3514586E-06 ( -21.08%)
   displ. norm   :     0.1222338 α      lambda       -0.1090864E-04
   maximum displ.:     0.0578788 α      in ANC's #1, #5, #4, ...

........................................................................
.............................. CYCLE   40 ..............................
........................................................................
   1   -108.6187849 -0.108619E+03  0.288E-02    3.49       0.0  T
   2   -108.6187851 -0.215813E-06  0.169E-02    3.49       1.0  T
   3   -108.6187846  0.486683E-06  0.280E-03    3.49       4.6  T
   4   -108.6187852 -0.585941E-06  0.371E-04    3.49      34.8  T
   5   -108.6187852 -0.382784E-08  0.200E-04    3.49      64.5  T
     SCC iter.                  ...        0 min,  0.072 sec
     gradient                   ...        0 min,  0.124 sec
 * total energy  :  -107.0693179 Eh     change       -0.8604326E-05 Eh
   gradient norm :     0.0009728 Eh/α   predicted    -0.5490875E-05 ( -36.18%)
   displ. norm   :     0.0435649 α      lambda       -0.4479980E-05
   maximum displ.:     0.0229478 α      in ANC's #4, #12, #13, ...

........................................................................
.............................. CYCLE   41 ..............................
........................................................................
   1   -108.6182885 -0.108618E+03  0.100E-02    3.49       0.0  T
   2   -108.6182886 -0.915316E-07  0.587E-03    3.49       2.2  T
   3   -108.6182884  0.133645E-06  0.166E-03    3.49       7.8  T
   4   -108.6182886 -0.164089E-06  0.245E-04    3.49      52.6  T
   5   -108.6182886 -0.289003E-08  0.110E-04    3.49     117.8  T
     SCC iter.                  ...        0 min,  0.075 sec
     gradient                   ...        0 min,  0.130 sec
 * total energy  :  -107.0693225 Eh     change       -0.4631563E-05 Eh
   gradient norm :     0.0005437 Eh/α   predicted    -0.2242552E-05 ( -51.58%)
   displ. norm   :     0.0470163 α      lambda       -0.3992990E-05
   maximum displ.:     0.0206831 α      in ANC's #8, #4, #11, ...

   *** GEOMETRY OPTIMIZATION CONVERGED AFTER 41 ITERATIONS ***

------------------------------------------------------------------------
 total energy gain   :        -0.0208372 Eh      -13.0755 kcal/mol
 total RMSD          :         0.7680310 a0        0.4064 Å
 total power (kW/mol):        -1.3343407 (step)   -3.9529 (real)
------------------------------------------------------------------------

 ANCopt (total)                0 d,  0 h,  0 min, 13.840 sec
 optimizer setup                ...        0 min,  0.000 sec (  0.002%)
 model hessian                  ...        0 min,  0.059 sec (  0.423%)
 ANC generation                 ...        0 min,  0.016 sec (  0.117%)
 coordinate transformation      ...        0 min,  0.003 sec (  0.019%)
 single point calculation       ...        0 min, 13.214 sec ( 95.479%)
 optimization log               ...        0 min,  0.044 sec (  0.319%)
 hessian update                 ...        0 min,  0.469 sec (  3.392%)
 rational function              ...        0 min,  0.009 sec (  0.064%)

================
 final structure:
================
60
 xtb: 6.3.3 (4ae9cef)
C         1.67728023781241    3.60284071281195   -0.69034767939384
C         2.67201169467882    4.15276554192004   -1.47700463316439
C         2.83085197112460    3.73444846865086   -2.78808410892455
C         1.99030744744919    2.76444772561275   -3.30409296108086
C         0.99433323377137    2.20897261730339   -2.51710136477527
C         0.82734232219495    2.62741714571437   -1.20334952530765
C        -0.18273168766895    2.01290722383215   -0.25999208724553
C        -1.34047599982176    1.24306774081185   -0.91697335562662
C        -2.62788062485039    1.36739114292091   -0.13827366969567
C        -3.72228721026940    2.01636844717211   -0.69091457812161
C        -4.90253790410781    2.12915493126209    0.02275055601359
C        -5.00015752316153    1.59315866300767    1.29495300690707
C        -3.91209382720044    0.94319059068106    1.85228810927477
C        -2.73335610760624    0.83056458472641    1.13861169815713
N        -0.87195925862622   -0.14336831651870   -0.90386638146055
C        -1.47897628524541   -1.09384870685324   -1.66543843579462
C        -0.99186833191575   -2.48901645904194   -1.43678959093237
C        -0.48397033968527   -3.22994672713257   -2.49582411597265
C        -0.06016409622373   -4.53083633451564   -2.29544675860296
C        -0.17370269191239   -5.08079471807214   -1.03135457824582
F         0.24133476530887   -6.34695454928299   -0.82711385943728
C        -0.70656428482167   -4.37395696897326    0.03202548826170
C        -1.11573807002752   -3.07005090763594   -0.17881868166801
O        -2.38162195795960   -0.82040940533054   -2.42525758199974
C         0.37681228714936   -0.26535721792606   -0.19274901953804
C         1.55964699328695   -0.45352549757661   -1.17221613699302
O         2.70575709140576   -0.06559566986557   -0.62392700115089
O         1.46066910783501   -0.93061132761925   -2.26543494865220
N         0.47089713274168    0.96898314072082    0.52920979664986
C         1.00639092378694    1.18397052657410    1.75611552691617
C         1.55100953064135   -0.04574669989213    2.41972239902120
C         0.69372643184477   -0.96370737730339    3.01691726112980
C         1.19970109737522   -2.08520883478726    3.64876189014297
C         2.57058382177261   -2.26978854493521    3.67429396172091
F         3.06921435510183   -3.36519074201650    4.27803829219233
C         3.44322788887567   -1.36218447887182    3.10118954007992
C         2.92462915583393   -0.24243401849181    2.47633561639000
O         1.03261328398137    2.28144006051358    2.26704540853096
H         1.55800878701955    3.91789619883582    0.33540171908878
H         3.32395887577641    4.90923040783092   -1.06652521987064
H         3.60655196517566    4.16312250261443   -3.40499679482409
H         2.10776505081429    2.43095567456597   -4.32435723898148
H         0.36009429873986    1.44823663211653   -2.94586110199829
H        -0.54633382917756    2.77663709448982    0.43434829630466
H        -1.52082145299188    1.56503315715466   -1.94634060916455
H        -3.65173754918686    2.42709533596249   -1.68689117262340
H        -5.74983852658988    2.63236445212453   -0.41828641717693
H        -5.92200536149162    1.67799833573403    1.85059497384320
H        -3.98260093198308    0.52274149898607    2.84475247957861
H        -1.88644892883511    0.32367247140935    1.57761345475616
H        -0.41035508701452   -2.77513329848291   -3.47027915501200
H         0.34885839572349   -5.11953923043587   -3.10092893564311
H        -0.79884434063188   -4.84541611606829    0.99760533229498
H        -1.56071040296862   -2.51105963230607    0.63212721712983
H         0.39945749960343   -1.13282512562153    0.48169006751025
H         3.44568073413245   -0.18994239836876   -1.24154098723492
H        -0.37340133802754   -0.79549188917913    3.00565466972758
H         0.55139295125642   -2.80641130794677    4.12020364904340
H         4.50616446196129   -1.53567858854048    3.15322435664273
H         3.58290815582234    0.48395606352590    2.02694291900894

 Bond Distances (Angstroems)
 ---------------------------
C1-C2=1.3823         C1-C6=1.3918         C1-H39=1.0797        C2-C1=1.3823         C2-C3=1.3853         C2-H40=1.0797        
C3-C2=1.3853         C3-C4=1.3834         C3-H41=1.0798        C4-C3=1.3834         C4-C5=1.3856         C4-H42=1.0798        
C5-C4=1.3856         C5-C6=1.3889         C5-H43=1.0793        C6-C1=1.3918         C6-C5=1.3889         C6-C7=1.5125         
C7-C6=1.5125         C7-C8=1.5377         C7-N29=1.4628        C7-H44=1.0943        C8-C7=1.5377         C8-C9=1.5097         
C8-N15=1.4635        C8-H45=1.0935        C9-C8=1.5097         C9-C10=1.3872        C9-C14=1.3892        C10-C9=1.3872        
C10-C11=1.3838       C10-H46=1.0796       C11-C10=1.3838       C11-C12=1.3840       C11-H47=1.0797       C12-C11=1.3840       
C12-C13=1.3845       C12-H48=1.0797       C13-C12=1.3845       C13-C14=1.3825       C13-H49=1.0802       C14-C9=1.3892        
C14-C13=1.3825       C14-H50=1.0802       N15-C8=1.4635        N15-C16=1.3608       N15-C25=1.4422       C16-N15=1.3608       
C16-C17=1.4953       C16-O24=1.2111       C17-C16=1.4953       C17-C18=1.3887       C17-C23=1.3912       C18-C17=1.3887       
C18-C19=1.3828       C18-H51=1.0779       C19-C18=1.3828       C19-C20=1.3832       C19-H52=1.0783       C20-C19=1.3832       
C20-F21=1.3480       C20-C22=1.3836       F21-C20=1.3480       C22-C20=1.3836       C22-C23=1.3828       C22-H53=1.0785       
C23-C17=1.3912       C23-C22=1.3828       C23-H54=1.0808       O24-C16=1.2111       C25-N15=1.4422       C25-C26=1.5472       
C25-N29=1.4331       C25-H55=1.0990       C26-C25=1.5472       C26-O27=1.3284       C26-O28=1.1969       O27-C26=1.3284       
O27-H56=0.9718       O28-C26=1.1969       N29-C7=1.4628        N29-C25=1.4331       N29-C30=1.3558       C30-N29=1.3558       
C30-C31=1.4997       C30-O38=1.2109       C31-C30=1.4997       C31-C32=1.3908       C31-C37=1.3888       C32-C31=1.3908       
C32-C33=1.3831       C32-H57=1.0804       C33-C32=1.3831       C33-C34=1.3835       C33-H58=1.0783       C34-C33=1.3835       
C34-F35=1.3465       C34-C36=1.3834       F35-C34=1.3465       C36-C34=1.3834       C36-C37=1.3832       C36-H59=1.0783       
C37-C31=1.3888       C37-C36=1.3832       C37-H60=1.0784       O38-C30=1.2109       H39-C1=1.0797        H40-C2=1.0797        
H41-C3=1.0798        H42-C4=1.0798        H43-C5=1.0793        H44-C7=1.0943        H45-C8=1.0935        H46-C10=1.0796       
H47-C11=1.0797       H48-C12=1.0797       H49-C13=1.0802       H50-C14=1.0802       H51-C18=1.0779       H52-C19=1.0783       
H53-C22=1.0785       H54-C23=1.0808       H55-C25=1.0990       H56-O27=0.9718       H57-C32=1.0804       H58-C33=1.0783       
H59-C36=1.0783       H60-C37=1.0784       
 C  H  Rav=1.0817 sigma=0.0058  Rmin=1.0779  Rmax=1.0990    21
 C  C  Rav=1.4119 sigma=0.0534  Rmin=1.3823  Rmax=1.5472    30
 N  C  Rav=1.4197 sigma=0.0447  Rmin=1.3558  Rmax=1.4635     6
 O  H  Rav=0.9718 sigma=0.0000  Rmin=0.9718  Rmax=0.9718     1
 O  C  Rav=1.2368 sigma=0.0532  Rmin=1.1969  Rmax=1.3284     4
 F  C  Rav=1.3473 sigma=0.0008  Rmin=1.3465  Rmax=1.3480     2

 selected bond angles (degree)
 --------------------
C6-C1-C2=120.57                H39-C1-C2=120.27               H39-C1-C6=119.16               C3-C2-C1=120.06                
H40-C2-C1=119.79               H40-C2-C3=120.14               C4-C3-C2=119.68                H41-C3-C2=120.21               
H41-C3-C4=120.11               C5-C4-C3=120.40                H42-C4-C3=120.19               H42-C4-C5=119.41               
C6-C5-C4=120.19                H43-C5-C4=118.64               H43-C5-C6=121.16               C5-C6-C1=119.10                
C7-C6-C1=117.56                C7-C6-C5=123.22                C8-C7-C6=116.09                N29-C7-C6=109.15               
N29-C7-C8=102.10               H44-C7-C6=109.52               H44-C7-C8=111.73               H44-C7-N29=107.71              
C9-C8-C7=112.36                N15-C8-C7=103.26               N15-C8-C9=110.27               H45-C8-C7=112.27               
H45-C8-C9=108.70               H45-C8-N15=109.89              C10-C9-C8=120.38               C14-C9-C8=120.47               
C14-C9-C10=119.15              C11-C10-C9=120.37              H46-C10-C9=119.60              H46-C10-C11=120.03             

 selected dihedral angles (degree)
 ---------------------------------
C3-C2-C1-C6=  0.00            C3-C2-C1-H39=179.27           H40-C2-C1-C6=179.96           H40-C2-C1-H39=359.24          
C4-C3-C2-C1=359.96            C4-C3-C2-H40=179.99           H41-C3-C2-C1=179.94           H41-C3-C2-H40=359.97          
C5-C4-C3-C2=359.88            C5-C4-C3-H41=179.90           H42-C4-C3-C2=180.11           H42-C4-C3-H41=  0.12          
C6-C5-C4-C3=  0.33            C6-C5-C4-H42=180.11           H43-C5-C4-C3=180.52           H43-C5-C4-H42=  0.30          
C5-C6-C1-C2=  0.22            C5-C6-C1-H39=180.93           C7-C6-C1-C2=176.42            C7-C6-C1-H39=357.12           
C1-C6-C5-C4=359.62            C1-C6-C5-H43=179.42           C7-C6-C5-C4=183.66            C7-C6-C5-H43=  3.46           
C8-C7-C6-C1=163.82            C8-C7-C6-C5=339.84            N29-C7-C6-C1=278.47           N29-C7-C6-C5= 94.49           
H44-C7-C6-C1= 36.16           H44-C7-C6-C5=212.18           C9-C8-C7-C6=213.78            C9-C8-C7-N29= 95.19           
C9-C8-C7-H44=340.33           N15-C8-C7-C6= 94.97           N15-C8-C7-N29=336.39          N15-C8-C7-H44=221.53          
H45-C8-C7-C6=336.67           H45-C8-C7-N29=218.08          H45-C8-C7-H44=103.22          C10-C9-C8-C7=115.03           
C10-C9-C8-N15=229.63          C10-C9-C8-H45=350.15          C14-C9-C8-C7=294.85           C14-C9-C8-N15= 49.45          
C14-C9-C8-H45=169.97          C11-C10-C9-C8=179.95          C11-C10-C9-C14=  0.13         H46-C10-C9-C8=  0.47          
H46-C10-C9-C14=180.65         
           -------------------------------------------------
          |                Final Singlepoint                |
           -------------------------------------------------

          ...................................................
          :                      SETUP                      :
          :.................................................:
          :  # basis functions                 174          :
          :  # atomic orbitals                 174          :
          :  # shells                           98          :
          :  # electrons                       190          :
          :  max. iterations                   250          :
          :  Hamiltonian                  GFN2-xTB          :
          :  restarted?                      false          :
          :  GBSA solvation                  false          :
          :  PC potential                    false          :
          :  electronic temp.          300.0000000     K    :
          :  accuracy                    1.0000000          :
          :  -> integral cutoff          0.2500000E+02      :
          :  -> integral neglect         0.1000000E-07      :
          :  -> SCF convergence          0.1000000E-05 Eh   :
          :  -> wf. convergence          0.1000000E-03 e    :
          :  Broyden damping             0.4000000          :
          ...................................................

 iter      E             dE          RMSdq      gap      omega  full diag
   1   -108.6182886 -0.108618E+03  0.518E-05    3.49       0.0  T
   2   -108.6182886 -0.151488E-10  0.311E-05    3.49     414.9  T
   3   -108.6182886  0.241585E-12  0.196E-05    3.49     659.3  T

   *** convergence criteria satisfied after 3 iterations ***

         #    Occupation            Energy/Eh            Energy/eV
      -------------------------------------------------------------
         1        2.0000           -0.8306248             -22.6025
       ...           ...                  ...                  ...
        89        2.0000           -0.4193362             -11.4107
        90        2.0000           -0.4187189             -11.3939
        91        2.0000           -0.4156045             -11.3092
        92        2.0000           -0.4139238             -11.2634
        93        2.0000           -0.4085159             -11.1163
        94        2.0000           -0.4044198             -11.0048
        95        2.0000           -0.4041640             -10.9979 (HOMO)
        96                         -0.2757568              -7.5037 (LUMO)
        97                         -0.2610876              -7.1046
        98                         -0.2593067              -7.0561
        99                         -0.2585627              -7.0358
       100                         -0.2515056              -6.8438
       ...                                ...                  ...
       174                          0.6564707              17.8635
      -------------------------------------------------------------
                  HL-Gap            0.1284072 Eh            3.4941 eV
             Fermi-level           -0.3399604 Eh           -9.2508 eV

 SCC (total)                   0 d,  0 h,  0 min,  0.291 sec
 SCC setup                      ...        0 min,  0.011 sec (  3.654%)
 Dispersion                     ...        0 min,  0.017 sec (  5.957%)
 classical contributions        ...        0 min,  0.016 sec (  5.636%)
 integral evaluation            ...        0 min,  0.067 sec ( 22.897%)
 iterations                     ...        0 min,  0.041 sec ( 14.226%)
 molecular gradient             ...        0 min,  0.137 sec ( 47.033%)
 printout                       ...        0 min,  0.002 sec (  0.569%)

         :::::::::::::::::::::::::::::::::::::::::::::::::::::
         ::                     SUMMARY                     ::
         :::::::::::::::::::::::::::::::::::::::::::::::::::::
         :: total energy            -107.069322491996 Eh    ::
         :: gradient norm              0.000543619514 Eh/a0 ::
         :: HOMO-LUMO gap              3.494138631508 eV    ::
         ::.................................................::
         :: SCC energy              -108.618288596965 Eh    ::
         :: -> isotropic ES            0.138824263361 Eh    ::
         :: -> anisotropic ES          0.003347442476 Eh    ::
         :: -> anisotropic XC          0.031794216049 Eh    ::
         :: -> dispersion             -0.084465456855 Eh    ::
         :: repulsion energy           1.545986823662 Eh    ::
         :: add. restraining           0.000000000000 Eh    ::
         :: total charge              -0.000000000000 e     ::
         :::::::::::::::::::::::::::::::::::::::::::::::::::::

           -------------------------------------------------
          |                Property Printout                |
           -------------------------------------------------

    * Orbital Energies and Occupations

         #    Occupation            Energy/Eh            Energy/eV
      -------------------------------------------------------------
         1        2.0000           -0.8306248             -22.6025
       ...           ...                  ...                  ...
        83        2.0000           -0.4354567             -11.8494
        84        2.0000           -0.4331112             -11.7856
        85        2.0000           -0.4329002             -11.7798
        86        2.0000           -0.4303487             -11.7104
        87        2.0000           -0.4225961             -11.4994
        88        2.0000           -0.4222647             -11.4904
        89        2.0000           -0.4193362             -11.4107
        90        2.0000           -0.4187189             -11.3939
        91        2.0000           -0.4156045             -11.3092
        92        2.0000           -0.4139238             -11.2634
        93        2.0000           -0.4085159             -11.1163
        94        2.0000           -0.4044198             -11.0048
        95        2.0000           -0.4041640             -10.9979 (HOMO)
        96                         -0.2757568              -7.5037 (LUMO)
        97                         -0.2610876              -7.1046
        98                         -0.2593067              -7.0561
        99                         -0.2585627              -7.0358
       100                         -0.2515056              -6.8438
       101                         -0.2442751              -6.6471
       102                         -0.2367630              -6.4426
       103                         -0.2360434              -6.4231
       104                         -0.2332791              -6.3478
       105                         -0.2282473              -6.2109
       106                         -0.2136382              -5.8134
       ...                                ...                  ...
       174                          0.6564707              17.8635
      -------------------------------------------------------------
                  HL-Gap            0.1284072 Eh            3.4941 eV
             Fermi-level           -0.3399604 Eh           -9.2508 eV

     #   Z          covCN         q      C6AA      α(0)
     1   6 C        2.926    -0.034    28.845     8.808
     2   6 C        2.919    -0.027    28.687     8.783
     3   6 C        2.919    -0.030    28.752     8.793
     4   6 C        2.920    -0.029    28.735     8.790
     5   6 C        2.921    -0.039    28.962     8.825
     6   6 C        2.972    -0.003    28.087     8.693
     7   6 C        3.839     0.034    19.967     6.357
     8   6 C        3.828     0.037    19.928     6.352
     9   6 C        2.973     0.005    27.903     8.665
    10   6 C        2.924    -0.029    28.721     8.789
    11   6 C        2.920    -0.025    28.619     8.773
    12   6 C        2.920    -0.028    28.691     8.784
    13   6 C        2.919    -0.027    28.686     8.783
    14   6 C        2.925    -0.031    28.776     8.797
    15   7 N        2.770    -0.116    23.535     7.205
    16   6 C        2.761     0.276    22.326     7.738
    17   6 C        2.975    -0.019    28.471     8.753
    18   6 C        2.927    -0.015    28.375     8.736
    19   6 C        2.917    -0.045    29.121     8.849
    20   6 C        2.788     0.172    24.283     8.072
    21   9 F        0.787    -0.220    11.444     3.996
    22   6 C        2.916    -0.050    29.231     8.866
    23   6 C        2.927    -0.035    28.860     8.810
    24   8 O        0.859    -0.410    21.879     6.271
    25   6 C        3.769     0.088    19.161     6.238
    26   6 C        2.687     0.349    21.070     7.512
    27   8 O        1.659    -0.363    20.143     6.059
    28   8 O        0.856    -0.380    21.294     6.187
    29   7 N        2.776    -0.104    23.284     7.167
    30   6 C        2.758     0.275    22.356     7.743
    31   6 C        2.975    -0.020    28.491     8.756
    32   6 C        2.927    -0.030    28.748     8.793
    33   6 C        2.916    -0.048    29.189     8.859
    34   6 C        2.787     0.173    24.263     8.068
    35   9 F        0.787    -0.218    11.418     3.991
    36   6 C        2.917    -0.046    29.138     8.852
    37   6 C        2.927    -0.022    28.552     8.763
    38   8 O        0.859    -0.412    21.915     6.277
    39   1 H        0.926     0.056     2.247     2.344
    40   1 H        0.926     0.040     2.451     2.448
    41   1 H        0.926     0.037     2.491     2.468
    42   1 H        0.926     0.039     2.462     2.454
    43   1 H        0.926     0.040     2.451     2.448
    44   1 H        0.924     0.080     1.980     2.200
    45   1 H        0.924     0.074     2.043     2.236
    46   1 H        0.926     0.042     2.427     2.436
    47   1 H        0.926     0.041     2.435     2.440
    48   1 H        0.926     0.039     2.468     2.457
    49   1 H        0.926     0.035     2.510     2.478
    50   1 H        0.926     0.021     2.716     2.577
    51   1 H        0.926     0.071     2.071     2.250
    52   1 H        0.926     0.068     2.103     2.268
    53   1 H        0.926     0.063     2.166     2.302
    54   1 H        0.926     0.041     2.439     2.442
    55   1 H        0.923     0.071     2.077     2.254
    56   1 H        0.804     0.347     0.596     1.213
    57   1 H        0.926     0.045     2.378     2.411
    58   1 H        0.926     0.066     2.125     2.280
    59   1 H        0.926     0.067     2.115     2.274
    60   1 H        0.926     0.059     2.206     2.323

 Mol. C6AA /au·bohr⁶  :      49293.192185
 Mol. C8AA /au·bohr⁸  :    1212693.635957
 Mol. α(0) /au        :        349.553753


Wiberg/Mayer (AO) data.
largest (>0.10) Wiberg bond orders for each atom

 ---------------------------------------------------------------------------
     #   Z sym  total        # sym  WBO       # sym  WBO       # sym  WBO
 ---------------------------------------------------------------------------
     1   6 C    3.989 --     2 C    1.451     6 C    1.406    39 H    0.966
                             4 C    0.113
     2   6 C    3.992 --     1 C    1.451     3 C    1.433    40 H    0.970
                             5 C    0.110
     3   6 C    3.991 --     4 C    1.445     2 C    1.433    41 H    0.971
                             6 C    0.109
     4   6 C    3.992 --     3 C    1.445     5 C    1.436    42 H    0.971
                             1 C    0.113
     5   6 C    3.991 --     4 C    1.436     6 C    1.420    43 H    0.965
                             2 C    0.110
     6   6 C    3.985 --     5 C    1.420     1 C    1.406     7 C    0.983
                             3 C    0.109
     7   6 C    3.957 --     6 C    0.983     8 C    0.967    44 H    0.953
                            29 N    0.945
     8   6 C    3.960 --     9 C    0.986     7 C    0.967    15 N    0.952
                            45 H    0.950
     9   6 C    3.986 --    10 C    1.416    14 C    1.411     8 C    0.986
                            12 C    0.110
    10   6 C    3.989 --    11 C    1.442     9 C    1.416    46 H    0.968
                            13 C    0.111
    11   6 C    3.992 --    10 C    1.442    12 C    1.442    47 H    0.970
                            14 C    0.112
    12   6 C    3.990 --    11 C    1.442    13 C    1.436    48 H    0.971
                             9 C    0.110
    13   6 C    3.992 --    14 C    1.448    12 C    1.436    49 H    0.971
                            10 C    0.111
    14   6 C    3.992 --    13 C    1.448     9 C    1.411    50 H    0.966
                            11 C    0.112
    15   7 N    3.452 --    16 C    1.197    25 C    0.990     8 C    0.952
                            24 O    0.189
    16   6 C    3.948 --    24 O    1.702    15 N    1.197    17 C    0.965
    17   6 C    3.988 --    18 C    1.406    23 C    1.400    16 C    0.965
    18   6 C    3.987 --    19 C    1.444    17 C    1.406    51 H    0.966
                            22 C    0.109
    19   6 C    3.989 --    18 C    1.444    20 C    1.397    52 H    0.965
                            23 C    0.109
    20   6 C    3.889 --    19 C    1.397    22 C    1.392    21 F    0.963
    21   9 F    1.095 --    20 C    0.963
    22   6 C    3.989 --    23 C    1.446    20 C    1.392    53 H    0.966
                            18 C    0.109
    23   6 C    3.991 --    22 C    1.446    17 C    1.400    54 H    0.968
                            19 C    0.109
    24   8 O    2.027 --    16 C    1.702    15 N    0.189
    25   6 C    3.977 --    29 N    0.999    15 N    0.990    55 H    0.923
                            26 C    0.905
    26   6 C    3.919 --    28 O    1.784    27 O    1.156    25 C    0.905
    27   8 O    2.218 --    26 C    1.156    56 H    0.854    28 O    0.182
    28   8 O    2.069 --    26 C    1.784    27 O    0.182
    29   7 N    3.479 --    30 C    1.212    25 C    0.999     7 C    0.945
                            38 O    0.193
    30   6 C    3.948 --    38 O    1.698    29 N    1.212    31 C    0.954
    31   6 C    3.987 --    37 C    1.407    32 C    1.403    30 C    0.954
    32   6 C    3.990 --    33 C    1.444    31 C    1.403    57 H    0.966
                            36 C    0.110
    33   6 C    3.988 --    32 C    1.444    34 C    1.393    58 H    0.966
                            37 C    0.110
    34   6 C    3.890 --    36 C    1.396    33 C    1.393    35 F    0.966
    35   9 F    1.099 --    34 C    0.966
    36   6 C    3.989 --    37 C    1.444    34 C    1.396    59 H    0.965
                            32 C    0.110
    37   6 C    3.989 --    36 C    1.444    31 C    1.407    60 H    0.968
                            33 C    0.110
    38   8 O    2.026 --    30 C    1.698    29 N    0.193
    39   1 H    0.997 --     1 C    0.966
    40   1 H    0.998 --     2 C    0.970
    41   1 H    0.998 --     3 C    0.971
    42   1 H    0.998 --     4 C    0.971
    43   1 H    0.998 --     5 C    0.965
    44   1 H    0.993 --     7 C    0.953
    45   1 H    0.994 --     8 C    0.950
    46   1 H    0.998 --    10 C    0.968
    47   1 H    0.998 --    11 C    0.970
    48   1 H    0.998 --    12 C    0.971
    49   1 H    0.998 --    13 C    0.971
    50   1 H    1.000 --    14 C    0.966
    51   1 H    0.995 --    18 C    0.966
    52   1 H    0.995 --    19 C    0.965
    53   1 H    0.995 --    22 C    0.966
    54   1 H    0.998 --    23 C    0.968
    55   1 H    0.995 --    25 C    0.923
    56   1 H    0.879 --    27 O    0.854
    57   1 H    0.998 --    32 C    0.966
    58   1 H    0.995 --    33 C    0.966
    59   1 H    0.995 --    36 C    0.965
    60   1 H    0.996 --    37 C    0.968
 ---------------------------------------------------------------------------

Topologies differ in total number of bonds
Writing topology from bond orders to xtbtopo.mol

molecular dipole:
                 x           y           z       tot (Debye)
 q only:        0.542       1.062      -0.157
   full:        0.860       0.803      -0.098       3.001
molecular quadrupole (traceless):
                xx          xy          yy          xz          yz          zz
 q only:       18.948       1.938     -13.206     -18.522      -7.128      -5.742
  q+dip:       21.438       2.934     -19.255     -25.880     -11.158      -2.183
   full:       21.777       3.074     -17.208     -23.842      -9.471      -4.569

           -------------------------------------------------
          |                Geometry Summary                 |
           -------------------------------------------------

      molecular mass/u    :      512.5046059
   center of mass at/Å    :        0.1215840      -0.2880488       0.0178383
  moments of inertia/u·Å² :        0.4542333E+04   0.5565801E+04   0.6314301E+04
rotational constants/cm⁻¹ :        0.3711227E-02   0.3028788E-02   0.2669754E-02

 * 57 selected distances

     #   Z          #   Z                                           value/Å
     1   6 C        2   6 C                                       1.3822942
     2   6 C        3   6 C                                       1.3853335
     3   6 C        4   6 C                                       1.3833588
     4   6 C        5   6 C                                       1.3855948
     1   6 C        6   6 C                                       1.3917674
     5   6 C        6   6 C                                       1.3888577
     7   6 C        8   6 C                                       1.5377416 (max)
     9   6 C       10   6 C                                       1.3871948
    10   6 C       11   6 C                                       1.3838462
    11   6 C       12   6 C                                       1.3839511
    12   6 C       13   6 C                                       1.3845445
     9   6 C       14   6 C                                       1.3891523
    13   6 C       14   6 C                                       1.3825488
     8   6 C       15   7 N                                       1.4635179
    15   7 N       16   6 C                                       1.3608360
    17   6 C       18   6 C                                       1.3887016
    18   6 C       19   6 C                                       1.3827786
    19   6 C       20   6 C                                       1.3832116
    20   6 C       22   6 C                                       1.3835961
    17   6 C       23   6 C                                       1.3911993
    22   6 C       23   6 C                                       1.3827688
    16   6 C       24   8 O                                       1.2111414
    15   7 N       25   6 C                                       1.4422204
    26   6 C       27   8 O                                       1.3284122
    26   6 C       28   8 O                                       1.1968855
     7   6 C       29   7 N                                       1.4628218
    25   6 C       29   7 N                                       1.4330641
    29   7 N       30   6 C                                       1.3558285
    31   6 C       32   6 C                                       1.3907652
    32   6 C       33   6 C                                       1.3831137
    33   6 C       34   6 C                                       1.3834887
    34   6 C       36   6 C                                       1.3833660
    31   6 C       37   6 C                                       1.3887843
    36   6 C       37   6 C                                       1.3831949
    30   6 C       38   8 O                                       1.2108577
     1   6 C       39   1 H                                       1.0796515
     2   6 C       40   1 H                                       1.0797072
     3   6 C       41   1 H                                       1.0798394
     4   6 C       42   1 H                                       1.0797928
     5   6 C       43   1 H                                       1.0792651
     7   6 C       44   1 H                                       1.0943484
     8   6 C       45   1 H                                       1.0935187
    10   6 C       46   1 H                                       1.0796496
    11   6 C       47   1 H                                       1.0796535
    12   6 C       48   1 H                                       1.0796940
    13   6 C       49   1 H                                       1.0801547
    14   6 C       50   1 H                                       1.0802379
    18   6 C       51   1 H                                       1.0778855
    19   6 C       52   1 H                                       1.0782727
    22   6 C       53   1 H                                       1.0784868
    23   6 C       54   1 H                                       1.0807890
    25   6 C       55   1 H                                       1.0990366
    27   8 O       56   1 H                                       0.9718005 (min)
    32   6 C       57   1 H                                       1.0803634
    33   6 C       58   1 H                                       1.0782828
    36   6 C       59   1 H                                       1.0782588
    37   6 C       60   1 H                                       1.0783912

 * 5 distinct bonds (by element types)

   Z      Z             #   av. dist./Å        max./Å        min./Å
   1 H    6 C          21     1.0816800     1.0990366     1.0778855
   6 C    6 C          25     1.3916462     1.5377416     1.3822942
   6 C    7 N           6     1.4197148     1.4635179     1.3558285
   1 H    8 O           1     0.9718005     0.9718005     0.9718005
   6 C    8 O           4     1.2368242     1.3284122     1.1968855


optimized geometry written to: xtbopt.xyz


           -------------------------------------------------
          | TOTAL ENERGY             -107.069322491996 Eh   |
          | GRADIENT NORM               0.000543619514 Eh/α |
          | HOMO-LUMO GAP               3.494138631508 eV   |
           -------------------------------------------------

------------------------------------------------------------------------
 * finished run on 2022/03/17 at 00:49:40.837     
------------------------------------------------------------------------
 total:
 * wall-time:     0 d,  0 h,  0 min, 14.688 sec
 *  cpu-time:     0 d,  0 h,  6 min, 18.189 sec
 * ratio c/w:    25.748 speedup
 SCF:
 * wall-time:     0 d,  0 h,  0 min,  0.428 sec
 *  cpu-time:     0 d,  0 h,  0 min,  8.782 sec
 * ratio c/w:    20.521 speedup
 ANC optimizer:
 * wall-time:     0 d,  0 h,  0 min, 14.133 sec
 *  cpu-time:     0 d,  0 h,  6 min,  5.434 sec
 * ratio c/w:    25.857 speedup

