      -----------------------------------------------------------      
     |                   =====================                   |     
     |                           x T B                           |     
     |                   =====================                   |     
     |                         S. Grimme                         |     
     |          Mulliken Center for Theoretical Chemistry        |     
     |                    University of Bonn                     |     
      -----------------------------------------------------------      

   * xtb version 6.3.3 (4ae9cef) compiled by 'conda@95abc7406d43' on 2020-10-14

   xtb is free software: you can redistribute it and/or modify it under
   the terms of the GNU Lesser General Public License as published by
   the Free Software Foundation, either version 3 of the License, or
   (at your option) any later version.
   
   xtb is distributed in the hope that it will be useful,
   but WITHOUT ANY WARRANTY; without even the implied warranty of
   MERCHANTABILITY or FITNESS FOR A PARTICULAR PURPOSE.  See the
   GNU Lesser General Public License for more details.
   
   Cite this work as:
   * C. Bannwarth, E. Caldeweyher, S. Ehlert, A. Hansen, P. Pracht,
     J. Seibert, S. Spicher, S. Grimme, WIREs Comput. Mol. Sci., 2020,
     e01493. DOI: 10.1002/wcms.1493
   
   for GFN2-xTB:
   * S. Grimme, C. Bannwarth, P. Shushkov, J. Chem. Theory Comput., 2017,
     13, 1989-2009. DOI: 10.1021/acs.jctc.7b00118
   for GFN1-xTB:
   * C. Bannwarth, S. Ehlert and S. Grimme., J. Chem. Theory Comput., 2019,
     15, 1652-1671. DOI: 10.1021/acs.jctc.8b01176
   for GFN0-xTB:
   * P. Pracht, E. Caldeweyher, S. Ehlert, S. Grimme, ChemRxiv, 2019, preprint.
     DOI: 10.26434/chemrxiv.8326202.v1
   for GFN-FF:
   * S. Spicher and S. Grimme, Angew. Chem. Int. Ed., 2020, 59, 15665-15673.
     DOI: 10.1002/anie.202004239
   
   for DFT-D4:
   * E. Caldeweyher, C. Bannwarth and S. Grimme, J. Chem. Phys., 2017,
     147, 034112. DOI: 10.1063/1.4993215
   * E. Caldeweyher, S. Ehlert, A. Hansen, H. Neugebauer, S. Spicher,
     C. Bannwarth and S. Grimme, J. Chem. Phys., 2019, 150, 154122.
     DOI: 10.1063/1.5090222
   * E. Caldeweyher, J.-M. Mewes, S. Ehlert and S. Grimme, Phys. Chem. Chem. Phys.
     2020, 22, 8499-8512. DOI: 10.1039/D0CP00502A
   
   for sTDA-xTB:
   * S. Grimme and C. Bannwarth, J. Chem. Phys., 2016, 145, 054103.
     DOI: 10.1063/1.4959605
   
   in the mass-spec context:
   * V. Asgeirsson, C. Bauer and S. Grimme, Chem. Sci., 2017, 8, 4879.
     DOI: 10.1039/c7sc00601b
   * J. Koopman and S. Grimme, ACS Omega 2019, 4, 12, 15120-15133.
     DOI: 10.1021/acsomega.9b02011
   
   for metadynamics refer to:
   * S. Grimme, J. Chem. Theory Comput., 2019, 155, 2847-2862
     DOI: 10.1021/acs.jctc.9b00143
   
   with help from (in alphabetical order)
   C. Bannwarth, F. Bohle, G. Brandenburg, E. Caldeweyher, M. Checinski,
   S. Dohm, S. Ehlert, S. Ehrlich, F. März, H. Neugebauer, J. Pisarek,
   P. Pracht, P. Shushkov, and S. Spicher.
   
 * started run on 2022/03/16 at 22:47:22.110     

           -------------------------------------------------
          |                Calculation Setup                |
           -------------------------------------------------

          program call               : xtb acid_235.xyz --opt --chrg 0 --uhf 0 --gfn 2
          coordinate file            : acid_235.xyz
          omp threads                :                    64
          number of atoms            :                    84
          number of electrons        :                   238
          charge                     :                     0
          spin                       :                   0.0
          first test random number   :      0.66914767443554

   ID    Z sym.   atoms
    1    6 C      1-22, 24-32, 34, 35, 39-47
    2    7 N      23, 38
    3    8 O      33, 36, 37, 48
    4    1 H      49-84

           -------------------------------------------------
          |                 G F N 2 - x T B                 |
           -------------------------------------------------

        Reference                      10.1021/acs.jctc.8b01176
      * Hamiltonian:
        H0-scaling (s, p, d)           1.850000    2.230000    2.230000
        zeta-weighting                 0.500000
      * Dispersion:
        s8                             2.700000
        a1                             0.520000
        a2                             5.000000
        s9                             5.000000
      * Repulsion:
        kExp                           1.500000    1.000000
        rExp                           1.000000
      * Coulomb:
        alpha                          2.000000
        third order                    shell-resolved
        anisotropic                    true
        a3                             3.000000
        a5                             4.000000
        cn-shift                       1.200000
        cn-exp                         4.000000
        max-rad                        5.000000


          ...................................................
          :                      SETUP                      :
          :.................................................:
          :  # basis functions                 228          :
          :  # atomic orbitals                 228          :
          :  # shells                          132          :
          :  # electrons                       238          :
          :  max. iterations                   250          :
          :  Hamiltonian                  GFN2-xTB          :
          :  restarted?                      false          :
          :  GBSA solvation                  false          :
          :  PC potential                    false          :
          :  electronic temp.          300.0000000     K    :
          :  accuracy                    1.0000000          :
          :  -> integral cutoff          0.2500000E+02      :
          :  -> integral neglect         0.1000000E-07      :
          :  -> SCF convergence          0.1000000E-05 Eh   :
          :  -> wf. convergence          0.1000000E-03 e    :
          :  Broyden damping             0.4000000          :
          ...................................................

 iter      E             dE          RMSdq      gap      omega  full diag
   1   -132.2716501 -0.132272E+03  0.392E+00    2.34       0.0  T
   2   -132.4129504 -0.141300E+00  0.223E+00    2.47       1.0  T
   3   -132.4064920  0.645836E-02  0.114E+00    2.64       1.0  T
   4   -132.4334415 -0.269494E-01  0.263E-01    2.31       1.0  T
   5   -132.4369600 -0.351856E-02  0.129E-01    2.34       1.0  T
   6   -132.4380049 -0.104492E-02  0.571E-02    2.36       1.0  T
   7   -132.4381749 -0.170017E-03  0.278E-02    2.36       1.0  T
   8   -132.4381989 -0.239847E-04  0.110E-02    2.37       1.0  T
   9   -132.4382025 -0.356966E-05  0.364E-03    2.37       3.0  T
  10   -132.4382029 -0.404444E-06  0.213E-03    2.37       5.1  T
  11   -132.4382031 -0.226533E-06  0.806E-04    2.37      13.5  T
  12   -132.4382031 -0.138104E-07  0.413E-04    2.37      26.4  T

   *** convergence criteria satisfied after 12 iterations ***

         #    Occupation            Energy/Eh            Energy/eV
      -------------------------------------------------------------
         1        2.0000           -0.7660482             -20.8452
       ...           ...                  ...                  ...
       113        2.0000           -0.3990527             -10.8588
       114        2.0000           -0.3938087             -10.7161
       115        2.0000           -0.3923000             -10.6750
       116        2.0000           -0.3870503             -10.5322
       117        2.0000           -0.3841599             -10.4535
       118        2.0000           -0.3741030             -10.1799
       119        2.0000           -0.3681987             -10.0192 (HOMO)
       120                         -0.2811995              -7.6518 (LUMO)
       121                         -0.2729474              -7.4273
       122                         -0.2679371              -7.2909
       123                         -0.2641618              -7.1882
       124                         -0.2372714              -6.4565
       ...                                ...                  ...
       228                          0.6845342              18.6271
      -------------------------------------------------------------
                  HL-Gap            0.0869992 Eh            2.3674 eV
             Fermi-level           -0.3246991 Eh           -8.8355 eV

 SCC (total)                   0 d,  0 h,  0 min,  0.656 sec
 SCC setup                      ...        0 min,  0.013 sec (  1.924%)
 Dispersion                     ...        0 min,  0.022 sec (  3.387%)
 classical contributions        ...        0 min,  0.015 sec (  2.279%)
 integral evaluation            ...        0 min,  0.125 sec ( 19.017%)
 iterations                     ...        0 min,  0.336 sec ( 51.205%)
 molecular gradient             ...        0 min,  0.142 sec ( 21.622%)
 printout                       ...        0 min,  0.004 sec (  0.553%)

         :::::::::::::::::::::::::::::::::::::::::::::::::::::
         ::                     SUMMARY                     ::
         :::::::::::::::::::::::::::::::::::::::::::::::::::::
         :: total energy            -130.437339771497 Eh    ::
         :: gradient norm              0.141089756978 Eh/a0 ::
         :: HOMO-LUMO gap              2.367368611817 eV    ::
         ::.................................................::
         :: SCC energy              -132.438203140469 Eh    ::
         :: -> isotropic ES            0.122069112710 Eh    ::
         :: -> anisotropic ES          0.010006218507 Eh    ::
         :: -> anisotropic XC          0.064086025852 Eh    ::
         :: -> dispersion             -0.114190106350 Eh    ::
         :: repulsion energy           1.996783037640 Eh    ::
         :: add. restraining           0.000000000000 Eh    ::
         :: total charge              -0.000000000000 e     ::
         :::::::::::::::::::::::::::::::::::::::::::::::::::::

      ----------------------------------------------------------- 
     |                   =====================                   |
     |                        A N C O P T                        |
     |                   =====================                   |
     |               Approximate Normal Coordinate               |
     |                Rational Function Optimizer                |
      ----------------------------------------------------------- 

          ...................................................
          :                      SETUP                      :
          :.................................................:
          :   optimization level            normal          :
          :   max. optcycles                   252          :
          :   ANC micro-cycles                  20          :
          :   degrees of freedom               246          :
          :.................................................:
          :   RF solver                   davidson          :
          :   write xtbopt.log                true          :
          :   linear?                        false          :
          :   energy convergence         0.5000000E-05 Eh   :
          :   grad. convergence          0.1000000E-02 Eh/α :
          :   maximium RF displ.         1.0000000          :
          :   Hlow (freq-cutoff)         0.1000000E-01      :
          :   Hmax (freq-cutoff)         5.0000000          :
          :   S6 in model hess.         20.0000000          :
          ...................................................

generating ANC from model Hessian ...
Using Lindh-Hessian (1995)
 Shifting diagonal of input Hessian by    9.8786897325820779E-003
 Lowest  eigenvalues of input Hessian
    0.000000    0.000000    0.000000    0.000000    0.000000    0.000000
    0.010000    0.010047    0.010125    0.010162    0.010190    0.010232
    0.010239    0.010428    0.010450    0.010918    0.011050    0.011165
 Highest eigenvalues
    1.992655    2.054970    2.057675    2.194912    2.212326    2.220933


........................................................................
.............................. CYCLE    1 ..............................
........................................................................
   1   -132.4382031 -0.132438E+03  0.167E-04    2.37       0.0  T
   2   -132.4382031 -0.375280E-09  0.114E-04    2.37      95.8  T
   3   -132.4382031 -0.357232E-09  0.740E-05    2.37     147.5  T
     SCC iter.                  ...        0 min,  0.087 sec
     gradient                   ...        0 min,  0.148 sec
 * total energy  :  -130.4373398 Eh     change       -0.5637929E-08 Eh
   gradient norm :     0.1410946 Eh/α   predicted     0.0000000E+00 (-100.00%)
   displ. norm   :     0.3793632 α      lambda       -0.2613399E-01
   maximum displ.:     0.1227247 α      in ANC's #75, #78, #23, ...

........................................................................
.............................. CYCLE    2 ..............................
........................................................................
   1   -132.5320454 -0.132532E+03  0.172E-01    2.55       0.0  T
   2   -132.5322199 -0.174461E-03  0.108E-01    2.54       1.0  T
   3   -132.5320285  0.191378E-03  0.595E-02    2.53       1.0  T
   4   -132.5322601 -0.231619E-03  0.200E-02    2.53       1.0  T
   5   -132.5322974 -0.372851E-04  0.430E-03    2.53       2.5  T
   6   -132.5322983 -0.885437E-06  0.184E-03    2.53       5.9  T
   7   -132.5322983 -0.336125E-07  0.986E-04    2.53      11.1  T
   8   -132.5322984 -0.353873E-07  0.317E-04    2.53      34.4  T
     SCC iter.                  ...        0 min,  0.223 sec
     gradient                   ...        0 min,  0.171 sec
 * total energy  :  -130.4555948 Eh     change       -0.1825501E-01 Eh
   gradient norm :     0.0539025 Eh/α   predicted    -0.1494756E-01 ( -18.12%)
   displ. norm   :     0.4099066 α      lambda       -0.8888201E-02
   maximum displ.:     0.1599521 α      in ANC's #23, #21, #36, ...

........................................................................
.............................. CYCLE    3 ..............................
........................................................................
   1   -132.5807446 -0.132581E+03  0.131E-01    2.61       0.0  T
   2   -132.5807917 -0.471689E-04  0.816E-02    2.62       1.0  T
   3   -132.5806209  0.170850E-03  0.475E-02    2.61       1.0  T
   4   -132.5808312 -0.210317E-03  0.965E-03    2.61       1.1  T
   5   -132.5808390 -0.778067E-05  0.254E-03    2.61       4.3  T
   6   -132.5808392 -0.183099E-06  0.125E-03    2.61       8.7  T
   7   -132.5808392 -0.183749E-07  0.631E-04    2.61      17.3  T
   8   -132.5808392 -0.124965E-07  0.211E-04    2.61      51.6  T
     SCC iter.                  ...        0 min,  0.222 sec
     gradient                   ...        0 min,  0.124 sec
 * total energy  :  -130.4612910 Eh     change       -0.5696176E-02 Eh
   gradient norm :     0.0153760 Eh/α   predicted    -0.5190814E-02 (  -8.87%)
   displ. norm   :     0.3918426 α      lambda       -0.2805772E-02
   maximum displ.:     0.1797452 α      in ANC's #23, #21, #22, ...

........................................................................
.............................. CYCLE    4 ..............................
........................................................................
   1   -132.5890029 -0.132589E+03  0.103E-01    2.62       0.0  T
   2   -132.5890396 -0.366635E-04  0.624E-02    2.63       1.0  T
   3   -132.5889507  0.889034E-04  0.338E-02    2.63       1.0  T
   4   -132.5890561 -0.105385E-03  0.847E-03    2.63       1.3  T
   5   -132.5890624 -0.629296E-05  0.187E-03    2.63       5.8  T
   6   -132.5890625 -0.115091E-06  0.103E-03    2.63      10.6  T
   7   -132.5890625 -0.125557E-07  0.388E-04    2.63      28.1  T
   8   -132.5890625 -0.500620E-08  0.158E-04    2.63      69.1  T
     SCC iter.                  ...        0 min,  0.228 sec
     gradient                   ...        0 min,  0.145 sec
 * total energy  :  -130.4634303 Eh     change       -0.2139323E-02 Eh
   gradient norm :     0.0166320 Eh/α   predicted    -0.1618299E-02 ( -24.35%)
   displ. norm   :     0.4852639 α      lambda       -0.2289097E-02
   maximum displ.:     0.2148879 α      in ANC's #23, #21, #22, ...

........................................................................
.............................. CYCLE    5 ..............................
........................................................................
   1   -132.5906020 -0.132591E+03  0.119E-01    2.64       0.0  T
   2   -132.5906777 -0.757136E-04  0.714E-02    2.65       1.0  T
   3   -132.5905988  0.789263E-04  0.361E-02    2.66       1.0  T
   4   -132.5906896 -0.907955E-04  0.127E-02    2.66       1.0  T
   5   -132.5907051 -0.154789E-04  0.233E-03    2.66       4.7  T
   6   -132.5907053 -0.186191E-06  0.127E-03    2.66       8.6  T
   7   -132.5907053 -0.237303E-07  0.523E-04    2.66      20.9  T
   8   -132.5907053 -0.827796E-08  0.213E-04    2.66      51.3  T
     SCC iter.                  ...        0 min,  0.236 sec
     gradient                   ...        0 min,  0.135 sec
 * total energy  :  -130.4650967 Eh     change       -0.1666380E-02 Eh
   gradient norm :     0.0161774 Eh/α   predicted    -0.1414113E-02 ( -15.14%)
   displ. norm   :     0.4313480 α      lambda       -0.1390979E-02
   maximum displ.:     0.1634745 α      in ANC's #23, #8, #21, ...

........................................................................
.............................. CYCLE    6 ..............................
........................................................................
   1   -132.5922663 -0.132592E+03  0.973E-02    2.69       0.0  T
   2   -132.5923382 -0.719850E-04  0.575E-02    2.69       1.0  T
   3   -132.5923030  0.352778E-04  0.293E-02    2.70       1.0  T
   4   -132.5923431 -0.401579E-04  0.120E-02    2.70       1.0  T
   5   -132.5923574 -0.143079E-04  0.215E-03    2.70       5.1  T
   6   -132.5923576 -0.181755E-06  0.114E-03    2.70       9.5  T
   7   -132.5923576 -0.221835E-07  0.492E-04    2.70      22.2  T
   8   -132.5923576 -0.700075E-08  0.208E-04    2.70      52.4  T
     SCC iter.                  ...        0 min,  0.223 sec
     gradient                   ...        0 min,  0.131 sec
 * total energy  :  -130.4661608 Eh     change       -0.1064131E-02 Eh
   gradient norm :     0.0145400 Eh/α   predicted    -0.8249003E-03 ( -22.48%)
   displ. norm   :     0.4620092 α      lambda       -0.1284832E-02
   maximum displ.:     0.1543342 α      in ANC's #8, #2, #3, ...

........................................................................
.............................. CYCLE    7 ..............................
........................................................................
   1   -132.5950634 -0.132595E+03  0.995E-02    2.73       0.0  T
   2   -132.5951538 -0.903911E-04  0.577E-02    2.74       1.0  T
   3   -132.5951299  0.239337E-04  0.293E-02    2.75       1.0  T
   4   -132.5951572 -0.273730E-04  0.127E-02    2.74       1.0  T
   5   -132.5951734 -0.161832E-04  0.239E-03    2.74       4.6  T
   6   -132.5951737 -0.234904E-06  0.125E-03    2.74       8.7  T
   7   -132.5951737 -0.310405E-07  0.540E-04    2.74      20.2  T
   8   -132.5951737 -0.848965E-08  0.238E-04    2.74      45.9  T
     SCC iter.                  ...        0 min,  0.226 sec
     gradient                   ...        0 min,  0.127 sec
 * total energy  :  -130.4671833 Eh     change       -0.1022460E-02 Eh
   gradient norm :     0.0131873 Eh/α   predicted    -0.7795661E-03 ( -23.76%)
   displ. norm   :     0.5172672 α      lambda       -0.1315972E-02
   maximum displ.:     0.1914094 α      in ANC's #8, #2, #1, ...

........................................................................
.............................. CYCLE    8 ..............................
........................................................................
   1   -132.5980892 -0.132598E+03  0.111E-01    2.76       0.0  T
   2   -132.5981951 -0.105880E-03  0.637E-02    2.75       1.0  T
   3   -132.5981691  0.259347E-04  0.314E-02    2.77       1.0  T
   4   -132.5981988 -0.296234E-04  0.132E-02    2.76       1.0  T
   5   -132.5982165 -0.177044E-04  0.262E-03    2.76       4.2  T
   6   -132.5982167 -0.271617E-06  0.139E-03    2.76       7.8  T
   7   -132.5982168 -0.424990E-07  0.586E-04    2.76      18.6  T
   8   -132.5982168 -0.107845E-07  0.264E-04    2.76      41.3  T
     SCC iter.                  ...        0 min,  0.223 sec
     gradient                   ...        0 min,  0.130 sec
 * total energy  :  -130.4682285 Eh     change       -0.1045227E-02 Eh
   gradient norm :     0.0129468 Eh/α   predicted    -0.8340413E-03 ( -20.20%)
   displ. norm   :     0.5358917 α      lambda       -0.1169676E-02
   maximum displ.:     0.2282960 α      in ANC's #2, #8, #1, ...

........................................................................
.............................. CYCLE    9 ..............................
........................................................................
   1   -132.6010679 -0.132601E+03  0.109E-01    2.76       0.0  T
   2   -132.6011140 -0.460954E-04  0.630E-02    2.76       1.0  T
   3   -132.6010764  0.376090E-04  0.264E-02    2.77       1.0  T
   4   -132.6011193 -0.429480E-04  0.869E-03    2.76       1.3  T
   5   -132.6011266 -0.731824E-05  0.230E-03    2.76       4.7  T
   6   -132.6011268 -0.153338E-06  0.129E-03    2.76       8.4  T
   7   -132.6011268 -0.371075E-07  0.503E-04    2.76      21.7  T
   8   -132.6011268 -0.907167E-08  0.220E-04    2.76      49.5  T
     SCC iter.                  ...        0 min,  0.227 sec
     gradient                   ...        0 min,  0.153 sec
 * total energy  :  -130.4691250 Eh     change       -0.8965610E-03 Eh
   gradient norm :     0.0087659 Eh/α   predicted    -0.7528024E-03 ( -16.03%)
   displ. norm   :     0.6175645 α      lambda       -0.1031919E-02
   maximum displ.:     0.2730356 α      in ANC's #2, #8, #1, ...

........................................................................
.............................. CYCLE   10 ..............................
........................................................................
   1   -132.5961539 -0.132596E+03  0.139E-01    2.75       0.0  T
   2   -132.5963984 -0.244461E-03  0.813E-02    2.74       1.0  T
   3   -132.5963853  0.130124E-04  0.412E-02    2.75       1.0  T
   4   -132.5964077 -0.223507E-04  0.181E-02    2.75       1.0  T
   5   -132.5964424 -0.346719E-04  0.348E-03    2.75       3.1  T
   6   -132.5964429 -0.562254E-06  0.171E-03    2.75       6.4  T
   7   -132.5964430 -0.931114E-07  0.786E-04    2.75      13.9  T
   8   -132.5964430 -0.156012E-07  0.385E-04    2.75      28.3  T
     SCC iter.                  ...        0 min,  0.223 sec
     gradient                   ...        0 min,  0.143 sec
 * total energy  :  -130.4694038 Eh     change       -0.2787219E-03 Eh
   gradient norm :     0.0347270 Eh/α   predicted    -0.7127476E-03 ( 155.72%)
   displ. norm   :     0.3020312 α      lambda       -0.1446502E-02
   maximum displ.:     0.1560399 α      in ANC's #2, #1, #8, ...

........................................................................
.............................. CYCLE   11 ..............................
........................................................................
   1   -132.6031627 -0.132603E+03  0.666E-02    2.76       0.0  T
   2   -132.6032593 -0.965450E-04  0.408E-02    2.77       1.0  T
   3   -132.6032642 -0.495001E-05  0.204E-02    2.77       1.0  T
   4   -132.6032659 -0.167149E-05  0.577E-03    2.77       1.9  T
   5   -132.6032685 -0.262021E-05  0.215E-03    2.77       5.1  T
   6   -132.6032688 -0.311413E-06  0.975E-04    2.77      11.2  T
   7   -132.6032689 -0.387603E-07  0.459E-04    2.77      23.8  T
     SCC iter.                  ...        0 min,  0.203 sec
     gradient                   ...        0 min,  0.146 sec
 * total energy  :  -130.4701646 Eh     change       -0.7608298E-03 Eh
   gradient norm :     0.0101450 Eh/α   predicted    -0.7892631E-03 (   3.74%)
   displ. norm   :     0.3802970 α      lambda       -0.4864470E-03
   maximum displ.:     0.1980437 α      in ANC's #2, #8, #1, ...

........................................................................
.............................. CYCLE   12 ..............................
........................................................................
   1   -132.6010169 -0.132601E+03  0.654E-02    2.78       0.0  T
   2   -132.6010310 -0.140395E-04  0.386E-02    2.76       1.0  T
   3   -132.6010145  0.165125E-04  0.157E-02    2.77       1.0  T
   4   -132.6010328 -0.183751E-04  0.503E-03    2.76       2.2  T
   5   -132.6010354 -0.253128E-05  0.113E-03    2.77       9.6  T
   6   -132.6010354 -0.385944E-07  0.635E-04    2.77      17.2  T
   7   -132.6010354 -0.910518E-08  0.280E-04    2.77      39.0  T
     SCC iter.                  ...        0 min,  0.201 sec
     gradient                   ...        0 min,  0.137 sec
 * total energy  :  -130.4705630 Eh     change       -0.3983608E-03 Eh
   gradient norm :     0.0082453 Eh/α   predicted    -0.2784010E-03 ( -30.11%)
   displ. norm   :     0.5446072 α      lambda       -0.7881814E-03
   maximum displ.:     0.2913349 α      in ANC's #2, #1, #8, ...

........................................................................
.............................. CYCLE   13 ..............................
........................................................................
   1   -132.6011616 -0.132601E+03  0.871E-02    2.79       0.0  T
   2   -132.6011783 -0.166363E-04  0.516E-02    2.77       1.0  T
   3   -132.6011436  0.346783E-04  0.208E-02    2.78       1.0  T
   4   -132.6011822 -0.386041E-04  0.536E-03    2.77       2.0  T
   5   -132.6011849 -0.276463E-05  0.134E-03    2.77       8.2  T
   6   -132.6011850 -0.758096E-07  0.722E-04    2.77      15.1  T
   7   -132.6011850 -0.134316E-07  0.314E-04    2.77      34.8  T
     SCC iter.                  ...        0 min,  0.196 sec
     gradient                   ...        0 min,  0.157 sec
 * total energy  :  -130.4712109 Eh     change       -0.6479099E-03 Eh
   gradient norm :     0.0092216 Eh/α   predicted    -0.5109777E-03 ( -21.13%)
   displ. norm   :     0.6209567 α      lambda       -0.8712367E-03
   maximum displ.:     0.3453748 α      in ANC's #2, #1, #8, ...

........................................................................
.............................. CYCLE   14 ..............................
........................................................................
   1   -132.6023249 -0.132602E+03  0.939E-02    2.78       0.0  T
   2   -132.6023316 -0.676225E-05  0.554E-02    2.77       1.0  T
   3   -132.6022930  0.385957E-04  0.202E-02    2.78       1.0  T
   4   -132.6023364 -0.433657E-04  0.319E-03    2.77       3.4  T
   5   -132.6023371 -0.751183E-06  0.129E-03    2.77       8.4  T
   6   -132.6023372 -0.539918E-07  0.669E-04    2.77      16.3  T
   7   -132.6023372 -0.118064E-07  0.273E-04    2.77      40.0  T
     SCC iter.                  ...        0 min,  0.197 sec
     gradient                   ...        0 min,  0.126 sec
 * total energy  :  -130.4719266 Eh     change       -0.7157626E-03 Eh
   gradient norm :     0.0101299 Eh/α   predicted    -0.6035884E-03 ( -15.67%)
   displ. norm   :     0.6916301 α      lambda       -0.8584905E-03
   maximum displ.:     0.3856787 α      in ANC's #2, #1, #8, ...

........................................................................
.............................. CYCLE   15 ..............................
........................................................................
   1   -132.6019417 -0.132602E+03  0.104E-01    2.78       0.0  T
   2   -132.6019485 -0.678224E-05  0.610E-02    2.77       1.0  T
   3   -132.6019258  0.226763E-04  0.159E-02    2.78       1.0  T
   4   -132.6019516 -0.258262E-04  0.286E-03    2.77       3.8  T
   5   -132.6019521 -0.507872E-06  0.136E-03    2.77       8.0  T
   6   -132.6019522 -0.431182E-07  0.734E-04    2.77      14.9  T
   7   -132.6019522 -0.222616E-07  0.272E-04    2.77      40.1  T
     SCC iter.                  ...        0 min,  0.195 sec
     gradient                   ...        0 min,  0.163 sec
 * total energy  :  -130.4726943 Eh     change       -0.7676319E-03 Eh
   gradient norm :     0.0105518 Eh/α   predicted    -0.6345806E-03 ( -17.33%)
   displ. norm   :     0.7213937 α      lambda       -0.1014635E-02
   maximum displ.:     0.4083108 α      in ANC's #2, #1, #8, ...

........................................................................
.............................. CYCLE   16 ..............................
........................................................................
   1   -132.6036442 -0.132604E+03  0.108E-01    2.76       0.0  T
   2   -132.6036531 -0.893492E-05  0.633E-02    2.77       1.0  T
   3   -132.6036305  0.226845E-04  0.164E-02    2.77       1.0  T
   4   -132.6036569 -0.264175E-04  0.316E-03    2.77       3.5  T
   5   -132.6036574 -0.537941E-06  0.156E-03    2.77       7.0  T
   6   -132.6036575 -0.304715E-07  0.857E-04    2.77      12.7  T
   7   -132.6036575 -0.341900E-07  0.293E-04    2.77      37.3  T
     SCC iter.                  ...        0 min,  0.196 sec
     gradient                   ...        0 min,  0.136 sec
 * total energy  :  -130.4735686 Eh     change       -0.8743317E-03 Eh
   gradient norm :     0.0071025 Eh/α   predicted    -0.7713348E-03 ( -11.78%)
   displ. norm   :     0.7965129 α      lambda       -0.9914534E-03
   maximum displ.:     0.4497223 α      in ANC's #2, #1, #8, ...

........................................................................
.............................. CYCLE   17 ..............................
........................................................................
   1   -132.5998343 -0.132600E+03  0.117E-01    2.75       0.0  T
   2   -132.5998506 -0.162485E-04  0.688E-02    2.75       1.0  T
   3   -132.5998269  0.236595E-04  0.175E-02    2.75       1.0  T
   4   -132.5998540 -0.270751E-04  0.439E-03    2.75       2.5  T
   5   -132.5998556 -0.161667E-05  0.163E-03    2.75       6.7  T
   6   -132.5998556 -0.349775E-07  0.101E-03    2.75      10.8  T
   7   -132.5998557 -0.428376E-07  0.329E-04    2.75      33.2  T
   8   -132.5998557 -0.324175E-08  0.158E-04    2.75      69.1  T
     SCC iter.                  ...        0 min,  0.222 sec
     gradient                   ...        0 min,  0.152 sec
 * total energy  :  -130.4743884 Eh     change       -0.8198029E-03 Eh
   gradient norm :     0.0098587 Eh/α   predicted    -0.8102335E-03 (  -1.17%)
   displ. norm   :     0.7106709 α      lambda       -0.8964528E-03
   maximum displ.:     0.4118008 α      in ANC's #2, #1, #8, ...

........................................................................
.............................. CYCLE   18 ..............................
........................................................................
   1   -132.6049151 -0.132605E+03  0.991E-02    2.74       0.0  T
   2   -132.6049262 -0.111306E-04  0.583E-02    2.75       1.0  T
   3   -132.6049111  0.151429E-04  0.146E-02    2.74       1.0  T
   4   -132.6049294 -0.183196E-04  0.299E-03    2.75       3.6  T
   5   -132.6049299 -0.494742E-06  0.145E-03    2.75       7.5  T
   6   -132.6049299 -0.396899E-07  0.751E-04    2.75      14.5  T
   7   -132.6049299 -0.126884E-07  0.349E-04    2.75      31.3  T
     SCC iter.                  ...        0 min,  0.196 sec
     gradient                   ...        0 min,  0.144 sec
 * total energy  :  -130.4750529 Eh     change       -0.6644647E-03 Eh
   gradient norm :     0.0082146 Eh/α   predicted    -0.6746051E-03 (   1.53%)
   displ. norm   :     0.7885702 α      lambda       -0.7606390E-03
   maximum displ.:     0.4517311 α      in ANC's #2, #1, #8, ...

........................................................................
.............................. CYCLE   19 ..............................
........................................................................
   1   -132.5979652 -0.132598E+03  0.112E-01    2.75       0.0  T
   2   -132.5979898 -0.245758E-04  0.658E-02    2.74       1.0  T
   3   -132.5979544  0.354323E-04  0.217E-02    2.75       1.0  T
   4   -132.5979941 -0.397117E-04  0.578E-03    2.74       1.9  T
   5   -132.5979974 -0.327868E-05  0.154E-03    2.74       7.1  T
   6   -132.5979974 -0.942310E-07  0.856E-04    2.74      12.8  T
   7   -132.5979975 -0.193936E-07  0.356E-04    2.74      30.6  T
     SCC iter.                  ...        0 min,  0.193 sec
     gradient                   ...        0 min,  0.150 sec
 * total energy  :  -130.4756904 Eh     change       -0.6374952E-03 Eh
   gradient norm :     0.0112761 Eh/α   predicted    -0.6168240E-03 (  -3.24%)
   displ. norm   :     0.7066203 α      lambda       -0.7472942E-03
   maximum displ.:     0.4149960 α      in ANC's #2, #1, #8, ...

........................................................................
.............................. CYCLE   20 ..............................
........................................................................
   1   -132.6022703 -0.132602E+03  0.895E-02    2.77       0.0  T
   2   -132.6022765 -0.612065E-05  0.529E-02    2.76       1.0  T
   3   -132.6022503  0.261605E-04  0.169E-02    2.76       1.0  T
   4   -132.6022801 -0.297659E-04  0.262E-03    2.76       4.2  T
   5   -132.6022806 -0.502822E-06  0.113E-03    2.76       9.7  T
   6   -132.6022806 -0.364065E-07  0.634E-04    2.76      17.2  T
   7   -132.6022806 -0.105315E-07  0.234E-04    2.76      46.7  T
     SCC iter.                  ...        0 min,  0.198 sec
     gradient                   ...        0 min,  0.132 sec
 * total energy  :  -130.4763324 Eh     change       -0.6419971E-03 Eh
   gradient norm :     0.0105900 Eh/α   predicted    -0.5602198E-03 ( -12.74%)
   displ. norm   :     0.7366508 α      lambda       -0.7608520E-03
   maximum displ.:     0.4407627 α      in ANC's #2, #1, #8, ...
 * RMSD in coord.:     1.0211832 α      energy gain  -0.3899258E-01 Eh

generating ANC from model Hessian ...
Using Lindh-Hessian (1995)
 Shifting diagonal of input Hessian by    9.8833613714340747E-003
 Lowest  eigenvalues of input Hessian
    0.000000    0.000000    0.000000    0.000000    0.000000    0.000000
    0.010000    0.010101    0.010154    0.010206    0.010242    0.010262
    0.010319    0.010501    0.010561    0.011030    0.011144    0.011299
 Highest eigenvalues
    2.037272    2.108913    2.110783    2.310903    2.319092    2.396383


........................................................................
.............................. CYCLE   21 ..............................
........................................................................
   1   -132.6080326 -0.132608E+03  0.899E-02    2.76       0.0  T
   2   -132.6080391 -0.654221E-05  0.532E-02    2.76       1.0  T
   3   -132.6080040  0.351525E-04  0.195E-02    2.76       1.0  T
   4   -132.6080440 -0.400798E-04  0.273E-03    2.76       4.0  T
   5   -132.6080446 -0.543874E-06  0.108E-03    2.76      10.1  T
   6   -132.6080446 -0.292407E-07  0.615E-04    2.76      17.7  T
   7   -132.6080446 -0.115670E-07  0.239E-04    2.76      45.6  T
     SCC iter.                  ...        0 min,  0.200 sec
     gradient                   ...        0 min,  0.136 sec
 * total energy  :  -130.4769834 Eh     change       -0.6510065E-03 Eh
   gradient norm :     0.0073452 Eh/α   predicted     0.0000000E+00 (-100.00%)
   displ. norm   :     0.0890212 α      lambda       -0.1580116E-03
   maximum displ.:     0.0470488 α      in ANC's #2, #1, #9, ...

........................................................................
.............................. CYCLE   22 ..............................
........................................................................
   1   -132.6097507 -0.132610E+03  0.169E-02    2.75       0.0  T
   2   -132.6097516 -0.831867E-06  0.101E-02    2.75       1.1  T
   3   -132.6097508  0.749421E-06  0.354E-03    2.75       3.1  T
   4   -132.6097517 -0.853672E-06  0.103E-03    2.75      10.6  T
   5   -132.6097518 -0.980937E-07  0.302E-04    2.75      36.2  T
   6   -132.6097518 -0.417077E-08  0.151E-04    2.75      72.2  T
     SCC iter.                  ...        0 min,  0.169 sec
     gradient                   ...        0 min,  0.136 sec
 * total energy  :  -130.4771147 Eh     change       -0.1313351E-03 Eh
   gradient norm :     0.0027716 Eh/α   predicted    -0.7966753E-04 ( -39.34%)
   displ. norm   :     0.2627231 α      lambda       -0.2909110E-03
   maximum displ.:     0.1376881 α      in ANC's #2, #1, #9, ...

........................................................................
.............................. CYCLE   23 ..............................
........................................................................
   1   -132.6117994 -0.132612E+03  0.438E-02    2.74       0.0  T
   2   -132.6118015 -0.212849E-05  0.258E-02    2.74       1.0  T
   3   -132.6117949  0.662147E-05  0.870E-03    2.74       1.3  T
   4   -132.6118023 -0.743499E-05  0.177E-03    2.74       6.2  T
   5   -132.6118026 -0.269673E-06  0.625E-04    2.74      17.5  T
   6   -132.6118026 -0.154181E-07  0.317E-04    2.74      34.4  T
     SCC iter.                  ...        0 min,  0.168 sec
     gradient                   ...        0 min,  0.148 sec
 * total energy  :  -130.4773357 Eh     change       -0.2209759E-03 Eh
   gradient norm :     0.0053657 Eh/α   predicted    -0.1555774E-03 ( -29.60%)
   displ. norm   :     0.3415005 α      lambda       -0.2604477E-03
   maximum displ.:     0.1811152 α      in ANC's #2, #1, #9, ...

........................................................................
.............................. CYCLE   24 ..............................
........................................................................
   1   -132.6123510 -0.132612E+03  0.512E-02    2.73       0.0  T
   2   -132.6123529 -0.185460E-05  0.300E-02    2.73       1.0  T
   3   -132.6123431  0.977772E-05  0.101E-02    2.74       1.1  T
   4   -132.6123541 -0.109778E-04  0.172E-03    2.73       6.4  T
   5   -132.6123543 -0.228712E-06  0.651E-04    2.73      16.8  T
   6   -132.6123543 -0.113286E-07  0.337E-04    2.73      32.3  T
     SCC iter.                  ...        0 min,  0.169 sec
     gradient                   ...        0 min,  0.127 sec
 * total energy  :  -130.4775618 Eh     change       -0.2261096E-03 Eh
   gradient norm :     0.0088146 Eh/α   predicted    -0.1454219E-03 ( -35.69%)
   displ. norm   :     0.4871851 α      lambda       -0.3742338E-03
   maximum displ.:     0.2582209 α      in ANC's #2, #1, #9, ...

........................................................................
.............................. CYCLE   25 ..............................
........................................................................
   1   -132.6117987 -0.132612E+03  0.678E-02    2.73       0.0  T
   2   -132.6118022 -0.358686E-05  0.398E-02    2.73       1.0  T
   3   -132.6117847  0.175204E-04  0.135E-02    2.73       1.0  T
   4   -132.6118044 -0.197067E-04  0.236E-03    2.73       4.6  T
   5   -132.6118049 -0.447905E-06  0.867E-04    2.73      12.6  T
   6   -132.6118049 -0.196630E-07  0.465E-04    2.73      23.5  T
     SCC iter.                  ...        0 min,  0.165 sec
     gradient                   ...        0 min,  0.145 sec
 * total energy  :  -130.4779080 Eh     change       -0.3462308E-03 Eh
   gradient norm :     0.0092828 Eh/α   predicted    -0.2315692E-03 ( -33.12%)
   displ. norm   :     0.6473699 α      lambda       -0.5394285E-03
   maximum displ.:     0.3453698 α      in ANC's #2, #1, #9, ...

........................................................................
.............................. CYCLE   26 ..............................
........................................................................
   1   -132.6104564 -0.132610E+03  0.841E-02    2.73       0.0  T
   2   -132.6104631 -0.663772E-05  0.494E-02    2.73       1.0  T
   3   -132.6104369  0.261964E-04  0.166E-02    2.73       1.0  T
   4   -132.6104664 -0.295594E-04  0.309E-03    2.73       3.5  T
   5   -132.6104672 -0.802919E-06  0.113E-03    2.73       9.7  T
   6   -132.6104673 -0.425010E-07  0.608E-04    2.73      17.9  T
   7   -132.6104673 -0.909972E-08  0.208E-04    2.73      52.4  T
     SCC iter.                  ...        0 min,  0.200 sec
     gradient                   ...        0 min,  0.177 sec
 * total energy  :  -130.4784050 Eh     change       -0.4969601E-03 Eh
   gradient norm :     0.0067538 Eh/α   predicted    -0.3827507E-03 ( -22.98%)
   displ. norm   :     0.7306084 α      lambda       -0.6134732E-03
   maximum displ.:     0.3941996 α      in ANC's #2, #1, #9, ...

........................................................................
.............................. CYCLE   27 ..............................
........................................................................
   1   -132.6095982 -0.132610E+03  0.888E-02    2.74       0.0  T
   2   -132.6096059 -0.765858E-05  0.522E-02    2.73       1.0  T
   3   -132.6095787  0.271421E-04  0.170E-02    2.74       1.0  T
   4   -132.6096096 -0.308281E-04  0.307E-03    2.73       3.6  T
   5   -132.6096103 -0.775320E-06  0.122E-03    2.73       8.9  T
   6   -132.6096104 -0.571258E-07  0.653E-04    2.73      16.7  T
   7   -132.6096104 -0.978773E-08  0.225E-04    2.73      48.4  T
     SCC iter.                  ...        0 min,  0.202 sec
     gradient                   ...        0 min,  0.129 sec
 * total energy  :  -130.4789557 Eh     change       -0.5507405E-03 Eh
   gradient norm :     0.0045621 Eh/α   predicted    -0.4704708E-03 ( -14.57%)
   displ. norm   :     0.7516446 α      lambda       -0.5781333E-03
   maximum displ.:     0.4095217 α      in ANC's #2, #1, #9, ...

........................................................................
.............................. CYCLE   28 ..............................
........................................................................
   1   -132.6096432 -0.132610E+03  0.869E-02    2.74       0.0  T
   2   -132.6096492 -0.601798E-05  0.511E-02    2.74       1.0  T
   3   -132.6096257  0.234876E-04  0.157E-02    2.74       1.0  T
   4   -132.6096526 -0.268685E-04  0.244E-03    2.74       4.5  T
   5   -132.6096530 -0.424926E-06  0.114E-03    2.74       9.5  T
   6   -132.6096530 -0.476405E-07  0.617E-04    2.74      17.7  T
   7   -132.6096531 -0.939940E-08  0.211E-04    2.74      51.8  T
     SCC iter.                  ...        0 min,  0.199 sec
     gradient                   ...        0 min,  0.142 sec
 * total energy  :  -130.4794703 Eh     change       -0.5145771E-03 Eh
   gradient norm :     0.0058462 Eh/α   predicted    -0.4523875E-03 ( -12.09%)
   displ. norm   :     0.7488486 α      lambda       -0.5232735E-03
   maximum displ.:     0.4113137 α      in ANC's #2, #1, #9, ...

........................................................................
.............................. CYCLE   29 ..............................
........................................................................
   1   -132.6102688 -0.132610E+03  0.841E-02    2.74       0.0  T
   2   -132.6102731 -0.424542E-05  0.494E-02    2.74       1.0  T
   3   -132.6102528  0.202907E-04  0.145E-02    2.74       1.0  T
   4   -132.6102761 -0.233055E-04  0.186E-03    2.74       5.9  T
   5   -132.6102763 -0.184175E-06  0.101E-03    2.74      10.8  T
   6   -132.6102763 -0.303742E-07  0.545E-04    2.74      20.0  T
   7   -132.6102763 -0.874726E-08  0.185E-04    2.74      58.9  T
     SCC iter.                  ...        0 min,  0.197 sec
     gradient                   ...        0 min,  0.133 sec
 * total energy  :  -130.4799419 Eh     change       -0.4716037E-03 Eh
   gradient norm :     0.0070263 Eh/α   predicted    -0.4083570E-03 ( -13.41%)
   displ. norm   :     0.7456327 α      lambda       -0.5058678E-03
   maximum displ.:     0.4139597 α      in ANC's #2, #1, #4, ...

........................................................................
.............................. CYCLE   30 ..............................
........................................................................
   1   -132.6116817 -0.132612E+03  0.826E-02    2.75       0.0  T
   2   -132.6116852 -0.349721E-05  0.485E-02    2.74       1.0  T
   3   -132.6116671  0.180848E-04  0.137E-02    2.75       1.0  T
   4   -132.6116879 -0.208136E-04  0.161E-03    2.75       6.8  T
   5   -132.6116881 -0.113431E-06  0.919E-04    2.75      11.9  T
   6   -132.6116881 -0.173224E-07  0.483E-04    2.74      22.6  T
     SCC iter.                  ...        0 min,  0.169 sec
     gradient                   ...        0 min,  0.135 sec
 * total energy  :  -130.4804020 Eh     change       -0.4601520E-03 Eh
   gradient norm :     0.0065581 Eh/α   predicted    -0.3935637E-03 ( -14.47%)
   displ. norm   :     0.7543297 α      lambda       -0.5099418E-03
   maximum displ.:     0.4233803 α      in ANC's #2, #1, #4, ...

........................................................................
.............................. CYCLE   31 ..............................
........................................................................
   1   -132.6132216 -0.132613E+03  0.838E-02    2.75       0.0  T
   2   -132.6132256 -0.401142E-05  0.491E-02    2.75       1.0  T
   3   -132.6132079  0.177131E-04  0.138E-02    2.75       1.0  T
   4   -132.6132283 -0.204193E-04  0.177E-03    2.75       6.2  T
   5   -132.6132285 -0.164163E-06  0.931E-04    2.75      11.7  T
   6   -132.6132285 -0.159671E-07  0.508E-04    2.75      21.5  T
     SCC iter.                  ...        0 min,  0.170 sec
     gradient                   ...        0 min,  0.096 sec
 * total energy  :  -130.4808647 Eh     change       -0.4626105E-03 Eh
   gradient norm :     0.0048480 Eh/α   predicted    -0.4000633E-03 ( -13.52%)
   displ. norm   :     0.7624418 α      lambda       -0.4971879E-03
   maximum displ.:     0.4319866 α      in ANC's #1, #2, #4, ...

........................................................................
.............................. CYCLE   32 ..............................
........................................................................
   1   -132.6142173 -0.132614E+03  0.859E-02    2.75       0.0  T
   2   -132.6142222 -0.487767E-05  0.503E-02    2.74       1.0  T
   3   -132.6142040  0.181769E-04  0.143E-02    2.75       1.0  T
   4   -132.6142250 -0.209546E-04  0.205E-03    2.74       5.3  T
   5   -132.6142252 -0.254709E-06  0.990E-04    2.74      11.0  T
   6   -132.6142252 -0.210404E-07  0.541E-04    2.74      20.2  T
     SCC iter.                  ...        0 min,  0.168 sec
     gradient                   ...        0 min,  0.132 sec
 * total energy  :  -130.4813096 Eh     change       -0.4449014E-03 Eh
   gradient norm :     0.0035820 Eh/α   predicted    -0.3931723E-03 ( -11.63%)
   displ. norm   :     0.7512182 α      lambda       -0.4468259E-03
   maximum displ.:     0.4363015 α      in ANC's #1, #2, #4, ...

........................................................................
.............................. CYCLE   33 ..............................
........................................................................
   1   -132.6144051 -0.132614E+03  0.857E-02    2.74       0.0  T
   2   -132.6144099 -0.481776E-05  0.502E-02    2.74       1.0  T
   3   -132.6143918  0.180980E-04  0.143E-02    2.74       1.0  T
   4   -132.6144126 -0.207868E-04  0.215E-03    2.74       5.1  T
   5   -132.6144129 -0.287681E-06  0.102E-03    2.74      10.7  T
   6   -132.6144129 -0.242619E-07  0.543E-04    2.74      20.1  T
   7   -132.6144129 -0.102394E-07  0.184E-04    2.74      59.2  T
     SCC iter.                  ...        0 min,  0.196 sec
     gradient                   ...        0 min,  0.138 sec
 * total energy  :  -130.4817055 Eh     change       -0.3959438E-03 Eh
   gradient norm :     0.0039467 Eh/α   predicted    -0.3494918E-03 ( -11.73%)
   displ. norm   :     0.7236375 α      lambda       -0.3871249E-03
   maximum displ.:     0.4291235 α      in ANC's #1, #2, #4, ...

........................................................................
.............................. CYCLE   34 ..............................
........................................................................
   1   -132.6142447 -0.132614E+03  0.830E-02    2.73       0.0  T
   2   -132.6142486 -0.389194E-05  0.486E-02    2.73       1.0  T
   3   -132.6142322  0.163081E-04  0.134E-02    2.73       1.0  T
   4   -132.6142509 -0.186528E-04  0.200E-03    2.73       5.5  T
   5   -132.6142511 -0.233153E-06  0.969E-04    2.73      11.3  T
   6   -132.6142512 -0.215566E-07  0.504E-04    2.73      21.6  T
     SCC iter.                  ...        0 min,  0.172 sec
     gradient                   ...        0 min,  0.133 sec
 * total energy  :  -130.4820466 Eh     change       -0.3411172E-03 Eh
   gradient norm :     0.0043314 Eh/α   predicted    -0.2949306E-03 ( -13.54%)
   displ. norm   :     0.6859645 α      lambda       -0.3343378E-03
   maximum displ.:     0.4142166 α      in ANC's #1, #2, #4, ...

........................................................................
.............................. CYCLE   35 ..............................
........................................................................
   1   -132.6139379 -0.132614E+03  0.785E-02    2.72       0.0  T
   2   -132.6139407 -0.278678E-05  0.460E-02    2.72       1.0  T
   3   -132.6139267  0.139432E-04  0.122E-02    2.72       1.0  T
   4   -132.6139425 -0.158047E-04  0.183E-03    2.72       6.0  T
   5   -132.6139427 -0.193399E-06  0.883E-04    2.72      12.4  T
   6   -132.6139428 -0.184934E-07  0.441E-04    2.72      24.7  T
     SCC iter.                  ...        0 min,  0.168 sec
     gradient                   ...        0 min,  0.142 sec
 * total energy  :  -130.4823399 Eh     change       -0.2932898E-03 Eh
   gradient norm :     0.0038045 Eh/α   predicted    -0.2458699E-03 ( -16.17%)
   displ. norm   :     0.6456561 α      lambda       -0.2930599E-03
   maximum displ.:     0.3976914 α      in ANC's #1, #2, #4, ...

........................................................................
.............................. CYCLE   36 ..............................
........................................................................
   1   -132.6145114 -0.132615E+03  0.731E-02    2.72       0.0  T
   2   -132.6145132 -0.178810E-05  0.429E-02    2.71       1.0  T
   3   -132.6145039  0.928486E-05  0.987E-03    2.71       1.1  T
   4   -132.6145144 -0.104817E-04  0.156E-03    2.71       7.0  T
   5   -132.6145145 -0.133390E-06  0.767E-04    2.71      14.2  T
   6   -132.6145145 -0.134845E-07  0.357E-04    2.71      30.6  T
     SCC iter.                  ...        0 min,  0.169 sec
     gradient                   ...        0 min,  0.129 sec
 * total energy  :  -130.4825944 Eh     change       -0.2545023E-03 Eh
   gradient norm :     0.0035630 Eh/α   predicted    -0.2076151E-03 ( -18.42%)
   displ. norm   :     0.6186627 α      lambda       -0.2620079E-03
   maximum displ.:     0.3868262 α      in ANC's #1, #2, #4, ...

........................................................................
.............................. CYCLE   37 ..............................
........................................................................
   1   -132.6133693 -0.132613E+03  0.707E-02    2.71       0.0  T
   2   -132.6133718 -0.246995E-05  0.415E-02    2.70       1.0  T
   3   -132.6133631  0.872026E-05  0.947E-03    2.70       1.2  T
   4   -132.6133727 -0.966025E-05  0.197E-03    2.70       5.6  T
   5   -132.6133730 -0.312382E-06  0.710E-04    2.70      15.4  T
   6   -132.6133731 -0.137069E-07  0.387E-04    2.70      28.2  T
     SCC iter.                  ...        0 min,  0.172 sec
     gradient                   ...        0 min,  0.143 sec
 * total energy  :  -130.4828198 Eh     change       -0.2253490E-03 Eh
   gradient norm :     0.0041607 Eh/α   predicted    -0.1811460E-03 ( -19.62%)
   displ. norm   :     0.6039201 α      lambda       -0.2706373E-03
   maximum displ.:     0.3856040 α      in ANC's #1, #2, #5, ...

........................................................................
.............................. CYCLE   38 ..............................
........................................................................
   1   -132.6178950 -0.132618E+03  0.680E-02    2.71       0.0  T
   2   -132.6178967 -0.176507E-05  0.399E-02    2.71       1.0  T
   3   -132.6178938  0.294478E-05  0.624E-03    2.71       1.7  T
   4   -132.6178972 -0.344720E-05  0.151E-03    2.71       7.2  T
   5   -132.6178974 -0.136966E-06  0.717E-04    2.71      15.2  T
   6   -132.6178974 -0.147989E-07  0.351E-04    2.71      31.1  T
     SCC iter.                  ...        0 min,  0.168 sec
     gradient                   ...        0 min,  0.136 sec
 * total energy  :  -130.4830354 Eh     change       -0.2156320E-03 Eh
   gradient norm :     0.0056884 Eh/α   predicted    -0.1846756E-03 ( -14.36%)
   displ. norm   :     0.6383894 α      lambda       -0.2814541E-03
   maximum displ.:     0.4104560 α      in ANC's #1, #2, #5, ...

........................................................................
.............................. CYCLE   39 ..............................
........................................................................
   1   -132.6143038 -0.132614E+03  0.762E-02    2.70       0.0  T
   2   -132.6143080 -0.415634E-05  0.447E-02    2.70       1.0  T
   3   -132.6143011  0.690641E-05  0.871E-03    2.70       1.3  T
   4   -132.6143086 -0.747443E-05  0.268E-03    2.70       4.1  T
   5   -132.6143092 -0.679788E-06  0.771E-04    2.70      14.1  T
   6   -132.6143093 -0.140060E-07  0.410E-04    2.70      26.6  T
     SCC iter.                  ...        0 min,  0.168 sec
     gradient                   ...        0 min,  0.126 sec
 * total energy  :  -130.4832691 Eh     change       -0.2336648E-03 Eh
   gradient norm :     0.0053536 Eh/α   predicted    -0.1980851E-03 ( -15.23%)
   displ. norm   :     0.5715421 α      lambda       -0.2697987E-03
   maximum displ.:     0.3724867 α      in ANC's #1, #2, #5, ...

........................................................................
.............................. CYCLE   40 ..............................
........................................................................
   1   -132.6161890 -0.132616E+03  0.689E-02    2.70       0.0  T
   2   -132.6161926 -0.359970E-05  0.403E-02    2.70       1.0  T
   3   -132.6161873  0.527747E-05  0.791E-03    2.70       1.4  T
   4   -132.6161934 -0.605413E-05  0.207E-03    2.69       5.3  T
   5   -132.6161937 -0.343697E-06  0.784E-04    2.69      13.9  T
   6   -132.6161937 -0.145749E-07  0.431E-04    2.69      25.3  T
     SCC iter.                  ...        0 min,  0.170 sec
     gradient                   ...        0 min,  0.156 sec
 * total energy  :  -130.4834949 Eh     change       -0.2258600E-03 Eh
   gradient norm :     0.0061974 Eh/α   predicted    -0.1789719E-03 ( -20.76%)
   displ. norm   :     0.6302642 α      lambda       -0.2979261E-03
   maximum displ.:     0.4088262 α      in ANC's #1, #2, #5, ...

........................................................................
.............................. CYCLE   41 ..............................
........................................................................
   1   -132.6141250 -0.132614E+03  0.809E-02    2.69       0.0  T
   2   -132.6141287 -0.372880E-05  0.474E-02    2.69       1.0  T
   3   -132.6141221  0.669518E-05  0.887E-03    2.69       1.2  T
   4   -132.6141300 -0.796980E-05  0.178E-03    2.69       6.1  T
   5   -132.6141302 -0.174053E-06  0.858E-04    2.69      12.7  T
   6   -132.6141302 -0.489649E-08  0.485E-04    2.69      22.5  T
     SCC iter.                  ...        0 min,  0.169 sec
     gradient                   ...        0 min,  0.138 sec
 * total energy  :  -130.4837115 Eh     change       -0.2166076E-03 Eh
   gradient norm :     0.0041129 Eh/α   predicted    -0.2081475E-03 (  -3.91%)
   displ. norm   :     0.5194600 α      lambda       -0.2194956E-03
   maximum displ.:     0.3364713 α      in ANC's #1, #2, #5, ...

........................................................................
.............................. CYCLE   42 ..............................
........................................................................
   1   -132.6178314 -0.132618E+03  0.662E-02    2.69       0.0  T
   2   -132.6178352 -0.378853E-05  0.387E-02    2.69       1.0  T
   3   -132.6178279  0.728953E-05  0.927E-03    2.69       1.2  T
   4   -132.6178365 -0.858267E-05  0.177E-03    2.69       6.2  T
   5   -132.6178367 -0.204518E-06  0.790E-04    2.69      13.8  T
   6   -132.6178367 -0.994982E-08  0.465E-04    2.69      23.5  T
     SCC iter.                  ...        0 min,  0.168 sec
     gradient                   ...        0 min,  0.143 sec
 * total energy  :  -130.4838610 Eh     change       -0.1494350E-03 Eh
   gradient norm :     0.0044605 Eh/α   predicted    -0.1393682E-03 (  -6.74%)
   displ. norm   :     0.4843004 α      lambda       -0.1244100E-03
   maximum displ.:     0.3248054 α      in ANC's #1, #2, #5, ...
 * RMSD in coord.:     1.3474432 α      energy gain  -0.7528605E-02 Eh

generating ANC from model Hessian ...
Using Lindh-Hessian (1995)
 Shifting diagonal of input Hessian by    9.8995893106620641E-003
 Lowest  eigenvalues of input Hessian
    0.000000    0.000000    0.000000    0.000000    0.000000    0.000000
    0.010000    0.010141    0.010170    0.010249    0.010272    0.010348
    0.010361    0.010520    0.010689    0.011075    0.011191    0.011235
 Highest eigenvalues
    2.038990    2.109559    2.110070    2.331107    2.341978    2.384339


........................................................................
.............................. CYCLE   43 ..............................
........................................................................
   1   -132.6161760 -0.132616E+03  0.561E-02    2.69       0.0  T
   2   -132.6161772 -0.126429E-05  0.328E-02    2.69       1.0  T
   3   -132.6161739  0.331445E-05  0.590E-03    2.68       1.8  T
   4   -132.6161777 -0.379906E-05  0.130E-03    2.68       8.4  T
   5   -132.6161778 -0.112761E-06  0.564E-04    2.68      19.3  T
   6   -132.6161778 -0.450569E-08  0.302E-04    2.68      36.2  T
     SCC iter.                  ...        0 min,  0.169 sec
     gradient                   ...        0 min,  0.145 sec
 * total energy  :  -130.4839599 Eh     change       -0.9893218E-04 Eh
   gradient norm :     0.0040852 Eh/α   predicted     0.0000000E+00 (-100.00%)
   displ. norm   :     0.0481356 α      lambda       -0.5458447E-04
   maximum displ.:     0.0230963 α      in ANC's #12, #1, #10, ...

........................................................................
.............................. CYCLE   44 ..............................
........................................................................
   1   -132.6177283 -0.132618E+03  0.110E-02    2.69       0.0  T
   2   -132.6177285 -0.215281E-06  0.644E-03    2.69       1.7  T
   3   -132.6177284  0.998006E-07  0.148E-03    2.69       7.4  T
   4   -132.6177286 -0.121042E-06  0.426E-04    2.69      25.6  T
   5   -132.6177286 -0.133089E-07  0.156E-04    2.69      69.9  T
     SCC iter.                  ...        0 min,  0.140 sec
     gradient                   ...        0 min,  0.137 sec
 * total energy  :  -130.4840043 Eh     change       -0.4438176E-04 Eh
   gradient norm :     0.0019961 Eh/α   predicted    -0.2736424E-04 ( -38.34%)
   displ. norm   :     0.2107067 α      lambda       -0.9212667E-04
   maximum displ.:     0.1089349 α      in ANC's #12, #1, #10, ...

........................................................................
.............................. CYCLE   45 ..............................
........................................................................
   1   -132.6201807 -0.132620E+03  0.404E-02    2.69       0.0  T
   2   -132.6201831 -0.241055E-05  0.236E-02    2.69       1.0  T
   3   -132.6201821  0.100823E-05  0.443E-03    2.69       2.5  T
   4   -132.6201833 -0.115710E-05  0.158E-03    2.69       6.9  T
   5   -132.6201835 -0.218323E-06  0.570E-04    2.69      19.2  T
   6   -132.6201835 -0.758652E-08  0.311E-04    2.69      35.1  T
     SCC iter.                  ...        0 min,  0.175 sec
     gradient                   ...        0 min,  0.140 sec
 * total energy  :  -130.4840732 Eh     change       -0.6890242E-04 Eh
   gradient norm :     0.0041079 Eh/α   predicted    -0.4698980E-04 ( -31.80%)
   displ. norm   :     0.0609082 α      lambda       -0.3118390E-04
   maximum displ.:     0.0313741 α      in ANC's #12, #1, #10, ...

........................................................................
.............................. CYCLE   46 ..............................
........................................................................
   1   -132.6194062 -0.132619E+03  0.969E-03    2.69       0.0  T
   2   -132.6194063 -0.661238E-07  0.571E-03    2.69       1.9  T
   3   -132.6194061  0.159490E-06  0.147E-03    2.69       7.4  T
   4   -132.6194063 -0.187585E-06  0.286E-04    2.69      38.2  T
   5   -132.6194063 -0.361641E-08  0.153E-04    2.69      71.4  T
     SCC iter.                  ...        0 min,  0.145 sec
     gradient                   ...        0 min,  0.139 sec
 * total energy  :  -130.4841014 Eh     change       -0.2820722E-04 Eh
   gradient norm :     0.0032325 Eh/α   predicted    -0.1565508E-04 ( -44.50%)
   displ. norm   :     0.2120327 α      lambda       -0.9167416E-04
   maximum displ.:     0.1031389 α      in ANC's #12, #1, #10, ...

........................................................................
.............................. CYCLE   47 ..............................
........................................................................
   1   -132.6169638 -0.132617E+03  0.328E-02    2.69       0.0  T
   2   -132.6169644 -0.630864E-06  0.193E-02    2.69       1.0  T
   3   -132.6169629  0.152107E-05  0.452E-03    2.69       2.4  T
   4   -132.6169647 -0.181219E-05  0.843E-04    2.69      12.9  T
   5   -132.6169647 -0.232351E-07  0.482E-04    2.69      22.6  T
   6   -132.6169647 -0.735167E-08  0.206E-04    2.69      53.0  T
     SCC iter.                  ...        0 min,  0.168 sec
     gradient                   ...        0 min,  0.122 sec
 * total energy  :  -130.4841643 Eh     change       -0.6287456E-04 Eh
   gradient norm :     0.0013603 Eh/α   predicted    -0.4792101E-04 ( -23.78%)
   displ. norm   :     0.2511728 α      lambda       -0.3536663E-04
   maximum displ.:     0.1287903 α      in ANC's #1, #12, #4, ...

........................................................................
.............................. CYCLE   48 ..............................
........................................................................
   1   -132.6155245 -0.132616E+03  0.371E-02    2.69       0.0  T
   2   -132.6155251 -0.540100E-06  0.218E-02    2.69       1.0  T
   3   -132.6155237  0.133580E-05  0.407E-03    2.69       2.7  T
   4   -132.6155253 -0.159866E-05  0.864E-04    2.69      12.6  T
   5   -132.6155253 -0.213006E-07  0.507E-04    2.69      21.5  T
   6   -132.6155253 -0.897333E-08  0.185E-04    2.69      59.0  T
     SCC iter.                  ...        0 min,  0.169 sec
     gradient                   ...        0 min,  0.145 sec
 * total energy  :  -130.4841984 Eh     change       -0.3409768E-04 Eh
   gradient norm :     0.0025568 Eh/α   predicted    -0.1818511E-04 ( -46.67%)
   displ. norm   :     0.0928602 α      lambda       -0.2387457E-04
   maximum displ.:     0.0540686 α      in ANC's #1, #12, #4, ...

........................................................................
.............................. CYCLE   49 ..............................
........................................................................
   1   -132.6162148 -0.132616E+03  0.132E-02    2.69       0.0  T
   2   -132.6162148 -0.492005E-07  0.777E-03    2.69       1.4  T
   3   -132.6162147  0.882046E-07  0.107E-03    2.69      10.2  T
   4   -132.6162148 -0.108629E-06  0.253E-04    2.69      43.2  T
   5   -132.6162149 -0.220254E-08  0.135E-04    2.69      81.1  T
     SCC iter.                  ...        0 min,  0.142 sec
     gradient                   ...        0 min,  0.125 sec
 * total energy  :  -130.4842202 Eh     change       -0.2181271E-04 Eh
   gradient norm :     0.0020347 Eh/α   predicted    -0.1204740E-04 ( -44.77%)
   displ. norm   :     0.1849464 α      lambda       -0.5481628E-04
   maximum displ.:     0.1104535 α      in ANC's #1, #4, #5, ...

........................................................................
.............................. CYCLE   50 ..............................
........................................................................
   1   -132.6179793 -0.132618E+03  0.265E-02    2.70       0.0  T
   2   -132.6179795 -0.237939E-06  0.156E-02    2.69       1.0  T
   3   -132.6179788  0.773291E-06  0.306E-03    2.69       3.6  T
   4   -132.6179796 -0.873927E-06  0.584E-04    2.69      18.7  T
   5   -132.6179797 -0.214797E-07  0.263E-04    2.69      41.4  T
     SCC iter.                  ...        0 min,  0.140 sec
     gradient                   ...        0 min,  0.143 sec
 * total energy  :  -130.4842640 Eh     change       -0.4378170E-04 Eh
   gradient norm :     0.0011012 Eh/α   predicted    -0.2834602E-04 ( -35.26%)
   displ. norm   :     0.3377163 α      lambda       -0.4573812E-04
   maximum displ.:     0.2059031 α      in ANC's #1, #4, #5, ...

........................................................................
.............................. CYCLE   51 ..............................
........................................................................
   1   -132.6194359 -0.132619E+03  0.464E-02    2.70       0.0  T
   2   -132.6194367 -0.726255E-06  0.273E-02    2.69       1.0  T
   3   -132.6194337  0.292301E-05  0.572E-03    2.69       1.9  T
   4   -132.6194370 -0.324977E-05  0.108E-03    2.69      10.1  T
   5   -132.6194371 -0.820250E-07  0.451E-04    2.69      24.2  T
   6   -132.6194371 -0.424942E-08  0.241E-04    2.69      45.2  T
     SCC iter.                  ...        0 min,  0.168 sec
     gradient                   ...        0 min,  0.039 sec
 * total energy  :  -130.4843111 Eh     change       -0.4714140E-04 Eh
   gradient norm :     0.0021756 Eh/α   predicted    -0.2403083E-04 ( -49.02%)
   displ. norm   :     0.1304035 α      lambda       -0.2304736E-04
   maximum displ.:     0.0833495 α      in ANC's #1, #4, #5, ...

........................................................................
.............................. CYCLE   52 ..............................
........................................................................
   1   -132.6194273 -0.132619E+03  0.167E-02    2.69       0.0  T
   2   -132.6194274 -0.837490E-07  0.980E-03    2.69       1.1  T
   3   -132.6194269  0.474343E-06  0.220E-03    2.69       5.0  T
   4   -132.6194274 -0.523866E-06  0.379E-04    2.69      28.8  T
   5   -132.6194274 -0.928864E-08  0.166E-04    2.69      65.7  T
     SCC iter.                  ...        0 min,  0.145 sec
     gradient                   ...        0 min,  0.150 sec
 * total energy  :  -130.4843324 Eh     change       -0.2133462E-04 Eh
   gradient norm :     0.0018330 Eh/α   predicted    -0.1171973E-04 ( -45.07%)
   displ. norm   :     0.2419685 α      lambda       -0.3764478E-04
   maximum displ.:     0.1579515 α      in ANC's #1, #4, #5, ...

........................................................................
.............................. CYCLE   53 ..............................
........................................................................
   1   -132.6188554 -0.132619E+03  0.295E-02    2.69       0.0  T
   2   -132.6188557 -0.295826E-06  0.173E-02    2.69       1.0  T
   3   -132.6188537  0.202292E-05  0.453E-03    2.69       2.4  T
   4   -132.6188559 -0.224578E-05  0.706E-04    2.69      15.5  T
   5   -132.6188559 -0.276942E-07  0.344E-04    2.69      31.8  T
   6   -132.6188559 -0.318221E-08  0.156E-04    2.69      70.0  T
     SCC iter.                  ...        0 min,  0.170 sec
     gradient                   ...        0 min,  0.138 sec
 * total energy  :  -130.4843785 Eh     change       -0.4607013E-04 Eh
   gradient norm :     0.0007772 Eh/α   predicted    -0.1931267E-04 ( -58.08%)
   displ. norm   :     0.2579879 α      lambda       -0.3215549E-04
   maximum displ.:     0.1722454 α      in ANC's #1, #4, #5, ...

........................................................................
.............................. CYCLE   54 ..............................
........................................................................
   1   -132.6178543 -0.132618E+03  0.297E-02    2.69       0.0  T
   2   -132.6178546 -0.304108E-06  0.175E-02    2.68       1.0  T
   3   -132.6178528  0.179328E-05  0.431E-03    2.68       2.5  T
   4   -132.6178548 -0.200599E-05  0.727E-04    2.68      15.0  T
   5   -132.6178548 -0.275387E-07  0.368E-04    2.68      29.6  T
   6   -132.6178548 -0.324894E-08  0.157E-04    2.68      69.7  T
     SCC iter.                  ...        0 min,  0.168 sec
     gradient                   ...        0 min,  0.145 sec
 * total energy  :  -130.4844171 Eh     change       -0.3858188E-04 Eh
   gradient norm :     0.0014881 Eh/α   predicted    -0.1655849E-04 ( -57.08%)
   displ. norm   :     0.2239151 α      lambda       -0.2548656E-04
   maximum displ.:     0.1538492 α      in ANC's #1, #4, #5, ...

........................................................................
.............................. CYCLE   55 ..............................
........................................................................
   1   -132.6177479 -0.132618E+03  0.246E-02    2.68       0.0  T
   2   -132.6177481 -0.235166E-06  0.145E-02    2.68       1.0  T
   3   -132.6177473  0.882036E-06  0.309E-03    2.68       3.5  T
   4   -132.6177483 -0.101139E-05  0.595E-04    2.68      18.3  T
   5   -132.6177483 -0.157310E-07  0.326E-04    2.68      33.5  T
   6   -132.6177483 -0.282213E-08  0.138E-04    2.68      79.1  T
     SCC iter.                  ...        0 min,  0.174 sec
     gradient                   ...        0 min,  0.139 sec
 * total energy  :  -130.4844496 Eh     change       -0.3251910E-04 Eh
   gradient norm :     0.0016913 Eh/α   predicted    -0.1303055E-04 ( -59.93%)
   displ. norm   :     0.2401765 α      lambda       -0.2771297E-04
   maximum displ.:     0.1667986 α      in ANC's #1, #4, #5, ...

........................................................................
.............................. CYCLE   56 ..............................
........................................................................
   1   -132.6175344 -0.132618E+03  0.253E-02    2.68       0.0  T
   2   -132.6175347 -0.276073E-06  0.149E-02    2.68       1.0  T
   3   -132.6175341  0.640608E-06  0.276E-03    2.68       4.0  T
   4   -132.6175348 -0.762767E-06  0.550E-04    2.68      19.8  T
   5   -132.6175348 -0.100163E-07  0.317E-04    2.68      34.4  T
     SCC iter.                  ...        0 min,  0.141 sec
     gradient                   ...        0 min,  0.138 sec
 * total energy  :  -130.4844856 Eh     change       -0.3597803E-04 Eh
   gradient norm :     0.0016540 Eh/α   predicted    -0.1421567E-04 ( -60.49%)
   displ. norm   :     0.2937898 α      lambda       -0.3564732E-04
   maximum displ.:     0.2083734 α      in ANC's #1, #4, #5, ...

........................................................................
.............................. CYCLE   57 ..............................
........................................................................
   1   -132.6177440 -0.132618E+03  0.293E-02    2.68       0.0  T
   2   -132.6177445 -0.475648E-06  0.173E-02    2.68       1.0  T
   3   -132.6177437  0.855436E-06  0.331E-03    2.68       3.3  T
   4   -132.6177447 -0.103591E-05  0.626E-04    2.68      17.4  T
   5   -132.6177447 -0.143182E-07  0.325E-04    2.68      33.5  T
   6   -132.6177447 -0.724071E-09  0.131E-04    2.68      83.0  T
     SCC iter.                  ...        0 min,  0.169 sec
     gradient                   ...        0 min,  0.129 sec
 * total energy  :  -130.4845297 Eh     change       -0.4415308E-04 Eh
   gradient norm :     0.0010078 Eh/α   predicted    -0.1850833E-04 ( -58.08%)
   displ. norm   :     0.3607529 α      lambda       -0.3700884E-04
   maximum displ.:     0.2550626 α      in ANC's #1, #4, #5, ...

........................................................................
.............................. CYCLE   58 ..............................
........................................................................
   1   -132.6171515 -0.132617E+03  0.335E-02    2.68       0.0  T
   2   -132.6171521 -0.582990E-06  0.197E-02    2.68       1.0  T
   3   -132.6171511  0.997103E-06  0.361E-03    2.68       3.0  T
   4   -132.6171523 -0.120734E-05  0.744E-04    2.68      14.7  T
   5   -132.6171523 -0.192308E-07  0.391E-04    2.68      27.9  T
   6   -132.6171523 -0.628148E-09  0.180E-04    2.68      60.5  T
     SCC iter.                  ...        0 min,  0.167 sec
     gradient                   ...        0 min,  0.135 sec
 * total energy  :  -130.4845710 Eh     change       -0.4125347E-04 Eh
   gradient norm :     0.0024271 Eh/α   predicted    -0.1957693E-04 ( -52.54%)
   displ. norm   :     0.2084353 α      lambda       -0.3822091E-04
   maximum displ.:     0.1527357 α      in ANC's #1, #4, #9, ...

........................................................................
.............................. CYCLE   59 ..............................
........................................................................
   1   -132.6177628 -0.132618E+03  0.179E-02    2.68       0.0  T
   2   -132.6177630 -0.206180E-06  0.105E-02    2.68       1.0  T
   3   -132.6177627  0.287784E-06  0.199E-03    2.68       5.5  T
   4   -132.6177630 -0.351147E-06  0.439E-04    2.68      24.8  T
   5   -132.6177630 -0.780020E-08  0.229E-04    2.68      47.6  T
     SCC iter.                  ...        0 min,  0.142 sec
     gradient                   ...        0 min,  0.126 sec
 * total energy  :  -130.4846027 Eh     change       -0.3168962E-04 Eh
   gradient norm :     0.0014196 Eh/α   predicted    -0.1994138E-04 ( -37.07%)
   displ. norm   :     0.4203002 α      lambda       -0.4204887E-04
   maximum displ.:     0.3078454 α      in ANC's #1, #4, #9, ...

........................................................................
.............................. CYCLE   60 ..............................
........................................................................
   1   -132.6179678 -0.132618E+03  0.350E-02    2.68       0.0  T
   2   -132.6179683 -0.455231E-06  0.206E-02    2.68       1.0  T
   3   -132.6179670  0.130674E-05  0.397E-03    2.68       2.7  T
   4   -132.6179685 -0.155528E-05  0.740E-04    2.68      14.7  T
   5   -132.6179685 -0.925951E-08  0.464E-04    2.68      23.5  T
   6   -132.6179685 -0.640418E-08  0.180E-04    2.68      60.6  T
     SCC iter.                  ...        0 min,  0.169 sec
     gradient                   ...        0 min,  0.130 sec
 * total energy  :  -130.4846521 Eh     change       -0.4939857E-04 Eh
   gradient norm :     0.0014403 Eh/α   predicted    -0.2267804E-04 ( -54.09%)
   displ. norm   :     0.3515645 α      lambda       -0.3194392E-04
   maximum displ.:     0.2612330 α      in ANC's #1, #9, #4, ...

........................................................................
.............................. CYCLE   61 ..............................
........................................................................
   1   -132.6179832 -0.132618E+03  0.298E-02    2.68       0.0  T
   2   -132.6179835 -0.361750E-06  0.176E-02    2.67       1.0  T
   3   -132.6179823  0.128897E-05  0.376E-03    2.68       2.9  T
   4   -132.6179837 -0.146953E-05  0.761E-04    2.67      14.3  T
   5   -132.6179838 -0.279355E-07  0.417E-04    2.67      26.2  T
   6   -132.6179838 -0.487344E-08  0.183E-04    2.67      59.5  T
     SCC iter.                  ...        0 min,  0.173 sec
     gradient                   ...        0 min,  0.128 sec
 * total energy  :  -130.4846901 Eh     change       -0.3807444E-04 Eh
   gradient norm :     0.0014379 Eh/α   predicted    -0.1684971E-04 ( -55.75%)
   displ. norm   :     0.3100427 α      lambda       -0.2984026E-04
   maximum displ.:     0.2345109 α      in ANC's #1, #9, #10, ...

........................................................................
.............................. CYCLE   62 ..............................
........................................................................
   1   -132.6186227 -0.132619E+03  0.286E-02    2.67       0.0  T
   2   -132.6186232 -0.547226E-06  0.168E-02    2.67       1.0  T
   3   -132.6186218  0.139732E-05  0.394E-03    2.67       2.8  T
   4   -132.6186234 -0.156316E-05  0.972E-04    2.67      11.2  T
   5   -132.6186235 -0.681939E-07  0.423E-04    2.67      25.8  T
   6   -132.6186235 -0.421110E-08  0.217E-04    2.67      50.2  T
     SCC iter.                  ...        0 min,  0.168 sec
     gradient                   ...        0 min,  0.134 sec
 * total energy  :  -130.4847224 Eh     change       -0.3230475E-04 Eh
   gradient norm :     0.0007359 Eh/α   predicted    -0.1555936E-04 ( -51.84%)
   displ. norm   :     0.3133184 α      lambda       -0.2086136E-04
   maximum displ.:     0.2392928 α      in ANC's #1, #9, #4, ...

........................................................................
.............................. CYCLE   63 ..............................
........................................................................
   1   -132.6173867 -0.132617E+03  0.276E-02    2.67       0.0  T
   2   -132.6173874 -0.664965E-06  0.162E-02    2.67       1.0  T
   3   -132.6173863  0.109935E-05  0.366E-03    2.67       3.0  T
   4   -132.6173875 -0.122209E-05  0.105E-03    2.67      10.4  T
   5   -132.6173876 -0.867491E-07  0.429E-04    2.67      25.5  T
   6   -132.6173876 -0.411086E-08  0.231E-04    2.67      47.2  T
     SCC iter.                  ...        0 min,  0.165 sec
     gradient                   ...        0 min,  0.139 sec
 * total energy  :  -130.4847409 Eh     change       -0.1846851E-04 Eh
   gradient norm :     0.0022741 Eh/α   predicted    -0.1088640E-04 ( -41.05%)
   displ. norm   :     0.0991907 α      lambda       -0.1970117E-04
   maximum displ.:     0.0776545 α      in ANC's #1, #9, #10, ...

........................................................................
.............................. CYCLE   64 ..............................
........................................................................
   1   -132.6183030 -0.132618E+03  0.110E-02    2.67       0.0  T
   2   -132.6183032 -0.208316E-06  0.637E-03    2.67       1.7  T
   3   -132.6183031  0.114897E-06  0.148E-03    2.67       7.4  T
   4   -132.6183032 -0.137162E-06  0.473E-04    2.67      23.1  T
   5   -132.6183033 -0.180400E-07  0.190E-04    2.67      57.5  T
[...]
     7   6 C        2.921    -0.034    28.847     8.808
     8   6 C        2.914    -0.027    28.683     8.782
     9   6 C        2.925    -0.029    28.727     8.790
    10   6 C        2.966     0.009    27.808     8.650
    11   6 C        3.831     0.052    19.684     6.313
    12   6 C        3.826     0.048    19.748     6.323
    13   6 C        2.968     0.005    27.903     8.664
    14   6 C        2.922    -0.031    28.764     8.795
    15   6 C        2.914    -0.029    28.735     8.790
    16   6 C        2.920    -0.036    28.889     8.814
    17   6 C        2.988     0.016    27.637     8.624
    18   6 C        2.984     0.011    27.754     8.642
    19   6 C        2.917    -0.033    28.832     8.805
    20   6 C        2.917    -0.028    28.697     8.785
    21   6 C        2.915    -0.029    28.717     8.787
    22   6 C        2.921    -0.034    28.849     8.808
    23   7 N        2.765    -0.126    23.727     7.235
    24   6 C        2.766     0.273    22.386     7.748
    25   6 C        2.974    -0.025    28.629     8.777
    26   6 C        2.929    -0.038    28.947     8.823
    27   6 C        2.964     0.017    27.618     8.620
    28   6 C        3.758    -0.112    22.691     6.791
    29   6 C        2.931    -0.050    29.242     8.868
    30   6 C        2.964     0.020    27.549     8.609
    31   6 C        3.758    -0.110    22.660     6.787
    32   6 C        2.928    -0.044    29.099     8.846
    33   8 O        0.859    -0.409    21.867     6.270
    34   6 C        3.753     0.095    19.064     6.226
    35   6 C        2.688     0.354    20.989     7.498
    36   8 O        1.659    -0.368    20.242     6.074
    37   8 O        0.856    -0.385    21.376     6.199
    38   7 N        2.764    -0.120    23.608     7.216
    39   6 C        2.762     0.275    22.357     7.743
    40   6 C        2.976    -0.025    28.616     8.775
    41   6 C        2.927    -0.042    29.056     8.840
    42   6 C        2.965     0.021    27.540     8.608
    43   6 C        3.758    -0.112    22.685     6.790
    44   6 C        2.930    -0.053    29.307     8.878
    45   6 C        2.965     0.018    27.614     8.619
    46   6 C        3.758    -0.111    22.684     6.790
    47   6 C        2.930    -0.040    28.997     8.831
    48   8 O        0.859    -0.410    21.886     6.272
    49   1 H        0.926     0.032     2.563     2.504
    50   1 H        0.926     0.030     2.592     2.518
    51   1 H        0.926     0.033     2.542     2.493
    52   1 H        0.926     0.044     2.397     2.421
    53   1 H        0.926     0.035     2.510     2.478
    54   1 H        0.926     0.035     2.515     2.480
    55   1 H        0.926     0.029     2.596     2.519
    56   1 H        0.923     0.043     2.405     2.425
    57   1 H        0.924     0.065     2.136     2.286
    58   1 H        0.926     0.026     2.642     2.542
    59   1 H        0.926     0.034     2.535     2.490
    60   1 H        0.926     0.036     2.505     2.475
    61   1 H        0.926     0.031     2.575     2.510
    62   1 H        0.926     0.033     2.549     2.497
    63   1 H        0.926     0.033     2.543     2.494
    64   1 H        0.926     0.034     2.525     2.485
    65   1 H        0.926     0.047     2.352     2.398
    66   1 H        0.925     0.055     2.256     2.349
    67   1 H        0.925     0.044     2.402     2.423
    68   1 H        0.925     0.048     2.348     2.396
    69   1 H        0.925     0.036     2.507     2.476
    70   1 H        0.925     0.045     2.383     2.414
    71   1 H        0.924     0.053     2.281     2.362
    72   1 H        0.925     0.045     2.388     2.417
    73   1 H        0.926     0.028     2.619     2.531
    74   1 H        0.923     0.054     2.267     2.354
    75   1 H        0.804     0.345     0.599     1.216
    76   1 H        0.926     0.031     2.573     2.508
    77   1 H        0.925     0.046     2.373     2.409
    78   1 H        0.925     0.049     2.330     2.387
    79   1 H        0.924     0.050     2.318     2.381
    80   1 H        0.925     0.034     2.527     2.486
    81   1 H        0.925     0.054     2.271     2.357
    82   1 H        0.925     0.051     2.306     2.375
    83   1 H        0.925     0.043     2.412     2.429
    84   1 H        0.926     0.043     2.406     2.426

 Mol. C6AA /au·bohr⁶  :      90183.474131
 Mol. C8AA /au·bohr⁸  :    2211078.323511
 Mol. α(0) /au        :        475.084003


Wiberg/Mayer (AO) data.
largest (>0.10) Wiberg bond orders for each atom

 ---------------------------------------------------------------------------
     #   Z sym  total        # sym  WBO       # sym  WBO       # sym  WBO
 ---------------------------------------------------------------------------
     1   6 C    3.991 --     2 C    1.555     6 C    1.281    49 H    0.968
                             4 C    0.118
     2   6 C    3.992 --     1 C    1.555     3 C    1.325    50 H    0.971
     3   6 C    3.992 --     4 C    1.551     2 C    1.325    51 H    0.971
     4   6 C    3.991 --     3 C    1.551     5 C    1.286    52 H    0.960
                             1 C    0.118
     5   6 C    3.989 --     4 C    1.286     6 C    1.252    10 C    1.250
     6   6 C    3.990 --     1 C    1.281     7 C    1.278     5 C    1.252
     7   6 C    3.990 --     8 C    1.553     6 C    1.278    53 H    0.968
                            10 C    0.114
     8   6 C    3.992 --     7 C    1.553     9 C    1.327    54 H    0.970
     9   6 C    3.989 --    10 C    1.520     8 C    1.327    55 H    0.967
    10   6 C    3.983 --     9 C    1.520     5 C    1.250    11 C    0.995
                             7 C    0.114
    11   6 C    3.961 --    10 C    0.995    56 H    0.952    38 N    0.950
                            12 C    0.949
    12   6 C    3.960 --    13 C    0.991    23 N    0.955    11 C    0.949
                            57 H    0.945
    13   6 C    3.984 --    14 C    1.524    18 C    1.252    12 C    0.991
                            16 C    0.114
    14   6 C    3.990 --    13 C    1.524    15 C    1.327    58 H    0.967
    15   6 C    3.992 --    16 C    1.553    14 C    1.327    59 H    0.970
    16   6 C    3.990 --    15 C    1.553    17 C    1.279    60 H    0.968
                            13 C    0.114
    17   6 C    3.990 --    16 C    1.279    22 C    1.279    18 C    1.253
    18   6 C    3.989 --    19 C    1.284    17 C    1.253    13 C    1.252
    19   6 C    3.992 --    20 C    1.554    18 C    1.284    61 H    0.961
                            22 C    0.119
    20   6 C    3.992 --    19 C    1.554    21 C    1.323    62 H    0.971
    21   6 C    3.992 --    22 C    1.557    20 C    1.323    63 H    0.971
    22   6 C    3.991 --    21 C    1.557    17 C    1.279    64 H    0.968
                            19 C    0.119
    23   7 N    3.435 --    24 C    1.183    34 C    0.983    12 C    0.955
                            33 O    0.185
    24   6 C    3.944 --    33 O    1.709    23 N    1.183    25 C    0.968
    25   6 C    3.987 --    26 C    1.404    32 C    1.400    24 C    0.968
                            29 C    0.103
    26   6 C    3.989 --    27 C    1.410    25 C    1.404    65 H    0.968
                            30 C    0.104
    27   6 C    3.988 --    29 C    1.414    26 C    1.410    28 C    1.026
                            32 C    0.105
    28   6 C    3.995 --    27 C    1.026    67 H    0.983    68 H    0.980
                            66 H    0.966
    29   6 C    3.990 --    27 C    1.414    30 C    1.411    69 H    0.967
                            25 C    0.103
    30   6 C    3.989 --    32 C    1.414    29 C    1.411    31 C    1.025
                            26 C    0.104
    31   6 C    3.995 --    30 C    1.025    70 H    0.983    72 H    0.980
                            71 H    0.967
    32   6 C    3.990 --    30 C    1.414    25 C    1.400    73 H    0.967
                            27 C    0.105
    33   8 O    2.033 --    24 C    1.709    23 N    0.185
    34   6 C    3.973 --    38 N    0.983    23 N    0.983    74 H    0.944
                            35 C    0.913
    35   6 C    3.919 --    37 O    1.771    36 O    1.151    34 C    0.913
    36   8 O    2.215 --    35 C    1.151    75 H    0.853    37 O    0.179
    37   8 O    2.063 --    35 C    1.771    36 O    0.179
    38   7 N    3.450 --    39 C    1.198    34 C    0.983    11 C    0.950
                            48 O    0.191
    39   6 C    3.943 --    48 O    1.708    38 N    1.198    40 C    0.954
    40   6 C    3.986 --    41 C    1.407    47 C    1.406    39 C    0.954
                            44 C    0.102
    41   6 C    3.990 --    42 C    1.411    40 C    1.407    76 H    0.969
                            45 C    0.106
    42   6 C    3.988 --    41 C    1.411    44 C    1.410    43 C    1.026
                            47 C    0.106
    43   6 C    3.995 --    42 C    1.026    77 H    0.984    78 H    0.978
                            79 H    0.968
    44   6 C    3.989 --    45 C    1.418    42 C    1.410    80 H    0.967
                            40 C    0.102
    45   6 C    3.988 --    44 C    1.418    47 C    1.404    46 C    1.026
                            41 C    0.106
    46   6 C    3.994 --    45 C    1.026    83 H    0.985    82 H    0.973
                            81 H    0.970
    47   6 C    3.989 --    40 C    1.406    45 C    1.404    84 H    0.968
                            42 C    0.106
    48   8 O    2.036 --    39 C    1.708    38 N    0.191
    49   1 H    0.998 --     1 C    0.968
    50   1 H    0.998 --     2 C    0.971
    51   1 H    0.998 --     3 C    0.971
    52   1 H    0.998 --     4 C    0.960
    53   1 H    0.998 --     7 C    0.968
    54   1 H    0.998 --     8 C    0.970
    55   1 H    0.999 --     9 C    0.967
    56   1 H    0.998 --    11 C    0.952
    57   1 H    0.995 --    12 C    0.945
    58   1 H    0.999 --    14 C    0.967
    59   1 H    0.998 --    15 C    0.970
    60   1 H    0.998 --    16 C    0.968
    61   1 H    0.999 --    19 C    0.961
    62   1 H    0.998 --    20 C    0.971
    63   1 H    0.998 --    21 C    0.971
    64   1 H    0.998 --    22 C    0.968
    65   1 H    0.997 --    26 C    0.968
    66   1 H    0.997 --    28 C    0.966
    67   1 H    0.998 --    28 C    0.983
    68   1 H    0.997 --    28 C    0.980
    69   1 H    0.998 --    29 C    0.967
    70   1 H    0.998 --    31 C    0.983
    71   1 H    0.997 --    31 C    0.967
    72   1 H    0.998 --    31 C    0.980
    73   1 H    0.999 --    32 C    0.967
    74   1 H    0.997 --    34 C    0.944
    75   1 H    0.880 --    36 O    0.853
    76   1 H    0.999 --    41 C    0.969
    77   1 H    0.997 --    43 C    0.984
    78   1 H    0.997 --    43 C    0.978
    79   1 H    0.997 --    43 C    0.968
    80   1 H    0.998 --    44 C    0.967
    81   1 H    0.997 --    46 C    0.970
    82   1 H    0.997 --    46 C    0.973
    83   1 H    0.998 --    46 C    0.985
    84   1 H    0.998 --    47 C    0.968
 ---------------------------------------------------------------------------

Topologies differ in total number of bonds
Writing topology from bond orders to xtbtopo.mol

molecular dipole:
                 x           y           z       tot (Debye)
 q only:       -0.450      -1.523       0.840
   full:       -0.526      -1.951       1.053       5.792
molecular quadrupole (traceless):
                xx          xy          yy          xz          yz          zz
 q only:      -14.913      -1.850      29.056     -19.250     -11.561     -14.144
  q+dip:      -17.771      -2.874      34.419     -32.624     -11.146     -16.649
   full:      -15.078      -2.607      29.721     -24.545     -10.273     -14.643

           -------------------------------------------------
          |                Geometry Summary                 |
           -------------------------------------------------

      molecular mass/u    :      632.7478009
   center of mass at/Å    :        0.0294860       0.2817940      -0.0873617
  moments of inertia/u·Å² :        0.5497445E+04   0.8386784E+04   0.1119217E+05
rotational constants/cm⁻¹ :        0.3066448E-02   0.2010023E-02   0.1506198E-02

 * 81 selected distances

     #   Z          #   Z                                           value/Å
     1   6 C        2   6 C                                       1.3655388
     2   6 C        3   6 C                                       1.4012898
     3   6 C        4   6 C                                       1.3677541
     4   6 C        5   6 C                                       1.4125265
     1   6 C        6   6 C                                       1.4107854
     5   6 C        6   6 C                                       1.4230875
     6   6 C        7   6 C                                       1.4096079
     7   6 C        8   6 C                                       1.3643186
     8   6 C        9   6 C                                       1.3993377
     5   6 C       10   6 C                                       1.4217172
     9   6 C       10   6 C                                       1.3725691
    11   6 C       12   6 C                                       1.5399859 (max)
    13   6 C       14   6 C                                       1.3716754
    14   6 C       15   6 C                                       1.3999853
    15   6 C       16   6 C                                       1.3646584
    16   6 C       17   6 C                                       1.4098047
    13   6 C       18   6 C                                       1.4209146
    17   6 C       18   6 C                                       1.4228432
    18   6 C       19   6 C                                       1.4125839
    19   6 C       20   6 C                                       1.3669135
    20   6 C       21   6 C                                       1.4017984
    17   6 C       22   6 C                                       1.4109229
    21   6 C       22   6 C                                       1.3652020
    12   6 C       23   7 N                                       1.4586418
    23   7 N       24   6 C                                       1.3667327
    25   6 C       26   6 C                                       1.3880043
    26   6 C       27   6 C                                       1.3881309
    27   6 C       29   6 C                                       1.3885925
    29   6 C       30   6 C                                       1.3885312
    25   6 C       32   6 C                                       1.3886644
    30   6 C       32   6 C                                       1.3874908
    24   6 C       33   8 O                                       1.2108939
    23   7 N       34   6 C                                       1.4481942
    35   6 C       36   8 O                                       1.3293122
    35   6 C       37   8 O                                       1.1988100
    11   6 C       38   7 N                                       1.4582174
    34   6 C       38   7 N                                       1.4462488
    38   7 N       39   6 C                                       1.3616135
    40   6 C       41   6 C                                       1.3871988
    41   6 C       42   6 C                                       1.3879700
    42   6 C       44   6 C                                       1.3891213
    44   6 C       45   6 C                                       1.3880946
    40   6 C       47   6 C                                       1.3874023
    45   6 C       47   6 C                                       1.3891175
    39   6 C       48   8 O                                       1.2104015
     1   6 C       49   1 H                                       1.0809935
     2   6 C       50   1 H                                       1.0803544
     3   6 C       51   1 H                                       1.0802709
     4   6 C       52   1 H                                       1.0769243
     7   6 C       53   1 H                                       1.0806525
     8   6 C       54   1 H                                       1.0796936
     9   6 C       55   1 H                                       1.0805968
    11   6 C       56   1 H                                       1.1017170
    12   6 C       57   1 H                                       1.0950771
    14   6 C       58   1 H                                       1.0803961
    15   6 C       59   1 H                                       1.0800802
    16   6 C       60   1 H                                       1.0805478
    19   6 C       61   1 H                                       1.0777343
    20   6 C       62   1 H                                       1.0800643
    21   6 C       63   1 H                                       1.0801035
    22   6 C       64   1 H                                       1.0809072
    26   6 C       65   1 H                                       1.0796563
    28   6 C       66   1 H                                       1.0901355
    28   6 C       67   1 H                                       1.0876969
    28   6 C       68   1 H                                       1.0876260
    29   6 C       69   1 H                                       1.0813213
    31   6 C       70   1 H                                       1.0871501
    31   6 C       71   1 H                                       1.0902905
    31   6 C       72   1 H                                       1.0877700
    32   6 C       73   1 H                                       1.0807525
    34   6 C       74   1 H                                       1.1046535
    36   8 O       75   1 H                                       0.9710097 (min)
    41   6 C       76   1 H                                       1.0805240
    43   6 C       77   1 H                                       1.0869927
    43   6 C       78   1 H                                       1.0877086
    43   6 C       79   1 H                                       1.0904566
    44   6 C       80   1 H                                       1.0815109
    46   6 C       81   1 H                                       1.0895775
    46   6 C       82   1 H                                       1.0894164
    46   6 C       83   1 H                                       1.0873687
    47   6 C       84   1 H                                       1.0801242

 * 5 distinct bonds (by element types)

   Z      Z             #   av. dist./Å        max./Å        min./Å
   1 H    6 C          35     1.0847670     1.1046535     1.0769243
   6 C    6 C          35     1.3969754     1.5399859     1.3643186
   6 C    7 N           6     1.4232747     1.4586418     1.3616135
   1 H    8 O           1     0.9710097     0.9710097     0.9710097
   6 C    8 O           4     1.2373544     1.3293122     1.1988100


optimized geometry written to: xtbopt.xyz


           -------------------------------------------------
          | TOTAL ENERGY             -130.485166104649 Eh   |
          | GRADIENT NORM               0.000502602101 Eh/α |
          | HOMO-LUMO GAP               2.676637946768 eV   |
           -------------------------------------------------

------------------------------------------------------------------------
 * finished run on 2022/03/16 at 22:48:06.783     
------------------------------------------------------------------------
 total:
 * wall-time:     0 d,  0 h,  0 min, 44.673 sec
 *  cpu-time:     0 d,  0 h, 14 min, 42.088 sec
 * ratio c/w:    19.745 speedup
 SCF:
 * wall-time:     0 d,  0 h,  0 min,  0.657 sec
 *  cpu-time:     0 d,  0 h,  0 min,  9.964 sec
 * ratio c/w:    15.164 speedup
 ANC optimizer:
 * wall-time:     0 d,  0 h,  0 min, 43.884 sec
 *  cpu-time:     0 d,  0 h, 14 min, 28.271 sec
 * ratio c/w:    19.786 speedup

