      -----------------------------------------------------------      
     |                   =====================                   |     
     |                           x T B                           |     
     |                   =====================                   |     
     |                         S. Grimme                         |     
     |          Mulliken Center for Theoretical Chemistry        |     
     |                    University of Bonn                     |     
      -----------------------------------------------------------      

   * xtb version 6.3.3 (4ae9cef) compiled by 'conda@95abc7406d43' on 2020-10-14

   xtb is free software: you can redistribute it and/or modify it under
   the terms of the GNU Lesser General Public License as published by
   the Free Software Foundation, either version 3 of the License, or
   (at your option) any later version.
   
   xtb is distributed in the hope that it will be useful,
   but WITHOUT ANY WARRANTY; without even the implied warranty of
   MERCHANTABILITY or FITNESS FOR A PARTICULAR PURPOSE.  See the
   GNU Lesser General Public License for more details.
   
   Cite this work as:
   * C. Bannwarth, E. Caldeweyher, S. Ehlert, A. Hansen, P. Pracht,
     J. Seibert, S. Spicher, S. Grimme, WIREs Comput. Mol. Sci., 2020,
     e01493. DOI: 10.1002/wcms.1493
   
   for GFN2-xTB:
   * S. Grimme, C. Bannwarth, P. Shushkov, J. Chem. Theory Comput., 2017,
     13, 1989-2009. DOI: 10.1021/acs.jctc.7b00118
   for GFN1-xTB:
   * C. Bannwarth, S. Ehlert and S. Grimme., J. Chem. Theory Comput., 2019,
     15, 1652-1671. DOI: 10.1021/acs.jctc.8b01176
   for GFN0-xTB:
   * P. Pracht, E. Caldeweyher, S. Ehlert, S. Grimme, ChemRxiv, 2019, preprint.
     DOI: 10.26434/chemrxiv.8326202.v1
   for GFN-FF:
   * S. Spicher and S. Grimme, Angew. Chem. Int. Ed., 2020, 59, 15665-15673.
     DOI: 10.1002/anie.202004239
   
   for DFT-D4:
   * E. Caldeweyher, C. Bannwarth and S. Grimme, J. Chem. Phys., 2017,
     147, 034112. DOI: 10.1063/1.4993215
   * E. Caldeweyher, S. Ehlert, A. Hansen, H. Neugebauer, S. Spicher,
     C. Bannwarth and S. Grimme, J. Chem. Phys., 2019, 150, 154122.
     DOI: 10.1063/1.5090222
   * E. Caldeweyher, J.-M. Mewes, S. Ehlert and S. Grimme, Phys. Chem. Chem. Phys.
     2020, 22, 8499-8512. DOI: 10.1039/D0CP00502A
   
   for sTDA-xTB:
   * S. Grimme and C. Bannwarth, J. Chem. Phys., 2016, 145, 054103.
     DOI: 10.1063/1.4959605
   
   in the mass-spec context:
   * V. Asgeirsson, C. Bauer and S. Grimme, Chem. Sci., 2017, 8, 4879.
     DOI: 10.1039/c7sc00601b
   * J. Koopman and S. Grimme, ACS Omega 2019, 4, 12, 15120-15133.
     DOI: 10.1021/acsomega.9b02011
   
   for metadynamics refer to:
   * S. Grimme, J. Chem. Theory Comput., 2019, 155, 2847-2862
     DOI: 10.1021/acs.jctc.9b00143
   
   with help from (in alphabetical order)
   C. Bannwarth, F. Bohle, G. Brandenburg, E. Caldeweyher, M. Checinski,
   S. Dohm, S. Ehlert, S. Ehrlich, F. März, H. Neugebauer, J. Pisarek,
   P. Pracht, P. Shushkov, and S. Spicher.
   
 * started run on 2022/03/17 at 02:20:16.191     

           -------------------------------------------------
          |                Calculation Setup                |
           -------------------------------------------------

          program call               : xtb sub_3.xyz --opt --chrg 0 --uhf 0 --gfn 2
          coordinate file            : sub_3.xyz
          omp threads                :                    64
          number of atoms            :                    34
          number of electrons        :                   100
          charge                     :                     0
          spin                       :                   0.0
          first test random number   :      0.19743204569174

   ID    Z sym.   atoms
    1    8 O      1, 3
    2    6 C      2, 4-12, 14, 16-20
    3    7 N      13, 15
    4    1 H      21-34

           -------------------------------------------------
          |                 G F N 2 - x T B                 |
           -------------------------------------------------

        Reference                      10.1021/acs.jctc.8b01176
      * Hamiltonian:
        H0-scaling (s, p, d)           1.850000    2.230000    2.230000
        zeta-weighting                 0.500000
      * Dispersion:
        s8                             2.700000
        a1                             0.520000
        a2                             5.000000
        s9                             5.000000
      * Repulsion:
        kExp                           1.500000    1.000000
        rExp                           1.000000
      * Coulomb:
        alpha                          2.000000
        third order                    shell-resolved
        anisotropic                    true
        a3                             3.000000
        a5                             4.000000
        cn-shift                       1.200000
        cn-exp                         4.000000
        max-rad                        5.000000


          ...................................................
          :                      SETUP                      :
          :.................................................:
          :  # basis functions                  94          :
          :  # atomic orbitals                  94          :
          :  # shells                           54          :
          :  # electrons                       100          :
          :  max. iterations                   250          :
          :  Hamiltonian                  GFN2-xTB          :
          :  restarted?                      false          :
          :  GBSA solvation                  false          :
          :  PC potential                    false          :
          :  electronic temp.          300.0000000     K    :
          :  accuracy                    1.0000000          :
          :  -> integral cutoff          0.2500000E+02      :
          :  -> integral neglect         0.1000000E-07      :
          :  -> SCF convergence          0.1000000E-05 Eh   :
          :  -> wf. convergence          0.1000000E-03 e    :
          :  Broyden damping             0.4000000          :
          ...................................................

 iter      E             dE          RMSdq      gap      omega  full diag
   1    -56.1158527 -0.561159E+02  0.446E+00    2.65       0.0  T
   2    -56.1886260 -0.727733E-01  0.270E+00    2.71       1.0  T
   3    -56.1829902  0.563574E-02  0.129E+00    2.87       1.0  T
   4    -56.1949291 -0.119388E-01  0.453E-01    2.69       1.0  T
   5    -56.2003513 -0.542225E-02  0.123E-01    2.73       1.0  T
   6    -56.2006166 -0.265265E-03  0.523E-02    2.73       1.0  T
   7    -56.2006505 -0.339213E-04  0.251E-02    2.73       1.0  T
   8    -56.2006533 -0.273778E-05  0.119E-02    2.73       1.4  T
   9    -56.2006553 -0.207026E-05  0.343E-03    2.73       5.0  T
  10    -56.2006554 -0.504622E-07  0.166E-03    2.73      10.4  T
  11    -56.2006554 -0.457488E-07  0.790E-04    2.73      21.7  T
  12    -56.2006554 -0.550221E-08  0.340E-04    2.73      50.5  T

   *** convergence criteria satisfied after 12 iterations ***

         #    Occupation            Energy/Eh            Energy/eV
      -------------------------------------------------------------
         1        2.0000           -0.7327919             -19.9403
       ...           ...                  ...                  ...
        44        2.0000           -0.4311054             -11.7310
        45        2.0000           -0.4254786             -11.5779
        46        2.0000           -0.4130629             -11.2400
        47        2.0000           -0.4061041             -11.0507
        48        2.0000           -0.3920959             -10.6695
        49        2.0000           -0.3809796             -10.3670
        50        2.0000           -0.3714456             -10.1075 (HOMO)
        51                         -0.2712145              -7.3801 (LUMO)
        52                         -0.2586376              -7.0379
        53                         -0.2414547              -6.5703
        54                         -0.2302126              -6.2644
        55                         -0.1854255              -5.0457
       ...                                ...                  ...
        94                          0.6991462              19.0247
      -------------------------------------------------------------
                  HL-Gap            0.1002311 Eh            2.7274 eV
             Fermi-level           -0.3213301 Eh           -8.7438 eV

 SCC (total)                   0 d,  0 h,  0 min,  0.243 sec
 SCC setup                      ...        0 min,  0.011 sec (  4.584%)
 Dispersion                     ...        0 min,  0.013 sec (  5.154%)
 classical contributions        ...        0 min,  0.014 sec (  5.601%)
 integral evaluation            ...        0 min,  0.034 sec ( 13.929%)
 iterations                     ...        0 min,  0.035 sec ( 14.184%)
 molecular gradient             ...        0 min,  0.137 sec ( 56.346%)
 printout                       ...        0 min,  0.000 sec (  0.171%)

         :::::::::::::::::::::::::::::::::::::::::::::::::::::
         ::                     SUMMARY                     ::
         :::::::::::::::::::::::::::::::::::::::::::::::::::::
         :: total energy             -55.402244262280 Eh    ::
         :: gradient norm              0.085969642728 Eh/a0 ::
         :: HOMO-LUMO gap              2.727426651298 eV    ::
         ::.................................................::
         :: SCC energy               -56.200655433517 Eh    ::
         :: -> isotropic ES            0.056470602001 Eh    ::
         :: -> anisotropic ES          0.003240468816 Eh    ::
         :: -> anisotropic XC          0.027977096018 Eh    ::
         :: -> dispersion             -0.035467304289 Eh    ::
         :: repulsion energy           0.798665037199 Eh    ::
         :: add. restraining           0.000000000000 Eh    ::
         :: total charge              -0.000000000000 e     ::
         :::::::::::::::::::::::::::::::::::::::::::::::::::::

      ----------------------------------------------------------- 
     |                   =====================                   |
     |                        A N C O P T                        |
     |                   =====================                   |
     |               Approximate Normal Coordinate               |
     |                Rational Function Optimizer                |
      ----------------------------------------------------------- 

          ...................................................
          :                      SETUP                      :
          :.................................................:
          :   optimization level            normal          :
          :   max. optcycles                   200          :
          :   ANC micro-cycles                  20          :
          :   degrees of freedom                96          :
          :.................................................:
          :   RF solver                   davidson          :
          :   write xtbopt.log                true          :
          :   linear?                        false          :
          :   energy convergence         0.5000000E-05 Eh   :
          :   grad. convergence          0.1000000E-02 Eh/α :
          :   maximium RF displ.         1.0000000          :
          :   Hlow (freq-cutoff)         0.1000000E-01      :
          :   Hmax (freq-cutoff)         5.0000000          :
          :   S6 in model hess.         20.0000000          :
          ...................................................

generating ANC from model Hessian ...
Using Lindh-Hessian (1995)
 Shifting diagonal of input Hessian by    9.2832106023577506E-003
 Lowest  eigenvalues of input Hessian
    0.000000    0.000000    0.000000    0.000000    0.000000    0.000000
    0.010000    0.010009    0.010518    0.010998    0.012382    0.013671
    0.014536    0.016692    0.018291    0.019256    0.022730    0.023593
 Highest eigenvalues
    1.939877    1.957178    2.014532    2.082806    2.114464    2.312930


........................................................................
.............................. CYCLE    1 ..............................
........................................................................
   1    -56.2006554 -0.562007E+02  0.148E-04    2.73       0.0  T
   2    -56.2006554 -0.189971E-09  0.987E-05    2.73     173.8  T
   3    -56.2006554 -0.134833E-09  0.583E-05    2.73     294.3  T
     SCC iter.                  ...        0 min,  0.011 sec
     gradient                   ...        0 min,  0.138 sec
 * total energy  :   -55.4022443 Eh     change       -0.8917596E-09 Eh
   gradient norm :     0.0859706 Eh/α   predicted     0.0000000E+00 (-100.00%)
   displ. norm   :     0.3028411 α      lambda       -0.1195579E-01
   maximum displ.:     0.1352075 α      in ANC's #12, #16, #17, ...

........................................................................
.............................. CYCLE    2 ..............................
........................................................................
   1    -56.2453350 -0.562453E+02  0.183E-01    2.80       0.0  T
   2    -56.2454376 -0.102652E-03  0.125E-01    2.81       1.0  T
   3    -56.2454280  0.968795E-05  0.648E-02    2.81       1.0  T
   4    -56.2455062 -0.782610E-04  0.159E-02    2.81       1.1  T
   5    -56.2455119 -0.570601E-05  0.519E-03    2.81       3.3  T
   6    -56.2455121 -0.226377E-06  0.292E-03    2.81       5.9  T
   7    -56.2455122 -0.651471E-07  0.103E-03    2.81      16.7  T
   8    -56.2455122 -0.124425E-07  0.352E-04    2.81      48.7  T
   9    -56.2455122 -0.532147E-09  0.183E-04    2.81      93.9  T
     SCC iter.                  ...        0 min,  0.028 sec
     gradient                   ...        0 min,  0.118 sec
 * total energy  :   -55.4103619 Eh     change       -0.8117637E-02 Eh
   gradient norm :     0.0325256 Eh/α   predicted    -0.6526145E-02 ( -19.61%)
   displ. norm   :     0.2702596 α      lambda       -0.3246270E-02
   maximum displ.:     0.1455807 α      in ANC's #12, #17, #16, ...

........................................................................
.............................. CYCLE    3 ..............................
........................................................................
   1    -56.2674857 -0.562675E+02  0.123E-01    2.83       0.0  T
   2    -56.2675478 -0.621317E-04  0.870E-02    2.84       1.0  T
   3    -56.2675563 -0.847458E-05  0.450E-02    2.84       1.0  T
   4    -56.2675853 -0.290167E-04  0.123E-02    2.84       1.4  T
   5    -56.2675885 -0.318510E-05  0.371E-03    2.84       4.6  T
   6    -56.2675887 -0.198900E-06  0.186E-03    2.84       9.2  T
   7    -56.2675887 -0.205225E-07  0.689E-04    2.84      24.9  T
   8    -56.2675887 -0.599557E-08  0.216E-04    2.84      79.4  T
     SCC iter.                  ...        0 min,  0.029 sec
     gradient                   ...        0 min,  0.058 sec
 * total energy  :   -55.4121725 Eh     change       -0.1810572E-02 Eh
   gradient norm :     0.0088782 Eh/α   predicted    -0.1741693E-02 (  -3.80%)
   displ. norm   :     0.1254331 α      lambda       -0.3348046E-03
   maximum displ.:     0.0583244 α      in ANC's #12, #5, #4, ...

........................................................................
.............................. CYCLE    4 ..............................
........................................................................
   1    -56.2681165 -0.562681E+02  0.520E-02    2.83       0.0  T
   2    -56.2681215 -0.503328E-05  0.320E-02    2.83       1.0  T
   3    -56.2681179  0.363082E-05  0.122E-02    2.83       1.4  T
   4    -56.2681220 -0.407295E-05  0.413E-03    2.83       4.1  T
   5    -56.2681225 -0.560112E-06  0.850E-04    2.83      20.2  T
   6    -56.2681226 -0.908823E-08  0.434E-04    2.83      39.5  T
     SCC iter.                  ...        0 min,  0.030 sec
     gradient                   ...        0 min,  0.170 sec
 * total energy  :   -55.4123941 Eh     change       -0.2216668E-03 Eh
   gradient norm :     0.0047300 Eh/α   predicted    -0.1700470E-03 ( -23.29%)
   displ. norm   :     0.1427578 α      lambda       -0.1782789E-03
   maximum displ.:     0.0714155 α      in ANC's #5, #4, #6, ...

........................................................................
.............................. CYCLE    5 ..............................
........................................................................
   1    -56.2672963 -0.562673E+02  0.521E-02    2.82       0.0  T
   2    -56.2672984 -0.210720E-05  0.311E-02    2.83       1.0  T
   3    -56.2672964  0.205060E-05  0.911E-03    2.83       1.9  T
   4    -56.2672989 -0.246667E-05  0.207E-03    2.83       8.3  T
   5    -56.2672990 -0.108942E-06  0.767E-04    2.83      22.4  T
   6    -56.2672990 -0.681639E-08  0.380E-04    2.83      45.1  T
     SCC iter.                  ...        0 min,  0.024 sec
     gradient                   ...        0 min,  0.130 sec
 * total energy  :   -55.4125078 Eh     change       -0.1136573E-03 Eh
   gradient norm :     0.0034459 Eh/α   predicted    -0.9097178E-04 ( -19.96%)
   displ. norm   :     0.1396267 α      lambda       -0.9604056E-04
   maximum displ.:     0.0757196 α      in ANC's #4, #5, #3, ...

........................................................................
.............................. CYCLE    6 ..............................
........................................................................
   1    -56.2667128 -0.562667E+02  0.489E-02    2.82       0.0  T
   2    -56.2667135 -0.704268E-06  0.286E-02    2.83       1.0  T
   3    -56.2667122  0.131921E-05  0.708E-03    2.83       2.4  T
   4    -56.2667138 -0.164733E-05  0.106E-03    2.83      16.1  T
   5    -56.2667138 -0.745951E-08  0.533E-04    2.83      32.2  T
   6    -56.2667138 -0.249161E-08  0.166E-04    2.83     103.1  T
     SCC iter.                  ...        0 min,  0.018 sec
     gradient                   ...        0 min,  0.144 sec
 * total energy  :   -55.4125815 Eh     change       -0.7369672E-04 Eh
   gradient norm :     0.0038744 Eh/α   predicted    -0.4896682E-04 ( -33.56%)
   displ. norm   :     0.1928226 α      lambda       -0.1127011E-03
   maximum displ.:     0.1030058 α      in ANC's #4, #5, #3, ...

........................................................................
.............................. CYCLE    7 ..............................
........................................................................
   1    -56.2664673 -0.562665E+02  0.693E-02    2.83       0.0  T
   2    -56.2664687 -0.144047E-05  0.404E-02    2.83       1.0  T
   3    -56.2664672  0.150408E-05  0.766E-03    2.83       2.2  T
   4    -56.2664691 -0.190748E-05  0.170E-03    2.83      10.1  T
   5    -56.2664692 -0.465309E-07  0.714E-04    2.83      24.0  T
   6    -56.2664692 -0.109736E-08  0.380E-04    2.83      45.1  T
     SCC iter.                  ...        0 min,  0.018 sec
     gradient                   ...        0 min,  0.119 sec
 * total energy  :   -55.4126664 Eh     change       -0.8487836E-04 Eh
   gradient norm :     0.0036136 Eh/α   predicted    -0.5844602E-04 ( -31.14%)
   displ. norm   :     0.1978245 α      lambda       -0.8708369E-04
   maximum displ.:     0.1098629 α      in ANC's #4, #5, #3, ...

........................................................................
.............................. CYCLE    8 ..............................
........................................................................
   1    -56.2667223 -0.562667E+02  0.731E-02    2.83       0.0  T
   2    -56.2667236 -0.138606E-05  0.425E-02    2.83       1.0  T
   3    -56.2667233  0.345203E-06  0.474E-03    2.83       3.6  T
   4    -56.2667239 -0.615606E-06  0.173E-03    2.83       9.9  T
   5    -56.2667240 -0.592864E-07  0.693E-04    2.83      24.8  T
   6    -56.2667240 -0.146294E-09  0.304E-04    2.83      56.4  T
     SCC iter.                  ...        0 min,  0.019 sec
     gradient                   ...        0 min,  0.126 sec
 * total energy  :   -55.4127280 Eh     change       -0.6161232E-04 Eh
   gradient norm :     0.0026850 Eh/α   predicted    -0.4524757E-04 ( -26.56%)
   displ. norm   :     0.1397815 α      lambda       -0.4521624E-04
   maximum displ.:     0.0803760 α      in ANC's #4, #1, #3, ...

........................................................................
.............................. CYCLE    9 ..............................
........................................................................
   1    -56.2672567 -0.562673E+02  0.528E-02    2.84       0.0  T
   2    -56.2672573 -0.545906E-06  0.308E-02    2.84       1.0  T
   3    -56.2672571  0.147822E-06  0.308E-03    2.84       5.6  T
   4    -56.2672574 -0.290418E-06  0.105E-03    2.84      16.3  T
   5    -56.2672574 -0.156715E-07  0.520E-04    2.84      33.0  T
   6    -56.2672574 -0.156560E-08  0.213E-04    2.84      80.6  T
     SCC iter.                  ...        0 min,  0.023 sec
     gradient                   ...        0 min,  0.117 sec
 * total energy  :   -55.4127614 Eh     change       -0.3341856E-04 Eh
   gradient norm :     0.0016017 Eh/α   predicted    -0.2305232E-04 ( -31.02%)
   displ. norm   :     0.1801471 α      lambda       -0.3319523E-04
   maximum displ.:     0.1014844 α      in ANC's #4, #1, #3, ...

........................................................................
.............................. CYCLE   10 ..............................
........................................................................
   1    -56.2679727 -0.562680E+02  0.653E-02    2.84       0.0  T
   2    -56.2679734 -0.699120E-06  0.381E-02    2.84       1.0  T
   3    -56.2679727  0.777331E-06  0.550E-03    2.84       3.1  T
   4    -56.2679737 -0.105973E-05  0.128E-03    2.84      13.4  T
   5    -56.2679737 -0.103707E-07  0.698E-04    2.84      24.6  T
   6    -56.2679737 -0.490387E-08  0.221E-04    2.84      77.6  T
     SCC iter.                  ...        0 min,  0.017 sec
     gradient                   ...        0 min,  0.139 sec
 * total energy  :   -55.4127935 Eh     change       -0.3205144E-04 Eh
   gradient norm :     0.0016394 Eh/α   predicted    -0.1683752E-04 ( -47.47%)
   displ. norm   :     0.1083669 α      lambda       -0.1802767E-04
   maximum displ.:     0.0647489 α      in ANC's #1, #4, #2, ...

........................................................................
.............................. CYCLE   11 ..............................
........................................................................
   1    -56.2679262 -0.562679E+02  0.339E-02    2.84       0.0  T
   2    -56.2679263 -0.166858E-06  0.199E-02    2.84       1.0  T
   3    -56.2679261  0.215377E-06  0.293E-03    2.84       5.9  T
   4    -56.2679264 -0.281288E-06  0.657E-04    2.84      26.1  T
   5    -56.2679264 -0.384033E-08  0.353E-04    2.84      48.6  T
     SCC iter.                  ...        0 min,  0.017 sec
     gradient                   ...        0 min,  0.139 sec
 * total energy  :   -55.4128147 Eh     change       -0.2127224E-04 Eh
   gradient norm :     0.0015576 Eh/α   predicted    -0.9063884E-05 ( -57.39%)
   displ. norm   :     0.1278024 α      lambda       -0.1978256E-04
   maximum displ.:     0.0785549 α      in ANC's #1, #2, #4, ...

........................................................................
.............................. CYCLE   12 ..............................
........................................................................
   1    -56.2678406 -0.562678E+02  0.358E-02    2.84       0.0  T
   2    -56.2678408 -0.174778E-06  0.210E-02    2.84       1.0  T
   3    -56.2678406  0.170971E-06  0.278E-03    2.84       6.2  T
   4    -56.2678409 -0.240382E-06  0.625E-04    2.84      27.4  T
   5    -56.2678409 -0.237024E-08  0.314E-04    2.84      54.7  T
     SCC iter.                  ...        0 min,  0.027 sec
     gradient                   ...        0 min,  0.135 sec
 * total energy  :   -55.4128347 Eh     change       -0.1994055E-04 Eh
   gradient norm :     0.0012578 Eh/α   predicted    -0.9963770E-05 ( -50.03%)
   displ. norm   :     0.0962408 α      lambda       -0.1203685E-04
   maximum displ.:     0.0632994 α      in ANC's #1, #2, #5, ...

........................................................................
.............................. CYCLE   13 ..............................
........................................................................
   1    -56.2677823 -0.562678E+02  0.255E-02    2.84       0.0  T
   2    -56.2677824 -0.131994E-06  0.150E-02    2.84       1.1  T
   3    -56.2677823  0.669739E-07  0.173E-03    2.84       9.9  T
   4    -56.2677824 -0.888354E-07  0.518E-04    2.84      33.1  T
   5    -56.2677824 -0.589112E-08  0.217E-04    2.84      79.0  T
     SCC iter.                  ...        0 min,  0.016 sec
     gradient                   ...        0 min,  0.139 sec
 * total energy  :   -55.4128463 Eh     change       -0.1167901E-04 Eh
   gradient norm :     0.0008291 Eh/α   predicted    -0.6044981E-05 ( -48.24%)
   displ. norm   :     0.0606122 α      lambda       -0.6323361E-05
   maximum displ.:     0.0415777 α      in ANC's #1, #2, #5, ...

........................................................................
.............................. CYCLE   14 ..............................
........................................................................
   1    -56.2677462 -0.562677E+02  0.150E-02    2.84       0.0  T
   2    -56.2677462 -0.292595E-07  0.882E-03    2.84       1.9  T
   3    -56.2677462  0.298064E-07  0.114E-03    2.84      15.1  T
   4    -56.2677462 -0.393357E-07  0.239E-04    2.84      71.7  T
   5    -56.2677462 -0.694044E-09  0.117E-04    2.84     147.0  T
     SCC iter.                  ...        0 min,  0.015 sec
     gradient                   ...        0 min,  0.109 sec
 * total energy  :   -55.4128543 Eh     change       -0.7972229E-05 Eh
   gradient norm :     0.0005925 Eh/α   predicted    -0.3167884E-05 ( -60.26%)
   displ. norm   :     0.0811359 α      lambda       -0.8534727E-05
   maximum displ.:     0.0532581 α      in ANC's #1, #2, #9, ...

........................................................................
.............................. CYCLE   15 ..............................
........................................................................
   1    -56.2677895 -0.562678E+02  0.193E-02    2.84       0.0  T
   2    -56.2677896 -0.292506E-07  0.113E-02    2.84       1.5  T
   3    -56.2677895  0.241934E-07  0.112E-03    2.84      15.4  T
   4    -56.2677896 -0.379084E-07  0.332E-04    2.84      51.7  T
   5    -56.2677896 -0.350809E-09  0.176E-04    2.84      97.2  T
     SCC iter.                  ...        0 min,  0.015 sec
     gradient                   ...        0 min,  0.157 sec
 * total energy  :   -55.4128646 Eh     change       -0.1024241E-04 Eh
   gradient norm :     0.0006088 Eh/α   predicted    -0.4280846E-05 ( -58.20%)
   displ. norm   :     0.1050599 α      lambda       -0.8549283E-05
   maximum displ.:     0.0693453 α      in ANC's #1, #2, #9, ...

........................................................................
.............................. CYCLE   16 ..............................
........................................................................
   1    -56.2676507 -0.562677E+02  0.248E-02    2.84       0.0  T
   2    -56.2676508 -0.624627E-07  0.146E-02    2.84       1.2  T
   3    -56.2676507  0.395067E-07  0.139E-03    2.84      12.3  T
   4    -56.2676508 -0.634633E-07  0.512E-04    2.84      33.5  T
   5    -56.2676508 -0.309186E-08  0.245E-04    2.84      69.9  T
     SCC iter.                  ...        0 min,  0.023 sec
     gradient                   ...        0 min,  0.112 sec
 * total energy  :   -55.4128742 Eh     change       -0.9614557E-05 Eh
   gradient norm :     0.0008403 Eh/α   predicted    -0.4297896E-05 ( -55.30%)
   displ. norm   :     0.1201982 α      lambda       -0.7328949E-05
   maximum displ.:     0.0792636 α      in ANC's #1, #2, #9, ...

........................................................................
.............................. CYCLE   17 ..............................
........................................................................
   1    -56.2677294 -0.562677E+02  0.285E-02    2.84       0.0  T
   2    -56.2677296 -0.109869E-06  0.168E-02    2.84       1.0  T
   3    -56.2677295  0.916350E-07  0.191E-03    2.84       9.0  T
   4    -56.2677296 -0.129696E-06  0.663E-04    2.84      25.9  T
   5    -56.2677296 -0.633288E-08  0.307E-04    2.84      55.9  T
     SCC iter.                  ...        0 min,  0.019 sec
     gradient                   ...        0 min,  0.141 sec
 * total energy  :   -55.4128821 Eh     change       -0.7965899E-05 Eh
   gradient norm :     0.0007963 Eh/α   predicted    -0.3689275E-05 ( -53.69%)
   displ. norm   :     0.1195254 α      lambda       -0.2056802E-05
   maximum displ.:     0.0782412 α      in ANC's #1, #2, #9, ...

........................................................................
.............................. CYCLE   18 ..............................
........................................................................
   1    -56.2676772 -0.562677E+02  0.283E-02    2.84       0.0  T
   2    -56.2676773 -0.106198E-06  0.166E-02    2.84       1.0  T
   3    -56.2676773  0.878710E-07  0.187E-03    2.84       9.2  T
   4    -56.2676774 -0.125702E-06  0.650E-04    2.84      26.4  T
   5    -56.2676774 -0.577668E-08  0.305E-04    2.84      56.2  T
     SCC iter.                  ...        0 min,  0.022 sec
     gradient                   ...        0 min,  0.123 sec
 * total energy  :   -55.4128840 Eh     change       -0.1872406E-05 Eh
   gradient norm :     0.0011476 Eh/α   predicted    -0.1037250E-05 ( -44.60%)
   displ. norm   :     0.0333054 α      lambda       -0.4042246E-05
   maximum displ.:     0.0204816 α      in ANC's #1, #2, #9, ...

........................................................................
.............................. CYCLE   19 ..............................
........................................................................
   1    -56.2678567 -0.562679E+02  0.112E-02    2.84       0.0  T
   2    -56.2678568 -0.332019E-07  0.657E-03    2.84       2.6  T
   3    -56.2678567  0.708537E-07  0.149E-03    2.84      11.5  T
   4    -56.2678568 -0.853583E-07  0.295E-04    2.84      58.1  T
   5    -56.2678568 -0.119918E-08  0.161E-04    2.84     106.4  T
     SCC iter.                  ...        0 min,  0.017 sec
     gradient                   ...        0 min,  0.131 sec
 * total energy  :   -55.4128881 Eh     change       -0.4122832E-05 Eh
   gradient norm :     0.0005706 Eh/α   predicted    -0.2022592E-05 ( -50.94%)
   displ. norm   :     0.0327857 α      lambda       -0.2813507E-06
   maximum displ.:     0.0196250 α      in ANC's #1, #2, #9, ...

   *** GEOMETRY OPTIMIZATION CONVERGED AFTER 19 ITERATIONS ***

------------------------------------------------------------------------
 total energy gain   :        -0.0106439 Eh       -6.6791 kcal/mol
 total RMSD          :         0.2972117 a0        0.1573 Å
 total power (kW/mol):        -1.4708151 (step)   -6.1637 (real)
------------------------------------------------------------------------

 ANCopt (total)                0 d,  0 h,  0 min,  4.534 sec
 optimizer setup                ...        0 min,  0.000 sec (  0.003%)
 model hessian                  ...        0 min,  0.009 sec (  0.194%)
 ANC generation                 ...        0 min,  0.002 sec (  0.046%)
 coordinate transformation      ...        0 min,  0.000 sec (  0.008%)
 single point calculation       ...        0 min,  4.276 sec ( 94.318%)
 optimization log               ...        0 min,  0.016 sec (  0.353%)
 hessian update                 ...        0 min,  0.223 sec (  4.929%)
 rational function              ...        0 min,  0.002 sec (  0.042%)

================
 final structure:
================
34
 xtb: 6.3.3 (4ae9cef)
O         2.89418261722022   -0.81387517160306    2.05564399669218
C         3.37452336853373   -0.42364857426157    1.01636080099918
O         4.70202856653002   -0.31786178546917    0.82718155557403
C         5.51041546418087   -0.70138420972218    1.92693484367784
C         2.58854342790092   -0.01325433931956   -0.16377776079027
C         1.20463338010560   -0.10888535946961   -0.06841810725017
C         0.44468662424888    0.27979354438806   -1.15724055938710
C         1.06705545557488    0.70365712167159   -2.36230641671750
C         2.45745465792089    0.79385086594658   -2.43603233367233
C         3.20650314195434    0.44853099348127   -1.33719979555692
C         0.02433935318060    0.93953623284109   -3.30022926145603
C        -1.14617567788339    0.66120110386802   -2.67065966276241
N        -0.91765132288016    0.28140369227910   -1.37002215409193
C        -1.94465695118376   -0.02796088338203   -0.48176197694394
N        -3.05118658333324   -0.50614426952692   -1.03946393159136
C        -4.07019599434437   -0.82009204984319   -0.26373616772856
C        -4.06471312021090   -0.68637411676963    1.11977151049675
C        -5.24889141822580   -1.06217540921351    1.95157243926278
C        -2.91226502243555   -0.15115790600900    1.69026408299034
C        -1.83880704143333    0.19309646470281    0.89210792752917
H         5.34016941879794   -1.75132707890518    2.17544287810191
H         6.54070843362131   -0.54401222611613    1.61796222165565
H         5.27468317529468   -0.09320887095232    2.80306966176781
H         0.78020140999049   -0.50623135638794    0.83966428734863
H         2.93032715150027    1.12345939631197   -3.34878499756711
H         4.28248199919823    0.51263710587264   -1.36483036188098
H         0.14355774108651    1.27297812049658   -4.31160621103050
H        -2.15512436197971    0.70900111411896   -3.03018630914705
H        -4.94027935105383   -1.20405217024400   -0.78141491188456
H        -4.93199308657231   -1.51977310601868    2.88644686650376
H        -5.89248615320777   -1.75568322039755    1.41628032590650
H        -5.83240836653526   -0.17340960267828    2.19428735302289
H        -2.86046742635445    0.00364845883248    2.75855873490946
H        -0.95919550920743    0.64722549147813    1.31612243302092

 Bond Distances (Angstroems)
 ---------------------------
O1-C2=1.2096         C2-O1=1.2096         C2-O3=1.3451         C2-C5=1.4761         O3-C2=1.3451         O3-C4=1.4178         
C4-O3=1.4178         C4-H21=1.0923        C4-H22=1.0871        C4-H23=1.0923        C5-C2=1.4761         C5-C6=1.3905         
C5-C10=1.4043        C6-C5=1.3905         C6-C7=1.3835         C6-H24=1.0783        C7-C6=1.3835         C7-C8=1.4210         
C7-N13=1.3789        C8-C7=1.4210         C8-C9=1.3953         C8-C11=1.4222        C9-C8=1.3953         C9-C10=1.3740        
C9-H25=1.0795        C10-C5=1.4043        C10-C9=1.3740        C10-H26=1.0782       C11-C8=1.4222        C11-C12=1.3579       
C11-H27=1.0716       C12-C11=1.3579       C12-N13=1.3741       C12-H28=1.0722       N13-C7=1.3789        N13-C12=1.3741       
N13-C14=1.3926       C14-N13=1.3926       C14-N15=1.3282       C14-C20=1.3956       N15-C14=1.3282       N15-C16=1.3186       
C16-N15=1.3186       C16-C17=1.3900       C16-H29=1.0828       C17-C16=1.3900       C17-C18=1.4951       C17-C19=1.3929       
C18-C17=1.4951       C18-H30=1.0880       C18-H31=1.0871       C18-H32=1.0906       C19-C17=1.3929       C19-C20=1.3813       
C19-H33=1.0807       C20-C14=1.3956       C20-C19=1.3813       C20-H34=1.0769       H21-C4=1.0923        H22-C4=1.0871        
H23-C4=1.0923        H24-C6=1.0783        H25-C9=1.0795        H26-C10=1.0782       H27-C11=1.0716       H28-C12=1.0722       
H29-C16=1.0828       H30-C18=1.0880       H31-C18=1.0871       H32-C18=1.0906       H33-C19=1.0807       H34-C20=1.0769       
 C  H  Rav=1.0827 sigma=0.0067  Rmin=1.0716  Rmax=1.0923    14
 C  C  Rav=1.4057 sigma=0.0365  Rmin=1.3579  Rmax=1.4951    14
 N  C  Rav=1.3585 sigma=0.0294  Rmin=1.3186  Rmax=1.3926     5
 O  C  Rav=1.3241 sigma=0.0863  Rmin=1.2096  Rmax=1.4178     3

 selected bond angles (degree)
 --------------------
O3-C2-O1=122.56                C5-C2-O1=124.41                C5-C2-O3=113.03                C4-O3-C2=115.62                
H21-C4-O3=110.34               H22-C4-O3=106.31               H22-C4-H21=110.58              H23-C4-O3=110.40               
H23-C4-H21=108.61              H23-C4-H22=110.60              C6-C5-C2=117.13                C10-C5-C2=121.68               
C10-C5-C6=121.19               C7-C6-C5=118.25                H24-C6-C5=118.35               H24-C6-C7=123.37               
C8-C7-C6=120.71                N13-C7-C6=131.64               N13-C7-C8=107.55               C9-C8-C7=120.04                
C11-C8-C7=106.72               C11-C8-C9=133.24               C10-C9-C8=119.00               H25-C9-C8=120.06               
H25-C9-C10=120.94              C9-C10-C5=120.73               H26-C10-C5=118.69              H26-C10-C9=120.57              

 selected dihedral angles (degree)
 ---------------------------------
C4-O3-C2-O1=  0.32            C4-O3-C2-C5=180.13            H21-C4-O3-C2= 60.86           H22-C4-O3-C2=180.80           
H23-C4-O3-C2=300.80           C6-C5-C2-O1=358.83            C6-C5-C2-O3=179.02            C10-C5-C2-O1=179.13           
C10-C5-C2-O3=359.32           C7-C6-C5-C2=179.49            C7-C6-C5-C10=359.19           H24-C6-C5-C2=357.90           
H24-C6-C5-C10=177.60          C8-C7-C6-C5=  2.99            C8-C7-C6-H24=184.67           N13-C7-C6-C5=178.82           
N13-C7-C6-H24=  0.49          C9-C8-C7-C6=356.86            C9-C8-C7-N13=180.14           C11-C8-C7-C6=176.01           
C11-C8-C7-N13=359.28          C10-C9-C8-C7=  0.97           C10-C9-C8-C11=182.09          H25-C9-C8-C7=180.49           
H25-C9-C8-C11=  1.62          C9-C10-C5-C2=178.36           C9-C10-C5-C6=358.67           H26-C10-C5-C2=359.29          
H26-C10-C5-C6=179.60          C5-C10-C9-C8=  1.21           C5-C10-C9-H25=181.69          H26-C10-C9-C8=180.26          
H26-C10-C9-H25=  0.74         
           -------------------------------------------------
          |                Final Singlepoint                |
           -------------------------------------------------

          ...................................................
          :                      SETUP                      :
          :.................................................:
          :  # basis functions                  94          :
          :  # atomic orbitals                  94          :
          :  # shells                           54          :
          :  # electrons                       100          :
          :  max. iterations                   250          :
          :  Hamiltonian                  GFN2-xTB          :
          :  restarted?                      false          :
          :  GBSA solvation                  false          :
          :  PC potential                    false          :
          :  electronic temp.          300.0000000     K    :
          :  accuracy                    1.0000000          :
          :  -> integral cutoff          0.2500000E+02      :
          :  -> integral neglect         0.1000000E-07      :
          :  -> SCF convergence          0.1000000E-05 Eh   :
          :  -> wf. convergence          0.1000000E-03 e    :
          :  Broyden damping             0.4000000          :
          ...................................................

 iter      E             dE          RMSdq      gap      omega  full diag
   1    -56.2678568 -0.562679E+02  0.652E-05    2.84       0.0  T
   2    -56.2678568 -0.243077E-10  0.448E-05    2.84     382.5  T
   3    -56.2678568 -0.281659E-10  0.250E-05    2.84     684.7  T

   *** convergence criteria satisfied after 3 iterations ***

         #    Occupation            Energy/Eh            Energy/eV
      -------------------------------------------------------------
         1        2.0000           -0.7334644             -19.9586
       ...           ...                  ...                  ...
        44        2.0000           -0.4327066             -11.7745
        45        2.0000           -0.4245096             -11.5515
        46        2.0000           -0.4149133             -11.2904
        47        2.0000           -0.4051133             -11.0237
        48        2.0000           -0.3910234             -10.6403
        49        2.0000           -0.3799816             -10.3398
        50        2.0000           -0.3726580             -10.1405 (HOMO)
        51                         -0.2681826              -7.2976 (LUMO)
        52                         -0.2520664              -6.8591
        53                         -0.2404696              -6.5435
        54                         -0.2247915              -6.1169
        55                         -0.1795216              -4.8850
       ...                                ...                  ...
        94                          0.7245263              19.7154
      -------------------------------------------------------------
                  HL-Gap            0.1044754 Eh            2.8429 eV
             Fermi-level           -0.3204203 Eh           -8.7191 eV

 SCC (total)                   0 d,  0 h,  0 min,  0.212 sec
 SCC setup                      ...        0 min,  0.014 sec (  6.423%)
 Dispersion                     ...        0 min,  0.009 sec (  4.191%)
 classical contributions        ...        0 min,  0.014 sec (  6.724%)
 integral evaluation            ...        0 min,  0.024 sec ( 11.425%)
 iterations                     ...        0 min,  0.014 sec (  6.816%)
 molecular gradient             ...        0 min,  0.136 sec ( 64.208%)
 printout                       ...        0 min,  0.000 sec (  0.178%)

         :::::::::::::::::::::::::::::::::::::::::::::::::::::
         ::                     SUMMARY                     ::
         :::::::::::::::::::::::::::::::::::::::::::::::::::::
         :: total energy             -55.412888136547 Eh    ::
         :: gradient norm              0.000570927174 Eh/a0 ::
         :: HOMO-LUMO gap              2.842921381158 eV    ::
         ::.................................................::
         :: SCC energy               -56.267856766354 Eh    ::
         :: -> isotropic ES            0.056955917147 Eh    ::
         :: -> anisotropic ES          0.002203598946 Eh    ::
         :: -> anisotropic XC          0.026018207874 Eh    ::
         :: -> dispersion             -0.035936472596 Eh    ::
         :: repulsion energy           0.855193652434 Eh    ::
         :: add. restraining           0.000000000000 Eh    ::
         :: total charge               0.000000000000 e     ::
         :::::::::::::::::::::::::::::::::::::::::::::::::::::

           -------------------------------------------------
          |                Property Printout                |
           -------------------------------------------------

    * Orbital Energies and Occupations

         #    Occupation            Energy/Eh            Energy/eV
      -------------------------------------------------------------
         1        2.0000           -0.7334644             -19.9586
       ...           ...                  ...                  ...
        38        2.0000           -0.4673479             -12.7172
        39        2.0000           -0.4630767             -12.6010
        40        2.0000           -0.4531726             -12.3315
        41        2.0000           -0.4443371             -12.0910
        42        2.0000           -0.4397252             -11.9655
        43        2.0000           -0.4388792             -11.9425
        44        2.0000           -0.4327066             -11.7745
        45        2.0000           -0.4245096             -11.5515
        46        2.0000           -0.4149133             -11.2904
        47        2.0000           -0.4051133             -11.0237
        48        2.0000           -0.3910234             -10.6403
        49        2.0000           -0.3799816             -10.3398
        50        2.0000           -0.3726580             -10.1405 (HOMO)
        51                         -0.2681826              -7.2976 (LUMO)
        52                         -0.2520664              -6.8591
        53                         -0.2404696              -6.5435
        54                         -0.2247915              -6.1169
        55                         -0.1795216              -4.8850
        56                         -0.1513175              -4.1176
        57                         -0.1109556              -3.0193
        58                         -0.0720610              -1.9609
        59                          0.0099936               0.2719
        60                          0.0336016               0.9143
        61                          0.0939252               2.5558
       ...                                ...                  ...
        94                          0.7245263              19.7154
      -------------------------------------------------------------
                  HL-Gap            0.1044754 Eh            2.8429 eV
             Fermi-level           -0.3204203 Eh           -8.7191 eV

     #   Z          covCN         q      C6AA      α(0)
     1   8 O        0.857    -0.428    22.256     6.325
     2   6 C        2.735     0.349    21.075     7.516
     3   8 O        1.705    -0.267    18.421     5.795
     4   6 C        3.658     0.037    20.226     6.454
     5   6 C        2.976    -0.030    28.732     8.793
     6   6 C        2.916    -0.039    28.961     8.825
     7   6 C        3.082     0.040    27.012     8.520
     8   6 C        3.115    -0.001    27.895     8.652
     9   6 C        2.911    -0.034    28.856     8.808
    10   6 C        2.920    -0.034    28.857     8.809
    11   6 C        3.001    -0.067    29.667     8.935
    12   6 C        3.042     0.006    27.850     8.656
    13   7 N        2.831    -0.011    21.471     6.882
    14   6 C        2.904     0.141    24.921     8.185
    15   7 N        1.846    -0.244    27.219     7.732
    16   6 C        2.912     0.052    26.844     8.496
    17   6 C        2.960     0.003    27.946     8.671
    18   6 C        3.757    -0.111    22.672     6.789
    19   6 C        2.935    -0.021    28.527     8.760
    20   6 C        2.913    -0.057    29.417     8.894
    21   1 H        0.924     0.060     2.202     2.321
    22   1 H        0.925     0.064     2.157     2.296
    23   1 H        0.924     0.060     2.198     2.319
    24   1 H        0.926     0.059     2.213     2.327
    25   1 H        0.926     0.040     2.451     2.448
    26   1 H        0.926     0.050     2.315     2.379
    27   1 H        0.926     0.040     2.445     2.445
    28   1 H        0.926     0.060     2.199     2.319
    29   1 H        0.925     0.042     2.427     2.436
    30   1 H        0.925     0.050     2.316     2.380
    31   1 H        0.925     0.047     2.356     2.401
    32   1 H        0.924     0.053     2.286     2.364
    33   1 H        0.926     0.042     2.423     2.434
    34   1 H        0.926     0.050     2.323     2.383

 Mol. C6AA /au·bohr⁶  :      15051.293856
 Mol. C8AA /au·bohr⁸  :     365819.997330
 Mol. α(0) /au        :        193.749029


Wiberg/Mayer (AO) data.
largest (>0.10) Wiberg bond orders for each atom

 ---------------------------------------------------------------------------
     #   Z sym  total        # sym  WBO       # sym  WBO       # sym  WBO
 ---------------------------------------------------------------------------
     1   8 O    2.010 --     2 C    1.711     3 O    0.163
     2   6 C    3.912 --     1 O    1.711     3 O    1.108     5 C    1.020
     3   8 O    2.290 --     2 C    1.108     4 C    0.963     1 O    0.163
     4   6 C    3.930 --    22 H    0.982    21 H    0.977    23 H    0.977
                             3 O    0.963
     5   6 C    3.983 --     6 C    1.411    10 C    1.326     2 C    1.020
     6   6 C    3.988 --     5 C    1.411     7 C    1.380    24 H    0.958
     7   6 C    3.958 --     6 C    1.380     8 C    1.235    13 N    1.130
     8   6 C    3.982 --     9 C    1.327     7 C    1.235    11 C    1.223
     9   6 C    3.990 --    10 C    1.515     8 C    1.327    25 H    0.968
    10   6 C    3.983 --     9 C    1.515     5 C    1.326    26 H    0.967
    11   6 C    3.970 --    12 C    1.618     8 C    1.223    27 H    0.972
    12   6 C    3.942 --    11 C    1.618    13 N    1.169    28 H    0.966
    13   7 N    3.631 --    12 C    1.169     7 C    1.130    14 C    1.065
    14   6 C    3.968 --    15 N    1.376    20 C    1.348    13 N    1.065
    15   7 N    3.056 --    16 C    1.442    14 C    1.376
    16   6 C    3.981 --    15 N    1.442    17 C    1.397    29 H    0.961
                            20 C    0.108
    17   6 C    3.974 --    16 C    1.397    19 C    1.394    18 C    1.028
    18   6 C    3.995 --    17 C    1.028    31 H    0.983    30 H    0.978
                            32 H    0.966
    19   6 C    3.989 --    20 C    1.469    17 C    1.394    33 H    0.968
    20   6 C    3.987 --    19 C    1.469    14 C    1.348    34 H    0.963
                            16 C    0.108
    21   1 H    0.996 --     4 C    0.977
    22   1 H    0.996 --     4 C    0.982
    23   1 H    0.996 --     4 C    0.977
    24   1 H    0.996 --     6 C    0.958
    25   1 H    0.997 --     9 C    0.968
    26   1 H    0.997 --    10 C    0.967
    27   1 H    0.997 --    11 C    0.972
    28   1 H    0.996 --    12 C    0.966
    29   1 H    0.998 --    16 C    0.961
    30   1 H    0.997 --    18 C    0.978
    31   1 H    0.997 --    18 C    0.983
    32   1 H    0.996 --    18 C    0.966
    33   1 H    0.998 --    19 C    0.968
    34   1 H    0.997 --    20 C    0.963
 ---------------------------------------------------------------------------

Topologies differ in total number of bonds
Writing topology from bond orders to xtbtopo.mol

molecular dipole:
                 x           y           z       tot (Debye)
 q only:       -0.597       0.298      -0.218
   full:       -0.586       0.324       0.189       1.769
molecular quadrupole (traceless):
                xx          xy          yy          xz          yz          zz
 q only:       13.437       1.678      -8.246      -5.051      -0.871      -5.191
  q+dip:       16.915       2.575     -11.658      -7.659      -1.343      -5.256
   full:       14.971       1.088      -7.188      -7.478      -0.344      -7.784

           -------------------------------------------------
          |                Geometry Summary                 |
           -------------------------------------------------

      molecular mass/u    :      266.2951612
   center of mass at/Å    :        0.1782290      -0.0911121      -0.1885359
  moments of inertia/u·Å² :        0.8457732E+03   0.2654292E+04   0.3448490E+04
rotational constants/cm⁻¹ :        0.1993162E-01   0.6351083E-02   0.4888409E-02

 * 34 selected distances

     #   Z          #   Z                                           value/Å
     1   8 O        2   6 C                                       1.2095923
     2   6 C        3   8 O                                       1.3450835
     3   8 O        4   6 C                                       1.4177574
     5   6 C        6   6 C                                       1.3904840
     6   6 C        7   6 C                                       1.3835190
     7   6 C        8   6 C                                       1.4209810
     8   6 C        9   6 C                                       1.3952707
     5   6 C       10   6 C                                       1.4042931
     9   6 C       10   6 C                                       1.3739550
     8   6 C       11   6 C                                       1.4221797 (max)
    11   6 C       12   6 C                                       1.3579152
     7   6 C       13   7 N                                       1.3788558
    12   6 C       13   7 N                                       1.3740915
    13   7 N       14   6 C                                       1.3926425
    14   6 C       15   7 N                                       1.3281938
    15   7 N       16   6 C                                       1.3185966
    16   6 C       17   6 C                                       1.3899655
    17   6 C       19   6 C                                       1.3928585
    14   6 C       20   6 C                                       1.3955605
    19   6 C       20   6 C                                       1.3812590
     4   6 C       21   1 H                                       1.0923003
     4   6 C       22   1 H                                       1.0870757
     4   6 C       23   1 H                                       1.0922725
     6   6 C       24   1 H                                       1.0782578
     9   6 C       25   1 H                                       1.0795219
    10   6 C       26   1 H                                       1.0782409
    11   6 C       27   1 H                                       1.0715782 (min)
    12   6 C       28   1 H                                       1.0721575
    16   6 C       29   1 H                                       1.0828027
    18   6 C       30   1 H                                       1.0880305
    18   6 C       31   1 H                                       1.0870625
    18   6 C       32   1 H                                       1.0905536
    19   6 C       33   1 H                                       1.0806949
    20   6 C       34   1 H                                       1.0769113

 * 4 distinct bonds (by element types)

   Z      Z             #   av. dist./Å        max./Å        min./Å
   1 H    6 C          14     1.0826758     1.0923003     1.0715782
   6 C    6 C          12     1.3923534     1.4221797     1.3579152
   6 C    7 N           5     1.3584760     1.3926425     1.3185966
   6 C    8 O           3     1.3241444     1.4177574     1.2095923


optimized geometry written to: xtbopt.xyz


           -------------------------------------------------
          | TOTAL ENERGY              -55.412888136547 Eh   |
          | GRADIENT NORM               0.000570927174 Eh/α |
          | HOMO-LUMO GAP               2.842921381158 eV   |
           -------------------------------------------------

------------------------------------------------------------------------
 * finished run on 2022/03/17 at 02:20:21.333     
------------------------------------------------------------------------
 total:
 * wall-time:     0 d,  0 h,  0 min,  5.142 sec
 *  cpu-time:     0 d,  0 h,  2 min, 39.638 sec
 * ratio c/w:    31.046 speedup
 SCF:
 * wall-time:     0 d,  0 h,  0 min,  0.244 sec
 *  cpu-time:     0 d,  0 h,  0 min,  7.095 sec
 * ratio c/w:    29.134 speedup
 ANC optimizer:
 * wall-time:     0 d,  0 h,  0 min,  4.747 sec
 *  cpu-time:     0 d,  0 h,  2 min, 28.430 sec
 * ratio c/w:    31.268 speedup

