34
 energy: -55.402244263171 gnorm: 0.085970593475 xtb: 6.3.3 (4ae9cef)
O         2.94181000000000   -0.84645600000000    2.07755900000000
C         3.44473800000000   -0.42330800000000    1.04801700000000
O         4.77303600000000   -0.26934200000000    0.82015600000000
C         5.59899700000000   -0.65784900000000    1.91864000000000
C         2.65012700000000   -0.00406800000000   -0.14105200000000
C         1.25631300000000   -0.18786800000000   -0.09022900000000
C         0.46122800000000    0.21811200000000   -1.18433000000000
C         1.06893900000000    0.71720900000000   -2.34740800000000
C         2.46620800000000    0.90199300000000   -2.38102300000000
C         3.24473100000000    0.55121500000000   -1.27390900000000
C         0.05538300000000    0.90234000000000   -3.31719900000000
C        -1.13147300000000    0.51728000000000   -2.74780100000000
N        -0.92041400000000    0.19239800000000   -1.41661700000000
C        -1.99965600000000   -0.09956000000000   -0.51751700000000
N        -3.19835800000000   -0.41612100000000   -1.07853800000000
C        -4.23089400000000   -0.69589300000000   -0.25190200000000
C        -4.14787900000000   -0.66932900000000    1.13214100000000
C        -5.34070700000000   -0.95462800000000    1.98671800000000
C        -2.92719700000000   -0.29388400000000    1.68840400000000
C        -1.84083600000000   -0.00360600000000    0.86011200000000
H         5.46197200000000   -1.71997400000000    2.14473900000000
H         6.64181300000000   -0.49687000000000    1.63166400000000
H         5.38261100000000   -0.04238400000000    2.79748900000000
H         0.82139500000000   -0.66940300000000    0.78009300000000
H         2.94199600000000    1.29894500000000   -3.27430500000000
H         4.32042600000000    0.70038600000000   -1.32685100000000
H         0.18221700000000    1.25060100000000   -4.33387800000000
H        -2.13316100000000    0.49838000000000   -3.15835300000000
H        -5.15940900000000   -0.94898900000000   -0.75729800000000
H        -5.03821000000000   -1.37791500000000    2.95033800000000
H        -6.00120200000000   -1.68340400000000    1.50515900000000
H        -5.90297100000000   -0.03324500000000    2.16693400000000
H        -2.81366400000000   -0.21112200000000    2.76700800000000
H        -0.92791100000000    0.34586700000000    1.32304000000000
34
 energy: -55.410361900497 gnorm: 0.032525643025 xtb: 6.3.3 (4ae9cef)
O         2.94613115166323   -0.83965328257687    2.05892625484920
C         3.42733867322041   -0.42345355146073    1.03097970499993
O         4.75243013662489   -0.27558888426786    0.82447291853701
C         5.58788103208568   -0.65610600691768    1.91270689275492
C         2.62259229281924   -0.00165647222294   -0.14594136372001
C         1.23815839493753   -0.17568164055188   -0.08045688720153
C         0.45291758394124    0.21872855950769   -1.16190329893751
C         1.06881778265244    0.70651679991701   -2.33927282821996
C         2.45614302266895    0.88977400138378   -2.38258717137188
C         3.21999340163772    0.55095961462227   -1.28485089957089
C         0.04572508370337    0.88984869796789   -3.30452910758993
C        -1.13065612145493    0.53704882734275   -2.71404773513124
N        -0.91920531012296    0.16636444704489   -1.39947631934308
C        -1.97995823585394   -0.11638912628948   -0.51030364149163
N        -3.15670877952354   -0.43092249311980   -1.06853595385986
C        -4.18774584845765   -0.68945091013127   -0.26606400409009
C        -4.13051208735772   -0.65883963676385    1.12107112407056
C        -5.32780140476554   -0.95684945543641    1.97130162052471
C        -2.91484591162945   -0.28604114875272    1.68345825390947
C        -1.83053320730239   -0.00079619367609    0.86737899728587
H         5.44337920222796   -1.71215591901169    2.15018155054815
H         6.62044986313860   -0.48649912415378    1.60363742822295
H         5.36329693653912   -0.05202062565649    2.79433665521695
H         0.81940542940089   -0.65711100580690    0.78998852095935
H         2.92634593382540    1.28866804383146   -3.27098276490034
H         4.29052534523485    0.69757365398195   -1.32254673252828
H         0.16919598409393    1.23216658115560   -4.31631799532182
H        -2.12673146782045    0.52203819697826   -3.11591496478043
H        -5.10967762428308   -0.93776498204493   -0.77920611768466
H        -5.02901313651471   -1.36638433359821    2.93673996245109
H        -5.99088672414538   -1.67300261893143    1.48611882791503
H        -5.89377243151375   -0.04280782131878    2.15530867246995
H        -2.80973467153201   -0.20943728655575    2.75763627180164
H        -0.91294628813795    0.33843309551198    1.31869512922634
34
 energy: -55.412172472626 gnorm: 0.008878152745 xtb: 6.3.3 (4ae9cef)
O         2.94611444900174   -0.84045322774676    2.05291559278785
C         3.41072891526791   -0.41424590405273    1.02351084677767
O         4.73300977299628   -0.27466344253306    0.82403115440816
C         5.57020679736106   -0.65498371960503    1.90547173800588
C         2.60474808023923   -0.00261450611408   -0.14917422086938
C         1.22767305759062   -0.18052863022063   -0.07625854317409
C         0.44871124064524    0.21084769756571   -1.15060183545909
C         1.06583731952676    0.69642687713670   -2.33610297897118
C         2.44721069466033    0.87942727310401   -2.38715423397127
C         3.20465968191694    0.54725014627729   -1.29246186007532
C         0.03094136647934    0.88585157913869   -3.29228581788790
C        -1.13415329472553    0.54047719999095   -2.68845279834478
N        -0.91541786664085    0.15440192039297   -1.38455383367455
C        -1.95938344852618   -0.11341777461146   -0.49956410539231
N        -3.11909887265320   -0.44001646557509   -1.05777326414346
C        -4.15096212700434   -0.69447953933707   -0.27733605515006
C        -4.11332653039726   -0.65584033220525    1.11235304240808
C        -5.31584461738705   -0.95600143798377    1.95272325294773
C        -2.90154290521439   -0.28186334045296    1.68447019797799
C        -1.81522311040698    0.00736269739701    0.88160136658693
H         5.42252896828226   -1.70882799454174    2.14933423760976
H         6.59304056789179   -0.47974107325951    1.57809361294023
H         5.34461671642884   -0.05654828901909    2.79028029177606
H         0.82133390489217   -0.64553390807226    0.80692984651034
H         2.91043040541096    1.27261520860253   -3.27874169691788
H         4.27337910589747    0.68867417833694   -1.31168236725486
H         0.14961259745778    1.23431667855510   -4.29825547143881
H        -2.13331456549421    0.53879630883921   -3.07486579351193
H        -5.06807874028749   -0.94063696594298   -0.79819173972964
H        -5.01734986596806   -1.36022929416955    2.91751009526551
H        -5.97344188458935   -1.66639183994564    1.45803932086620
H        -5.88327623058919   -0.04285452787488    2.13467106383334
H        -2.80931651759709   -0.20197304970201    2.75744931640268
H        -0.89505506446561    0.34490549762843    1.32407263886213
34
 energy: -55.412394139432 gnorm: 0.004729954811 xtb: 6.3.3 (4ae9cef)
O         2.94441026759222   -0.83966856694086    2.05264453275720
C         3.40722440401843   -0.41968101216239    1.01789178545495
O         4.72881842681761   -0.27566420220752    0.82033325447631
C         5.56284689161715   -0.65350782268214    1.90311934642780
C         2.60348181770245   -0.00255706661271   -0.15029907647466
C         1.22687486239578   -0.17792931909098   -0.07268392166496
C         0.44981876897518    0.21165378809126   -1.14894915862625
C         1.06456474976924    0.69374929456885   -2.33758666545287
C         2.44616300598158    0.87211283877142   -2.39275791396776
C         3.20421938685560    0.54187967301544   -1.29633323560184
C         0.02426446355172    0.88911333948400   -3.28810984024782
C        -1.13862849149638    0.54784619039692   -2.67797837498919
N        -0.91171343389250    0.15537480342962   -1.37859280589104
C        -1.94896360822302   -0.11554870224577   -0.49203878669371
N        -3.10551930897055   -0.44889621501410   -1.05347183303717
C        -4.14176568547672   -0.70016196114510   -0.27946469008824
C        -4.10840604990960   -0.65481452943389    1.11012877824391
C        -5.31309047471136   -0.95583734635688    1.94403828827030
C        -2.89946373928214   -0.27617687203183    1.68739466192452
C        -1.80863169285446    0.01120350889986    0.89074349362620
H         5.41489981963256   -1.70749439469955    2.14771345981087
H         6.58391267733930   -0.47677375900312    1.57451773232018
H         5.33451979823824   -0.05511679191210    2.78770446843642
H         0.82500202612132   -0.64130560303898    0.81394704976714
H         2.90642295430416    1.26083178562915   -3.28815619817099
H         4.27344865562017    0.67847450274254   -1.30950160322414
H         0.14062556048337    1.23962348522601   -4.29358472351473
H        -2.14245366800547    0.55422072604085   -3.05435580143616
H        -5.05416915311203   -0.95745675985148   -0.80328955431515
H        -5.01766604625483   -1.36083347423827    2.90919161981631
H        -5.96591697049425   -1.66599622467694    1.44285325869460
H        -5.88127883023940   -0.04213011822997    2.12222565583027
H        -2.81380072851048   -0.19481711270285    2.76133177507966
H        -0.89005265558294    0.35579191798150    1.33137602246009
34
 energy: -55.412507796736 gnorm: 0.003445911037 xtb: 6.3.3 (4ae9cef)
O         2.94263731309303   -0.83773182049931    2.05048604944329
C         3.40569368656141   -0.41487976830978    1.01563008506785
O         4.72785743869456   -0.27429563015826    0.81780508412484
C         5.55764604826265   -0.65345782780666    1.90207111278925
C         2.60514102276784   -0.00529811268287   -0.15403535374631
C         1.22811420417959   -0.17864596933010   -0.07237618586393
C         0.45209450430806    0.21261383136107   -1.14955370943413
C         1.06385608221132    0.69200971144804   -2.34017489537374
C         2.44667149155360    0.86260979660038   -2.40021600694377
C         3.20610532390676    0.53202657206523   -1.30346110333066
C         0.01862954541704    0.89608168540969   -3.28407586349400
C        -1.14305223938290    0.55955703889526   -2.66822521397963
N        -0.90831138750450    0.16308737637949   -1.37226779589708
C        -1.94104790649311   -0.11279086571631   -0.48321710555573
N        -3.09330882939377   -0.45980005088787   -1.04858273230452
C        -4.13251782423734   -0.71480477151110   -0.27940300116032
C        -4.10387466617806   -0.65818703108054    1.10952757967340
C        -5.31266350067337   -0.95739466163086    1.93597951713512
C        -2.89972212487165   -0.26984574651983    1.69154142705177
C        -1.80544318219406    0.01970852457606    0.90049700375684
H         5.40666016434931   -1.70731107460482    2.14678718616856
H         6.57914782490879   -0.47840494192973    1.57585481393729
H         5.32731609366028   -0.05415374747969    2.78586949254674
H         0.82898326490350   -0.63703781923868    0.81843217676936
H         2.90485863712527    1.24540434303386   -3.29970451117704
H         4.27598116068198    0.66341174196123   -1.31334795223869
H         0.13260612750864    1.24922500962305   -4.28926094855844
H        -2.15136686259581    0.57434075333794   -3.03402835880910
H        -5.04045432928513   -0.98162190596374   -0.80616107300279
H        -5.02422273497599   -1.36280998098938    2.90307221041165
H        -5.96097043299890   -1.66784670343791    1.42895874538006
H        -5.88183997448358   -0.04303288184839    2.10854888461038
H        -2.82209820317834   -0.18309868453170    2.76632007429232
H        -0.88910773564723    0.37188161146623    1.34071136771126
34
 energy: -55.412581493458 gnorm: 0.003874454974 xtb: 6.3.3 (4ae9cef)
O         2.94246991097261   -0.83510741467679    2.04765704247626
C         3.40722014623259   -0.41761977084868    1.01107930091515
O         4.73016096234829   -0.27589580628735    0.81561048688148
C         5.55587291622042   -0.65322906678429    1.90334827771235
C         2.60780313581781   -0.00832833618293   -0.15835379950639
C         1.22964683524225   -0.17570957105134   -0.07247205720176
C         0.45404385700962    0.21629713252355   -1.15001941403257
C         1.06372371937253    0.69222791703543   -2.34233266432555
C         2.44795870484790    0.85359209437312   -2.40710596992709
C         3.20859745531462    0.52125194672617   -1.31153275607291
C         0.01546071066299    0.90503476891911   -3.28071063160200
C        -1.14591202608992    0.57355504838191   -2.66092906064181
N        -0.90674759038637    0.17421513192893   -1.36685797044623
C        -1.93748666200822   -0.10902873985910   -0.47645881819300
N        -3.08496137425800   -0.47013943665737   -1.04458915985342
C        -4.12518029739603   -0.73068579835070   -0.27786592485626
C        -4.10145457527830   -0.66272910016986    1.11035436167905
C        -5.31439561671176   -0.96076709477957    1.93083287875986
C        -2.90237356432365   -0.26320582399936    1.69513665041968
C        -1.80657872538694    0.02956664556756    0.90710009103907
H         5.40331384452720   -1.70681717048533    2.14874302928303
H         6.57916587859973   -0.47949113033485    1.58193450580866
H         5.32220271112162   -0.05256611765919    2.78550631544640
H         0.83097181256289   -0.62981386691356    0.82054945148364
H         2.90555704125839    1.22997844588339   -3.30983425865130
H         4.27944538900786    0.64459478151555   -1.32354508507471
H         0.12765432539065    1.25996150156216   -4.28574362185322
H        -2.15656126640313    0.59444932982900   -3.01960435289448
H        -5.02806653906418   -1.00999696633133   -0.80673368395999
H        -5.03331402500297   -1.36603592543225    2.90026302047868
H        -5.95977707668815   -1.67149686016866    1.42009819767928
H        -5.88435875520756   -0.04599818235871    2.09869563264861
H        -2.83125836207309   -0.16954227085183    2.77006460225354
H        -0.89284490023181    0.38898770593715    1.34771638412808
34
 energy: -55.412666371822 gnorm: 0.003613653771 xtb: 6.3.3 (4ae9cef)
O         2.94336824362975   -0.83147247797977    2.04418322985045
C         3.41034338620482   -0.41826276116130    1.00715707570538
O         4.73448833135619   -0.27864599403133    0.81399189015310
C         5.55526512693143   -0.65419553714301    1.90636120248905
C         2.61143257397090   -0.01336721324780   -0.16441749836813
C         1.23186475298622   -0.17016210954875   -0.07308054457606
C         0.45606916509736    0.22291979571193   -1.14993872733164
C         1.06369860642738    0.69378260467471   -2.34472168373990
C         2.44970811070746    0.84084728252390   -2.41613783568112
C         3.21183065045441    0.50446172887579   -1.32334300365913
C         0.01289125600949    0.91770903689608   -3.27691270259355
C        -1.14856804583224    0.59472589235905   -2.65239630547376
N        -0.90622369523804    0.19144118489280   -1.36003714526038
C        -1.93562110782393   -0.10383736037375   -0.46968339300813
N        -3.07576597292617   -0.48403753399971   -1.04026254589714
C        -4.11578785529966   -0.75243140309243   -0.27542766425673
C        -4.09967075797057   -0.66916221557276    1.11196543968961
C        -5.31735271858691   -0.96723617080498    1.92609635743232
C        -2.90753180960978   -0.25326884176633    1.69894479143119
C        -1.81104458295161    0.04377360787373    0.91292062130121
H         5.40025121062749   -1.70703984221137    2.15344069574872
H         6.58130674954894   -0.48296663339430    1.59101437850515
H         5.31813202585787   -0.05113877060752    2.78595392435257
H         0.83151665083257   -0.61558316229411    0.82327210558722
H         2.90735275612143    1.20937296130529   -3.32210191268151
H         4.28400502593946    0.61661494950866   -1.34147183822566
H         0.12299473567124    1.27412324770354   -4.28177606169198
H        -2.16077897227792    0.62317217037057   -3.00461357686183
H        -5.01132767697688   -1.05119338661147   -0.80629169345599
H        -5.04444793960690   -1.37213486778779    2.89808543004123
H        -5.96017463118221   -1.67786458380179    1.41180507137056
H        -5.88779401796974   -0.05203905223836    2.08954183549159
H        -2.84320528335307   -0.15029136462752    2.77339757670301
H        -0.90122629076896    0.41289481960011    1.35448350691049
34
 energy: -55.412727984138 gnorm: 0.002685013766 xtb: 6.3.3 (4ae9cef)
O         2.94488432093291   -0.82940169206701    2.04198358089531
C         3.41332966880684   -0.42180787509990    1.00384732980138
O         4.73812086990112   -0.28393642393685    0.81247806062816
C         5.55550173275721   -0.65549324470686    1.90931696060380
C         2.61396511656469   -0.01916027590415   -0.16926477458257
C         1.23330829858553   -0.16231077221146   -0.07242603844299
C         0.45702254888396    0.23088584052752   -1.14836981601410
C         1.06371022672426    0.69583614395980   -2.34603727742728
C         2.45100980531010    0.82770894057739   -2.42376399834905
C         3.21429141971324    0.48602486479912   -1.33400287603226
C         0.01164958626352    0.92998253403144   -3.27358999565501
C        -1.14993657557373    0.61590516662083   -2.64497323817376
N        -0.90688848440806    0.20994613958535   -1.35363183319021
C        -1.93594204103619   -0.09628748284306   -0.46526970483598
N        -3.06754389822269   -0.49751062492861   -1.03726395484768
C        -4.10601475038639   -0.77491450478267   -0.27373181795959
C        -4.09861443976427   -0.67620402660186    1.11291768056802
C        -5.31928496918649   -0.97587453759667    1.92280461638927
C        -2.91369696078896   -0.24210694320038    1.70121893960970
C        -1.81772707647614    0.06076405722821    0.91619257840810
H         5.39945636064868   -1.70727913421846    2.15978259500529
H         6.58332969866284   -0.48578952690771    1.59776391887421
H         5.31535293605345   -0.04920935035974    2.78574379778312
H         0.82980365021578   -0.59697611137787    0.82771611840087
H         2.90922754696263    1.18882035808612   -3.33226492501112
H         4.28781571751720    0.58546688592652   -1.36027868562146
H         0.11991448600819    1.28790081200435   -4.27802170193248
H        -2.16280247443320    0.65285382822906   -2.99362297629819
H        -4.99459026391521   -1.09207457349929   -0.80556994166941
H        -5.05076928505511   -1.38010041160752    2.89616492434108
H        -5.96010172863364   -1.68655812793561    1.40636437355107
H        -5.89042802212321   -0.06077149174433    2.08407069513886
H        -2.85482946583344   -0.12888614095342    2.77470629695824
H        -0.91252555467567    0.44006570090769    1.35901208908699
34
 energy: -55.412761402694 gnorm: 0.001601715354 xtb: 6.3.3 (4ae9cef)
O         2.94539602362215   -0.83012040841781    2.04200591963369
C         3.41401511381577   -0.42514162486900    1.00315237552140
O         4.73872765967813   -0.28939978239620    0.81138927750450
C         5.55588136140240   -0.65675494257333    1.91018719892191
C         2.61420849220460   -0.02392334118324   -0.17093910560420
C         1.23307430253604   -0.15611301787491   -0.07073849206501
C         0.45667682586198    0.23717565674460   -1.14624972838125
C         1.06380113638916    0.69749765979755   -2.34590623584181
C         2.45160052324311    0.81837551240875   -2.42724775906437
C         3.21514867900157    0.47215489856659   -1.33919104175529
C         0.01185457243889    0.93766037162622   -3.27177434231250
C        -1.15006383649569    0.62998008170255   -2.64086607472274
N        -0.90792746152003    0.22281116363460   -1.34991749995417
C        -1.93699662026619   -0.08979672090882   -0.46395386332640
N        -3.06242521590429   -0.50526559151157   -1.03625927242279
C        -4.09965351231712   -0.78796362498845   -0.27342323376309
C        -4.09827036177774   -0.68001104118889    1.11257257964633
C        -5.31864436510628   -0.98401421542483    1.92151165733271
C        -2.91859920699161   -0.23231903406725    1.70131281651127
C        -1.82341509719390    0.07510219150415    0.91676858722605
H         5.40042196674464   -1.70760576261303    2.16448774524545
H         6.58368037388748   -0.48725595227736    1.59836565715554
H         5.31474040898031   -0.04743547680393    2.78411157296688
H         0.82668264753661   -0.58214648375831    0.83235951238849
H         2.91060450668493    1.17474858601439   -3.33706752363561
H         4.28935660782259    0.56253768342282   -1.37092344006188
H         0.11954182011457    1.29567548145362   -4.27605929988855
H        -2.16270038489690    0.67277962391133   -2.98948996283615
H        -4.98309763469848   -1.11950692996392   -0.80510558667457
H        -5.04920384399813   -1.38844251786288    2.89436720305405
H        -5.95803870218546   -1.69512923757960    1.40420080554713
H        -5.89129326547673   -0.07008200578744    2.08407731873467
H        -2.86271283219042   -0.11203578158933    2.77395705884318
H        -0.92237268094626    0.46347258285290    1.36028617607755
34
 energy: -55.412793454135 gnorm: 0.001639408293 xtb: 6.3.3 (4ae9cef)
O         2.94412684550980   -0.83409134298895    2.04446529402235
C         3.41196455497280   -0.43201988068779    1.00418477431257
O         4.73591910832516   -0.29854603338478    0.80985489302919
C         5.55627117261356   -0.65858953764452    1.90902554308189
C         2.61165663322259   -0.03008111933294   -0.16999784241767
C         1.22996976241648   -0.14762161935851   -0.06677985978398
C         0.45475716123324    0.24595203174578   -1.14293194192963
C         1.06434196951114    0.69952006510356   -2.34457453053165
C         2.45242402341100    0.80711576700349   -2.42853148122914
C         3.21488987391048    0.45504174567781   -1.34128921769789
C         0.01387351336929    0.94506832030128   -3.27072626618586
C        -1.14916182375601    0.64498348468803   -2.63840783769661
N        -0.90988353829049    0.23874302034086   -1.34714882927962
C        -1.93946684011722   -0.07804735355386   -0.46442213317355
N        -3.05739048571299   -0.51140296842034   -1.03637701758836
C        -4.09264456384130   -0.80155660215664   -0.27406573189937
C        -4.09751784235050   -0.68368057673577    1.11095619778860
C        -5.31427127754478   -0.99738422203166    1.92150259350834
C        -2.92474297892697   -0.21715595552045    1.69955413497379
C        -1.83135338374763    0.09766402061588    0.91550341975967
H         5.40388108388048   -1.70823372338464    2.16960496006932
H         6.58236924523983   -0.48793154220605    1.59293098760999
H         5.31557831773987   -0.04486884671902    2.77988981931403
H         0.81943669512299   -0.56312551484383    0.83956330953832
H         2.91329016032614    1.15777574091913   -3.33950689876201
H         4.28970374164837    0.53381029014783   -1.37804284459870
H         0.12243038675677    1.30155280423518   -4.27523246031189
H        -2.16069997242052    0.69392453569424   -2.99005126926683
H        -4.97080693222731   -1.14737420859010   -0.80450374415832
H        -5.03848771311890   -1.40359952249451    2.89177828498583
H        -5.95149697231421   -1.70988274273880    1.40373301359139
H        -5.89101039733691   -0.08696174932104    2.08978631071564
H        -2.87188969056357   -0.08845229713075    2.77118457875985
H        -0.93606183694108    0.49896353277183    1.35907279145083
34
 energy: -55.412814726374 gnorm: 0.001557574989 xtb: 6.3.3 (4ae9cef)
O         2.94093045801781   -0.83745411528635    2.04726015884694
C         3.40795082847194   -0.43554567691957    1.00645568951501
O         4.73149009389870   -0.30353299638380    0.80939831851960
C         5.55545688954162   -0.66021198275090    1.90679694281614
C         2.60803061412576   -0.03273675956616   -0.16751435175836
C         1.22585173810078   -0.14381946272756   -0.06415734382504
C         0.45304261930653    0.25089902274548   -1.14188806307205
C         1.06509443987499    0.70025572951461   -2.34384942207010
C         2.45351640329659    0.80164443937677   -2.42756465035247
C         3.21389772207984    0.44741759635523   -1.33933210011135
C         0.01593493448827    0.94703250576575   -3.27146154485405
C        -1.14852594751149    0.65080583373572   -2.63955765552158
N        -0.91099946321868    0.24666721968959   -1.34757941159499
C        -1.94072978732412   -0.06988376419008   -0.46525920808539
N        -3.05576500616579   -0.51073414910312   -1.03678816687147
C        -4.09036853494068   -0.80401310090688   -0.27448664440127
C        -4.09608818104970   -0.68329710755370    1.11001005699463
C        -5.30872136357540   -1.00694823536920    1.92264797074060
C        -2.92710573397928   -0.20635878419487    1.69805140229390
C        -1.83507266670053    0.11288103746939    0.91423203394645
H         5.40558203414963   -1.70942756270980    2.17042852157328
H         6.58002368158557   -0.48870733997681    1.58657632304992
H         5.31668711597989   -0.04451627985914    2.77682649441137
H         0.81324760905364   -0.55522039030227    0.84310913216222
H         2.91619277504447    1.14878521423292   -3.33905835999603
H         4.28894461577035    0.52051425172921   -1.37561302677777
H         0.12652484921604    1.30105768443955   -4.27664528336704
H        -2.15937129953457    0.70115287452749   -2.99350762372388
H        -4.96565634714042   -1.15892419483153   -0.80440147220538
H        -5.02710257049034   -1.41663069174255    2.88998308370462
H        -5.94381663854002   -1.72059476383004    1.40363357527646
H        -5.88982395447620   -0.10051152968509    2.09755444162095
H        -2.87629550745126   -0.07350624149032    2.76941015502852
H        -0.94295841990439    0.52296971979796    1.35629102808822
34
 energy: -55.412834666929 gnorm: 0.001257760204 xtb: 6.3.3 (4ae9cef)
O         2.93568732189136   -0.84046448613413    2.05103141252184
C         3.40189452233283   -0.43978652829376    1.00936079258633
O         4.72529494201919   -0.30850533628524    0.80977854035683
C         5.55323776893417   -0.66263995924419    1.90460468845250
C         2.60266499942426   -0.03453485654082   -0.16397573207126
C         1.21978940593982   -0.14020705732868   -0.06176166370651
C         0.45082578618568    0.25621406261760   -1.14195463438575
C         1.06611081791715    0.70053860997436   -2.34382229535935
C         2.45506338266598    0.79661195428161   -2.42594981779584
C         3.21209538359623    0.44131780021305   -1.33581187492162
C         0.01885492458480    0.94736358158635   -3.27376557070564
C        -1.14758937904478    0.65495056075081   -2.64342637490065
N        -0.91250257818745    0.25480412333810   -1.34990057065094
C        -1.94266908444100   -0.05895823137936   -0.46691507616599
N        -3.05528747369449   -0.50765358261907   -1.03741180628060
C        -4.08802736173852   -0.80685159977269   -0.27430956228429
C        -4.09291667616662   -0.68330063446712    1.10984996204369
C        -5.30028559305037   -1.01911531974068    1.92531911812668
C        -2.92832054549897   -0.19320168960395    1.69625059277687
C        -1.83870257705240    0.13176379625454    0.91179830259914
H         5.40584169237734   -1.71160932513359    2.17065033568941
H         6.57631176302542   -0.49072802764346    1.57992937374957
H         5.31756423611823   -0.04543985430894    2.77448872162106
H         0.80471885068196   -0.54885349336281    0.84555815180073
H         2.92032562378388    1.13961867491671   -3.33773044803015
H         4.28745552111998    0.50896542148052   -1.36949910328712
H         0.13267473097676    1.29826482823192   -4.27981118534183
H        -2.15776063521670    0.70572185737863   -2.99950633286144
H        -4.96206701531508   -1.16368133952563   -0.80322853405318
H        -5.01155819635302   -1.43403267043257    2.88856571952356
H        -5.93259653143336   -1.73383535457078    1.40425370071908
H        -5.88701926784040   -0.11813114371210    2.10931815067963
H        -2.87974670902961   -0.05611119276969    2.76728744557421
H        -0.94936404951282    0.55101441184497    1.35073657398172
34
 energy: -55.412846345943 gnorm: 0.000829057366 xtb: 6.3.3 (4ae9cef)
O         2.93111959335237   -0.84095317552659    2.05342948654208
C         3.39723526698593   -0.44014878175796    1.01193952997793
O         4.72100816786255   -0.31041612417883    0.81143125610945
C         5.55019642673904   -0.66590423535744    1.90447934733776
C         2.59889557035348   -0.03460538951224   -0.16184716945120
C         1.21563562790540   -0.13817704082608   -0.06126425037517
C         0.44939971244055    0.25934371467571   -1.14312804522797
C         1.06667715431486    0.70024116703112   -2.34491268381281
C         2.45605586795237    0.79399458890425   -2.42533564746996
C         3.21058332472137    0.43921164154123   -1.33358991099657
C         0.02095501791753    0.94618257708432   -3.27669226323051
C        -1.14695188125444    0.65683714552955   -2.64748221618636
N        -0.91368191879301    0.25959556305349   -1.35260167360734
C        -1.94414243511339   -0.05190260933769   -0.46872830383629
N        -3.05600438928734   -0.50357973661189   -1.03790309977039
C        -4.08733614109160   -0.80425640392608   -0.27329318141077
C        -4.08992023020607   -0.68164503317490    1.11081996084853
C        -5.29289332773189   -1.02846323800888    1.92836371855013
C        -2.92791535009692   -0.18364443332285    1.69513766763367
C        -1.84064654984551    0.14499232453606    0.90910209042981
H         5.40265660052202   -1.71491817767895    2.17025170184690
H         6.57295687613128   -0.49486166822484    1.57815436780267
H         5.31700556352900   -0.04888104825890    2.77518628505449
H         0.79839598139923   -0.54539195080412    0.84576148020609
H         2.92324690757129    1.13423238380695   -3.33711753603037