34
 energy: -55.412888136547 gnorm: 0.000570927174 xtb: 6.3.3 (4ae9cef)
O         2.89418261722022   -0.81387517160306    2.05564399669218
C         3.37452336853373   -0.42364857426157    1.01636080099918
O         4.70202856653002   -0.31786178546917    0.82718155557403
C         5.51041546418087   -0.70138420972218    1.92693484367784
C         2.58854342790092   -0.01325433931956   -0.16377776079027
C         1.20463338010560   -0.10888535946961   -0.06841810725017
C         0.44468662424888    0.27979354438806   -1.15724055938710
C         1.06705545557488    0.70365712167159   -2.36230641671750
C         2.45745465792089    0.79385086594658   -2.43603233367233
C         3.20650314195434    0.44853099348127   -1.33719979555692
C         0.02433935318060    0.93953623284109   -3.30022926145603
C        -1.14617567788339    0.66120110386802   -2.67065966276241
N        -0.91765132288016    0.28140369227910   -1.37002215409193
C        -1.94465695118376   -0.02796088338203   -0.48176197694394
N        -3.05118658333324   -0.50614426952692   -1.03946393159136
C        -4.07019599434437   -0.82009204984319   -0.26373616772856
C        -4.06471312021090   -0.68637411676963    1.11977151049675
C        -5.24889141822580   -1.06217540921351    1.95157243926278
C        -2.91226502243555   -0.15115790600900    1.69026408299034
C        -1.83880704143333    0.19309646470281    0.89210792752917
H         5.34016941879794   -1.75132707890518    2.17544287810191
H         6.54070843362131   -0.54401222611613    1.61796222165565
H         5.27468317529468   -0.09320887095232    2.80306966176781
H         0.78020140999049   -0.50623135638794    0.83966428734863
H         2.93032715150027    1.12345939631197   -3.34878499756711
H         4.28248199919823    0.51263710587264   -1.36483036188098
H         0.14355774108651    1.27297812049658   -4.31160621103050
H        -2.15512436197971    0.70900111411896   -3.03018630914705
H        -4.94027935105383   -1.20405217024400   -0.78141491188456
H        -4.93199308657231   -1.51977310601868    2.88644686650376
H        -5.89248615320777   -1.75568322039755    1.41628032590650
H        -5.83240836653526   -0.17340960267828    2.19428735302289
H        -2.86046742635445    0.00364845883248    2.75855873490946
H        -0.95919550920743    0.64722549147813    1.31612243302092
