      -----------------------------------------------------------      
     |                   =====================                   |     
     |                           x T B                           |     
     |                   =====================                   |     
     |                         S. Grimme                         |     
     |          Mulliken Center for Theoretical Chemistry        |     
     |                    University of Bonn                     |     
      -----------------------------------------------------------      

   * xtb version 6.3.3 (4ae9cef) compiled by 'conda@95abc7406d43' on 2020-10-14

   xtb is free software: you can redistribute it and/or modify it under
   the terms of the GNU Lesser General Public License as published by
   the Free Software Foundation, either version 3 of the License, or
   (at your option) any later version.
   
   xtb is distributed in the hope that it will be useful,
   but WITHOUT ANY WARRANTY; without even the implied warranty of
   MERCHANTABILITY or FITNESS FOR A PARTICULAR PURPOSE.  See the
   GNU Lesser General Public License for more details.
   
   Cite this work as:
   * C. Bannwarth, E. Caldeweyher, S. Ehlert, A. Hansen, P. Pracht,
     J. Seibert, S. Spicher, S. Grimme, WIREs Comput. Mol. Sci., 2020,
     e01493. DOI: 10.1002/wcms.1493
   
   for GFN2-xTB:
   * S. Grimme, C. Bannwarth, P. Shushkov, J. Chem. Theory Comput., 2017,
     13, 1989-2009. DOI: 10.1021/acs.jctc.7b00118
   for GFN1-xTB:
   * C. Bannwarth, S. Ehlert and S. Grimme., J. Chem. Theory Comput., 2019,
     15, 1652-1671. DOI: 10.1021/acs.jctc.8b01176
   for GFN0-xTB:
   * P. Pracht, E. Caldeweyher, S. Ehlert, S. Grimme, ChemRxiv, 2019, preprint.
     DOI: 10.26434/chemrxiv.8326202.v1
   for GFN-FF:
   * S. Spicher and S. Grimme, Angew. Chem. Int. Ed., 2020, 59, 15665-15673.
     DOI: 10.1002/anie.202004239
   
   for DFT-D4:
   * E. Caldeweyher, C. Bannwarth and S. Grimme, J. Chem. Phys., 2017,
     147, 034112. DOI: 10.1063/1.4993215
   * E. Caldeweyher, S. Ehlert, A. Hansen, H. Neugebauer, S. Spicher,
     C. Bannwarth and S. Grimme, J. Chem. Phys., 2019, 150, 154122.
     DOI: 10.1063/1.5090222
   * E. Caldeweyher, J.-M. Mewes, S. Ehlert and S. Grimme, Phys. Chem. Chem. Phys.
     2020, 22, 8499-8512. DOI: 10.1039/D0CP00502A
   
   for sTDA-xTB:
   * S. Grimme and C. Bannwarth, J. Chem. Phys., 2016, 145, 054103.
     DOI: 10.1063/1.4959605
   
   in the mass-spec context:
   * V. Asgeirsson, C. Bauer and S. Grimme, Chem. Sci., 2017, 8, 4879.
     DOI: 10.1039/c7sc00601b
   * J. Koopman and S. Grimme, ACS Omega 2019, 4, 12, 15120-15133.
     DOI: 10.1021/acsomega.9b02011
   
   for metadynamics refer to:
   * S. Grimme, J. Chem. Theory Comput., 2019, 155, 2847-2862
     DOI: 10.1021/acs.jctc.9b00143
   
   with help from (in alphabetical order)
   C. Bannwarth, F. Bohle, G. Brandenburg, E. Caldeweyher, M. Checinski,
   S. Dohm, S. Ehlert, S. Ehrlich, F. März, H. Neugebauer, J. Pisarek,
   P. Pracht, P. Shushkov, and S. Spicher.
   
 * started run on 2022/03/16 at 22:33:09.178     

           -------------------------------------------------
          |                Calculation Setup                |
           -------------------------------------------------

          program call               : xtb acid_210.xyz --opt --chrg 0 --uhf 0 --gfn 2
          coordinate file            : acid_210.xyz
          omp threads                :                    64
          number of atoms            :                    78
          number of electrons        :                   262
          charge                     :                     0
          spin                       :                   0.0
          first test random number   :      0.73017071366665

   ID    Z sym.   atoms
    1    6 C      1-22, 24-29, 33, 34, 36, 37, 41-46, 50, 51
    2    7 N      23, 40
    3    9 F      30-32, 47-49
    4    8 O      35, 38, 39, 52
    5    1 H      53-78

           -------------------------------------------------
          |                 G F N 2 - x T B                 |
           -------------------------------------------------

        Reference                      10.1021/acs.jctc.8b01176
      * Hamiltonian:
        H0-scaling (s, p, d)           1.850000    2.230000    2.230000
        zeta-weighting                 0.500000
      * Dispersion:
        s8                             2.700000
        a1                             0.520000
        a2                             5.000000
        s9                             5.000000
      * Repulsion:
        kExp                           1.500000    1.000000
        rExp                           1.000000
      * Coulomb:
        alpha                          2.000000
        third order                    shell-resolved
        anisotropic                    true
        a3                             3.000000
        a5                             4.000000
        cn-shift                       1.200000
        cn-exp                         4.000000
        max-rad                        5.000000


          ...................................................
          :                      SETUP                      :
          :.................................................:
          :  # basis functions                 234          :
          :  # atomic orbitals                 234          :
          :  # shells                          130          :
          :  # electrons                       262          :
          :  max. iterations                   250          :
          :  Hamiltonian                  GFN2-xTB          :
          :  restarted?                      false          :
          :  GBSA solvation                  false          :
          :  PC potential                    false          :
          :  electronic temp.          300.0000000     K    :
          :  accuracy                    1.0000000          :
          :  -> integral cutoff          0.2500000E+02      :
          :  -> integral neglect         0.1000000E-07      :
          :  -> SCF convergence          0.1000000E-05 Eh   :
          :  -> wf. convergence          0.1000000E-03 e    :
          :  Broyden damping             0.4000000          :
          ...................................................

 iter      E             dE          RMSdq      gap      omega  full diag
   1   -151.0676323 -0.151068E+03  0.455E+00    2.41       0.0  T
   2   -151.2755811 -0.207949E+00  0.257E+00    2.16       1.0  T
   3   -151.2733044  0.227672E-02  0.127E+00    2.01       1.0  T
   4   -151.2957010 -0.223967E-01  0.297E-01    1.61       1.0  T
   5   -151.3015527 -0.585163E-02  0.115E-01    1.66       1.0  T
   6   -151.3021009 -0.548176E-03  0.613E-02    1.68       1.0  T
   7   -151.3022651 -0.164239E-03  0.226E-02    1.68       1.0  T
   8   -151.3022736 -0.855840E-05  0.105E-02    1.69       1.1  T
   9   -151.3022787 -0.507792E-05  0.329E-03    1.69       3.4  T
  10   -151.3022789 -0.162187E-06  0.169E-03    1.69       6.7  T
  11   -151.3022790 -0.661430E-07  0.763E-04    1.69      14.8  T
  12   -151.3022790 -0.227072E-07  0.323E-04    1.69      35.0  T

   *** convergence criteria satisfied after 12 iterations ***

         #    Occupation            Energy/Eh            Energy/eV
      -------------------------------------------------------------
         1        2.0000           -0.8781175             -23.8948
       ...           ...                  ...                  ...
       125        2.0000           -0.4229278             -11.5085
       126        2.0000           -0.4182138             -11.3802
       127        2.0000           -0.4135751             -11.2539
       128        2.0000           -0.4047638             -11.0142
       129        2.0000           -0.4038908             -10.9904
       130        2.0000           -0.3886121             -10.5747
       131        2.0000           -0.3801254             -10.3437 (HOMO)
       132                         -0.3179364              -8.6515 (LUMO)
       133                         -0.3014095              -8.2018
       134                         -0.2883239              -7.8457
       135                         -0.2814208              -7.6578
       136                         -0.2728102              -7.4235
       ...                                ...                  ...
       234                          0.6805487              18.5187
      -------------------------------------------------------------
                  HL-Gap            0.0621890 Eh            1.6922 eV
             Fermi-level           -0.3490309 Eh           -9.4976 eV

 SCC (total)                   0 d,  0 h,  0 min,  0.678 sec
 SCC setup                      ...        0 min,  0.017 sec (  2.573%)
 Dispersion                     ...        0 min,  0.012 sec (  1.826%)
 classical contributions        ...        0 min,  0.017 sec (  2.500%)
 integral evaluation            ...        0 min,  0.124 sec ( 18.310%)
 iterations                     ...        0 min,  0.359 sec ( 52.916%)
 molecular gradient             ...        0 min,  0.144 sec ( 21.261%)
 printout                       ...        0 min,  0.004 sec (  0.600%)

         :::::::::::::::::::::::::::::::::::::::::::::::::::::
         ::                     SUMMARY                     ::
         :::::::::::::::::::::::::::::::::::::::::::::::::::::
         :: total energy            -149.444755902769 Eh    ::
         :: gradient norm              0.145822874148 Eh/a0 ::
         :: HOMO-LUMO gap              1.692249509580 eV    ::
         ::.................................................::
         :: SCC energy              -151.302278978599 Eh    ::
         :: -> isotropic ES            0.198771724272 Eh    ::
         :: -> anisotropic ES          0.002569657047 Eh    ::
         :: -> anisotropic XC          0.022205177019 Eh    ::
         :: -> dispersion             -0.105154575012 Eh    ::
         :: repulsion energy           1.855304428148 Eh    ::
         :: add. restraining           0.000000000000 Eh    ::
         :: total charge              -0.000000000000 e     ::
         :::::::::::::::::::::::::::::::::::::::::::::::::::::

      ----------------------------------------------------------- 
     |                   =====================                   |
     |                        A N C O P T                        |
     |                   =====================                   |
     |               Approximate Normal Coordinate               |
     |                Rational Function Optimizer                |
      ----------------------------------------------------------- 

          ...................................................
          :                      SETUP                      :
          :.................................................:
          :   optimization level            normal          :
          :   max. optcycles                   234          :
          :   ANC micro-cycles                  20          :
          :   degrees of freedom               228          :
          :.................................................:
          :   RF solver                   davidson          :
          :   write xtbopt.log                true          :
          :   linear?                        false          :
          :   energy convergence         0.5000000E-05 Eh   :
          :   grad. convergence          0.1000000E-02 Eh/α :
          :   maximium RF displ.         1.0000000          :
          :   Hlow (freq-cutoff)         0.1000000E-01      :
          :   Hmax (freq-cutoff)         5.0000000          :
          :   S6 in model hess.         20.0000000          :
          ...................................................

generating ANC from model Hessian ...
Using Lindh-Hessian (1995)
 Shifting diagonal of input Hessian by    9.8956386101009108E-003
 Lowest  eigenvalues of input Hessian
    0.000000    0.000000    0.000000    0.000000    0.000000    0.000000
    0.010000    0.010020    0.010058    0.010088    0.010231    0.010520
    0.010558    0.010683    0.010794    0.010895    0.011137    0.011609
 Highest eigenvalues
    2.010115    2.081182    2.087716    2.204996    2.221134    2.225592


........................................................................
.............................. CYCLE    1 ..............................
........................................................................
   1   -151.3022790 -0.151302E+03  0.156E-04    1.69       0.0  T
   2   -151.3022790 -0.101011E-09  0.118E-04    1.69      96.0  T
   3   -151.3022790 -0.606377E-09  0.704E-05    1.69     160.8  T
     SCC iter.                  ...        0 min,  0.096 sec
     gradient                   ...        0 min,  0.130 sec
 * total energy  :  -149.4447559 Eh     change       -0.4690861E-08 Eh
   gradient norm :     0.1458256 Eh/α   predicted     0.0000000E+00 (-100.00%)
   displ. norm   :     0.3277828 α      lambda       -0.2357285E-01
   maximum displ.:     0.0988707 α      in ANC's #30, #78, #26, ...

........................................................................
.............................. CYCLE    2 ..............................
........................................................................
   1   -151.3940351 -0.151394E+03  0.149E-01    1.84       0.0  T
   2   -151.3942433 -0.208222E-03  0.944E-02    1.83       1.0  T
   3   -151.3942262  0.170931E-04  0.435E-02    1.82       1.0  T
   4   -151.3942860 -0.597833E-04  0.106E-02    1.82       1.1  T
   5   -151.3942949 -0.890474E-05  0.305E-03    1.82       3.7  T
   6   -151.3942953 -0.341575E-06  0.150E-03    1.82       7.5  T
   7   -151.3942953 -0.125388E-07  0.780E-04    1.82      14.5  T
   8   -151.3942953 -0.264098E-07  0.291E-04    1.82      38.9  T
     SCC iter.                  ...        0 min,  0.239 sec
     gradient                   ...        0 min,  0.152 sec
 * total energy  :  -149.4613652 Eh     change       -0.1660932E-01 Eh
   gradient norm :     0.0604471 Eh/α   predicted    -0.1305278E-01 ( -21.41%)
   displ. norm   :     0.3759408 α      lambda       -0.8676914E-02
   maximum displ.:     0.1403924 α      in ANC's #30, #17, #26, ...

........................................................................
.............................. CYCLE    3 ..............................
........................................................................
   1   -151.4452627 -0.151445E+03  0.128E-01    1.91       0.0  T
   2   -151.4453516 -0.889214E-04  0.792E-02    1.91       1.0  T
   3   -151.4453139  0.376982E-04  0.336E-02    1.90       1.0  T
   4   -151.4453740 -0.601019E-04  0.740E-03    1.90       1.5  T
   5   -151.4453783 -0.426661E-05  0.242E-03    1.90       4.7  T
   6   -151.4453784 -0.114413E-06  0.124E-03    1.90       9.1  T
   7   -151.4453785 -0.224285E-07  0.620E-04    1.90      18.3  T
   8   -151.4453785 -0.160457E-07  0.256E-04    1.90      44.1  T
     SCC iter.                  ...        0 min,  0.239 sec
     gradient                   ...        0 min,  0.128 sec
 * total energy  :  -149.4667441 Eh     change       -0.5378852E-02 Eh
   gradient norm :     0.0156184 Eh/α   predicted    -0.4951616E-02 (  -7.94%)
   displ. norm   :     0.3531947 α      lambda       -0.2427544E-02
   maximum displ.:     0.1401367 α      in ANC's #17, #30, #26, ...

........................................................................
.............................. CYCLE    4 ..............................
........................................................................
   1   -151.4525151 -0.151453E+03  0.100E-01    1.90       0.0  T
   2   -151.4525547 -0.396154E-04  0.593E-02    1.91       1.0  T
   3   -151.4525258  0.288993E-04  0.256E-02    1.91       1.0  T
   4   -151.4525639 -0.381181E-04  0.615E-03    1.91       1.8  T
   5   -151.4525670 -0.310486E-05  0.183E-03    1.91       6.2  T
   6   -151.4525671 -0.594445E-07  0.113E-03    1.91      10.0  T
   7   -151.4525671 -0.332558E-07  0.436E-04    1.91      26.0  T
   8   -151.4525671 -0.572260E-08  0.192E-04    1.91      58.9  T
     SCC iter.                  ...        0 min,  0.239 sec
     gradient                   ...        0 min,  0.150 sec
 * total energy  :  -149.4685750 Eh     change       -0.1830886E-02 Eh
   gradient norm :     0.0175314 Eh/α   predicted    -0.1365213E-02 ( -25.43%)
   displ. norm   :     0.4626472 α      lambda       -0.2149281E-02
   maximum displ.:     0.1683448 α      in ANC's #17, #21, #26, ...

........................................................................
.............................. CYCLE    5 ..............................
........................................................................
   1   -151.4541493 -0.151454E+03  0.131E-01    1.90       0.0  T
   2   -151.4542115 -0.621253E-04  0.767E-02    1.90       1.0  T
   3   -151.4541616  0.499089E-04  0.325E-02    1.91       1.0  T
   4   -151.4542250 -0.634509E-04  0.789E-03    1.91       1.4  T
   5   -151.4542300 -0.499892E-05  0.236E-03    1.91       4.8  T
   6   -151.4542301 -0.119989E-06  0.145E-03    1.91       7.8  T
   7   -151.4542302 -0.458315E-07  0.568E-04    1.91      19.9  T
   8   -151.4542302 -0.102259E-07  0.227E-04    1.91      49.9  T
     SCC iter.                  ...        0 min,  0.241 sec
     gradient                   ...        0 min,  0.131 sec
 * total energy  :  -149.4700730 Eh     change       -0.1498028E-02 Eh
   gradient norm :     0.0165507 Eh/α   predicted    -0.1304753E-02 ( -12.90%)
   displ. norm   :     0.3807257 α      lambda       -0.1170766E-02
   maximum displ.:     0.1301874 α      in ANC's #21, #11, #20, ...

........................................................................
.............................. CYCLE    6 ..............................
........................................................................
   1   -151.4555323 -0.151456E+03  0.108E-01    1.91       0.0  T
   2   -151.4555805 -0.481692E-04  0.629E-02    1.92       1.0  T
   3   -151.4555522  0.282752E-04  0.265E-02    1.93       1.0  T
   4   -151.4555883 -0.360183E-04  0.716E-03    1.92       1.6  T
   5   -151.4555925 -0.419779E-05  0.204E-03    1.92       5.5  T
   6   -151.4555926 -0.108452E-06  0.121E-03    1.92       9.4  T
   7   -151.4555926 -0.289762E-07  0.509E-04    1.92      22.2  T
   8   -151.4555926 -0.744103E-08  0.196E-04    1.92      57.9  T
     SCC iter.                  ...        0 min,  0.239 sec
     gradient                   ...        0 min,  0.154 sec
 * total energy  :  -149.4709321 Eh     change       -0.8591174E-03 Eh
   gradient norm :     0.0141286 Eh/α   predicted    -0.6702483E-03 ( -21.98%)
   displ. norm   :     0.4153130 α      lambda       -0.1039462E-02
   maximum displ.:     0.1485780 α      in ANC's #11, #21, #9, ...

........................................................................
.............................. CYCLE    7 ..............................
........................................................................
   1   -151.4574474 -0.151457E+03  0.123E-01    1.93       0.0  T
   2   -151.4575233 -0.758845E-04  0.717E-02    1.95       1.0  T
   3   -151.4574913  0.319323E-04  0.301E-02    1.96       1.0  T
   4   -151.4575326 -0.412370E-04  0.870E-03    1.96       1.3  T
   5   -151.4575392 -0.661306E-05  0.232E-03    1.96       4.9  T
   6   -151.4575394 -0.160477E-06  0.133E-03    1.96       8.5  T
   7   -151.4575394 -0.305756E-07  0.573E-04    1.96      19.8  T
   8   -151.4575394 -0.102781E-07  0.218E-04    1.96      51.9  T
     SCC iter.                  ...        0 min,  0.244 sec
     gradient                   ...        0 min,  0.144 sec
 * total energy  :  -149.4717430 Eh     change       -0.8109005E-03 Eh
   gradient norm :     0.0140611 Eh/α   predicted    -0.6093783E-03 ( -24.85%)
   displ. norm   :     0.4884755 α      lambda       -0.1158380E-02
   maximum displ.:     0.1799870 α      in ANC's #11, #7, #9, ...

........................................................................
.............................. CYCLE    8 ..............................
........................................................................
   1   -151.4611998 -0.151461E+03  0.140E-01    2.00       0.0  T
   2   -151.4612956 -0.958459E-04  0.812E-02    2.01       1.0  T
   3   -151.4612587  0.369589E-04  0.326E-02    2.03       1.0  T
   4   -151.4613059 -0.471859E-04  0.954E-03    2.03       1.2  T
   5   -151.4613139 -0.799135E-05  0.270E-03    2.03       4.2  T
   6   -151.4613141 -0.207914E-06  0.154E-03    2.03       7.4  T
   7   -151.4613141 -0.478468E-07  0.644E-04    2.03      17.6  T
   8   -151.4613141 -0.114328E-07  0.264E-04    2.03      42.9  T
     SCC iter.                  ...        0 min,  0.239 sec
     gradient                   ...        0 min,  0.147 sec
 * total energy  :  -149.4726479 Eh     change       -0.9048444E-03 Eh
   gradient norm :     0.0130877 Eh/α   predicted    -0.7174095E-03 ( -20.71%)
   displ. norm   :     0.5572732 α      lambda       -0.1124856E-02
   maximum displ.:     0.1991698 α      in ANC's #11, #7, #9, ...

........................................................................
.............................. CYCLE    9 ..............................
........................................................................
   1   -151.4601538 -0.151460E+03  0.163E-01    2.07       0.0  T
   2   -151.4603596 -0.205758E-03  0.950E-02    2.09       1.0  T
   3   -151.4603217  0.378578E-04  0.437E-02    2.10       1.0  T
   4   -151.4603838 -0.620450E-04  0.134E-02    2.10       1.0  T
   5   -151.4604007 -0.169437E-04  0.329E-03    2.10       3.4  T
   6   -151.4604011 -0.365047E-06  0.179E-03    2.10       6.3  T
   7   -151.4604011 -0.626408E-07  0.780E-04    2.10      14.5  T
   8   -151.4604012 -0.179018E-07  0.331E-04    2.10      34.2  T
     SCC iter.                  ...        0 min,  0.239 sec
     gradient                   ...        0 min,  0.146 sec
 * total energy  :  -149.4734359 Eh     change       -0.7880559E-03 Eh
   gradient norm :     0.0212778 Eh/α   predicted    -0.7371511E-03 (  -6.46%)
   displ. norm   :     0.5290108 α      lambda       -0.1462882E-02
   maximum displ.:     0.2030863 α      in ANC's #17, #1, #7, ...

........................................................................
.............................. CYCLE   10 ..............................
........................................................................
   1   -151.4699996 -0.151470E+03  0.131E-01    2.21       0.0  T
   2   -151.4700901 -0.905103E-04  0.763E-02    2.23       1.0  T
   3   -151.4700722  0.178590E-04  0.276E-02    2.24       1.0  T
   4   -151.4700964 -0.241963E-04  0.793E-03    2.23       1.4  T
   5   -151.4701019 -0.541963E-05  0.249E-03    2.23       4.5  T
   6   -151.4701020 -0.152642E-06  0.140E-03    2.23       8.1  T
   7   -151.4701021 -0.483404E-07  0.620E-04    2.23      18.3  T
   8   -151.4701021 -0.898146E-08  0.268E-04    2.23      42.2  T
     SCC iter.                  ...        0 min,  0.238 sec
     gradient                   ...        0 min,  0.152 sec
 * total energy  :  -149.4740951 Eh     change       -0.6591953E-03 Eh
   gradient norm :     0.0231401 Eh/α   predicted    -0.9361380E-03 (  42.01%)
   displ. norm   :     0.4342317 α      lambda       -0.9441387E-03
   maximum displ.:     0.1557281 α      in ANC's #7, #1, #9, ...

........................................................................
.............................. CYCLE   11 ..............................
........................................................................
   1   -151.4640460 -0.151464E+03  0.122E-01    2.24       0.0  T
   2   -151.4642058 -0.159729E-03  0.719E-02    2.26       1.0  T
   3   -151.4641971  0.864192E-05  0.350E-02    2.27       1.0  T
   4   -151.4642248 -0.277008E-04  0.110E-02    2.27       1.0  T
   5   -151.4642366 -0.117833E-04  0.267E-03    2.27       4.2  T
   6   -151.4642369 -0.257806E-06  0.143E-03    2.27       7.9  T
   7   -151.4642369 -0.536719E-07  0.635E-04    2.27      17.8  T
   8   -151.4642369 -0.923922E-08  0.295E-04    2.27      38.4  T
     SCC iter.                  ...        0 min,  0.240 sec
     gradient                   ...        0 min,  0.149 sec
 * total energy  :  -149.4747218 Eh     change       -0.6266677E-03 Eh
   gradient norm :     0.0204831 Eh/α   predicted    -0.5610983E-03 ( -10.46%)
   displ. norm   :     0.3912751 α      lambda       -0.1294616E-02
   maximum displ.:     0.1415682 α      in ANC's #2, #1, #9, ...

........................................................................
.............................. CYCLE   12 ..............................
........................................................................
   1   -151.4631341 -0.151463E+03  0.980E-02    2.35       0.0  T
   2   -151.4633222 -0.188162E-03  0.586E-02    2.32       1.0  T
   3   -151.4633306 -0.839536E-05  0.303E-02    2.32       1.0  T
   4   -151.4633331 -0.246378E-05  0.931E-03    2.31       1.2  T
   5   -151.4633396 -0.654066E-05  0.316E-03    2.31       3.6  T
   6   -151.4633403 -0.634832E-06  0.132E-03    2.31       8.6  T
   7   -151.4633403 -0.494727E-07  0.666E-04    2.31      17.0  T
   8   -151.4633403 -0.453647E-08  0.320E-04    2.31      35.4  T
     SCC iter.                  ...        0 min,  0.237 sec
     gradient                   ...        0 min,  0.153 sec
 * total energy  :  -149.4746214 Eh     change        0.1003900E-03 Eh
   gradient norm :     0.0403076 Eh/α   predicted    -0.7464177E-03 (-843.52%)
   displ. norm   :     0.2145419 α      lambda       -0.1807486E-02
   maximum displ.:     0.0788829 α      in ANC's #2, #1, #7, ...

........................................................................
.............................. CYCLE   13 ..............................
........................................................................
   1   -151.4628002 -0.151463E+03  0.746E-02    2.29       0.0  T
   2   -151.4629535 -0.153245E-03  0.435E-02    2.32       1.0  T
   3   -151.4629628 -0.928837E-05  0.241E-02    2.32       1.0  T
   4   -151.4629605  0.225363E-05  0.829E-03    2.32       1.4  T
   5   -151.4629666 -0.610803E-05  0.206E-03    2.32       5.5  T
   6   -151.4629669 -0.245624E-06  0.103E-03    2.32      11.0  T
   7   -151.4629669 -0.356357E-07  0.514E-04    2.32      22.0  T
   8   -151.4629669 -0.304948E-08  0.239E-04    2.32      47.4  T
     SCC iter.                  ...        0 min,  0.239 sec
     gradient                   ...        0 min,  0.137 sec
 * total energy  :  -149.4756884 Eh     change       -0.1067026E-02 Eh
   gradient norm :     0.0146869 Eh/α   predicted    -0.9453419E-03 ( -11.40%)
   displ. norm   :     0.3505320 α      lambda       -0.5976981E-03
   maximum displ.:     0.1540194 α      in ANC's #2, #1, #7, ...

........................................................................
.............................. CYCLE   14 ..............................
........................................................................
   1   -151.4636610 -0.151464E+03  0.734E-02    2.35       0.0  T
   2   -151.4636897 -0.286341E-04  0.428E-02    2.36       1.0  T
   3   -151.4636833  0.640098E-05  0.163E-02    2.37       1.0  T
   4   -151.4636920 -0.870017E-05  0.455E-03    2.36       2.5  T
   5   -151.4636940 -0.202965E-05  0.111E-03    2.36      10.2  T
   6   -151.4636940 -0.116416E-07  0.674E-04    2.36      16.8  T
   7   -151.4636940 -0.156807E-07  0.281E-04    2.36      40.3  T
     SCC iter.                  ...        0 min,  0.214 sec
     gradient                   ...        0 min,  0.137 sec
 * total energy  :  -149.4761562 Eh     change       -0.4678166E-03 Eh
   gradient norm :     0.0145971 Eh/α   predicted    -0.3355715E-03 ( -28.27%)
   displ. norm   :     0.5634365 α      lambda       -0.8939478E-03
   maximum displ.:     0.2572763 α      in ANC's #2, #1, #7, ...

........................................................................
.............................. CYCLE   15 ..............................
........................................................................
   1   -151.4635453 -0.151464E+03  0.113E-01    2.42       0.0  T
   2   -151.4635697 -0.244047E-04  0.666E-02    2.42       1.0  T
   3   -151.4635403  0.294056E-04  0.219E-02    2.42       1.0  T
   4   -151.4635762 -0.359097E-04  0.421E-03    2.42       2.7  T
   5   -151.4635775 -0.126079E-05  0.169E-03    2.42       6.7  T
   6   -151.4635775 -0.411218E-07  0.993E-04    2.42      11.4  T
   7   -151.4635775 -0.152659E-07  0.417E-04    2.42      27.2  T
     SCC iter.                  ...        0 min,  0.209 sec
     gradient                   ...        0 min,  0.133 sec
 * total energy  :  -149.4768143 Eh     change       -0.6580547E-03 Eh
   gradient norm :     0.0203681 Eh/α   predicted    -0.5888762E-03 ( -10.51%)
   displ. norm   :     0.6129736 α      lambda       -0.9522785E-03
   maximum displ.:     0.2920327 α      in ANC's #2, #1, #7, ...

........................................................................
.............................. CYCLE   16 ..............................
........................................................................
   1   -151.4689596 -0.151469E+03  0.113E-01    2.44       0.0  T
   2   -151.4689907 -0.311040E-04  0.665E-02    2.44       1.0  T
   3   -151.4689548  0.358293E-04  0.250E-02    2.44       1.0  T
   4   -151.4689993 -0.444204E-04  0.461E-03    2.44       2.5  T
   5   -151.4690009 -0.165857E-05  0.153E-03    2.44       7.4  T
   6   -151.4690010 -0.532656E-07  0.907E-04    2.44      12.5  T
   7   -151.4690010 -0.141058E-07  0.432E-04    2.44      26.2  T
     SCC iter.                  ...        0 min,  0.210 sec
     gradient                   ...        0 min,  0.134 sec
 * total energy  :  -149.4775055 Eh     change       -0.6911767E-03 Eh
   gradient norm :     0.0177870 Eh/α   predicted    -0.6550438E-03 (  -5.23%)
   displ. norm   :     0.7377258 α      lambda       -0.1045828E-02
   maximum displ.:     0.3435477 α      in ANC's #2, #1, #7, ...

........................................................................
.............................. CYCLE   17 ..............................
........................................................................
   1   -151.4613863 -0.151461E+03  0.157E-01    2.43       0.0  T
   2   -151.4615217 -0.135442E-03  0.928E-02    2.43       1.0  T
   3   -151.4614846  0.371645E-04  0.377E-02    2.44       1.0  T
   4   -151.4615425 -0.579271E-04  0.951E-03    2.44       1.2  T
   5   -151.4615513 -0.883014E-05  0.268E-03    2.44       4.2  T
   6   -151.4615515 -0.170785E-06  0.157E-03    2.44       7.2  T
   7   -151.4615515 -0.573522E-07  0.668E-04    2.44      17.0  T
   8   -151.4615516 -0.122457E-07  0.275E-04    2.44      41.1  T
     SCC iter.                  ...        0 min,  0.241 sec
     gradient                   ...        0 min,  0.135 sec
 * total energy  :  -149.4782745 Eh     change       -0.7690614E-03 Eh
   gradient norm :     0.0148328 Eh/α   predicted    -0.8075052E-03 (   5.00%)
   displ. norm   :     0.5591659 α      lambda       -0.1064150E-02
   maximum displ.:     0.2767516 α      in ANC's #2, #1, #12, ...

........................................................................
.............................. CYCLE   18 ..............................
........................................................................
   1   -151.4683223 -0.151468E+03  0.112E-01    2.43       0.0  T
   2   -151.4683595 -0.372288E-04  0.665E-02    2.43       1.0  T
   3   -151.4683443  0.152652E-04  0.190E-02    2.43       1.0  T
   4   -151.4683633 -0.190609E-04  0.487E-03    2.43       2.3  T
   5   -151.4683653 -0.199846E-05  0.174E-03    2.43       6.5  T
   6   -151.4683654 -0.103688E-06  0.937E-04    2.43      12.1  T
   7   -151.4683654 -0.152810E-07  0.470E-04    2.43      24.1  T
     SCC iter.                  ...        0 min,  0.217 sec
     gradient                   ...        0 min,  0.138 sec
 * total energy  :  -149.4789442 Eh     change       -0.6696395E-03 Eh
   gradient norm :     0.0191369 Eh/α   predicted    -0.6984360E-03 (   4.30%)
   displ. norm   :     0.6621724 α      lambda       -0.9104573E-03
   maximum displ.:     0.3321888 α      in ANC's #2, #1, #7, ...

........................................................................
.............................. CYCLE   19 ..............................
........................................................................
   1   -151.4667191 -0.151467E+03  0.132E-01    2.41       0.0  T
   2   -151.4667758 -0.566859E-04  0.772E-02    2.41       1.0  T
   3   -151.4667396  0.361761E-04  0.284E-02    2.41       1.0  T
   4   -151.4667854 -0.457911E-04  0.675E-03    2.41       1.7  T
   5   -151.4667899 -0.445808E-05  0.173E-03    2.41       6.5  T
   6   -151.4667900 -0.699349E-07  0.105E-03    2.41      10.8  T
   7   -151.4667900 -0.250224E-07  0.427E-04    2.41      26.5  T
   8   -151.4667900 -0.464138E-08  0.172E-04    2.41      66.0  T
     SCC iter.                  ...        0 min,  0.238 sec
     gradient                   ...        0 min,  0.138 sec
 * total energy  :  -149.4797283 Eh     change       -0.7841365E-03 Eh
   gradient norm :     0.0142610 Eh/α   predicted    -0.6548404E-03 ( -16.49%)
   displ. norm   :     0.6932990 α      lambda       -0.1026619E-02
   maximum displ.:     0.3573862 α      in ANC's #2, #1, #12, ...

........................................................................
.............................. CYCLE   20 ..............................
........................................................................
   1   -151.4724248 -0.151472E+03  0.134E-01    2.40       0.0  T
   2   -151.4724662 -0.413915E-04  0.786E-02    2.39       1.0  T
   3   -151.4724389  0.273105E-04  0.237E-02    2.39       1.0  T
   4   -151.4724719 -0.329925E-04  0.567E-03    2.39       2.0  T
   5   -151.4724750 -0.308600E-05  0.164E-03    2.39       6.9  T
   6   -151.4724750 -0.450826E-07  0.103E-03    2.39      11.0  T
   7   -151.4724750 -0.265779E-07  0.369E-04    2.39      30.7  T
   8   -151.4724750 -0.362689E-08  0.145E-04    2.39      78.2  T
     SCC iter.                  ...        0 min,  0.240 sec
     gradient                   ...        0 min,  0.142 sec
 * total energy  :  -149.4805341 Eh     change       -0.8058521E-03 Eh
   gradient norm :     0.0103915 Eh/α   predicted    -0.7600406E-03 (  -5.68%)
   displ. norm   :     0.8123162 α      lambda       -0.9392658E-03
   maximum displ.:     0.4182945 α      in ANC's #2, #1, #7, ...
 * RMSD in coord.:     0.8662849 α      energy gain  -0.3577824E-01 Eh

generating ANC from model Hessian ...
Using Lindh-Hessian (1995)
 Shifting diagonal of input Hessian by    9.8860691081867260E-003
 Lowest  eigenvalues of input Hessian
    0.000000    0.000000    0.000000    0.000000    0.000000    0.000000
    0.010000    0.010005    0.010066    0.010128    0.010253    0.010529
    0.010639    0.010850    0.010892    0.011026    0.011192    0.011554
 Highest eigenvalues
    2.044874    2.121621    2.128881    2.268079    2.340561    2.384328


........................................................................
.............................. CYCLE   21 ..............................
........................................................................
   1   -151.4660912 -0.151466E+03  0.158E-01    2.37       0.0  T
   2   -151.4661321 -0.409135E-04  0.927E-02    2.37       1.0  T
   3   -151.4660932  0.389795E-04  0.258E-02    2.36       1.0  T
   4   -151.4661402 -0.470271E-04  0.578E-03    2.36       2.0  T
   5   -151.4661430 -0.285199E-05  0.209E-03    2.36       5.4  T
   6   -151.4661431 -0.476473E-07  0.132E-03    2.36       8.6  T
   7   -151.4661431 -0.458056E-07  0.418E-04    2.37      27.1  T
   8   -151.4661431 -0.581048E-08  0.154E-04    2.36      73.6  T
     SCC iter.                  ...        0 min,  0.243 sec
     gradient                   ...        0 min,  0.142 sec
 * total energy  :  -149.4813104 Eh     change       -0.7762904E-03 Eh
   gradient norm :     0.0147936 Eh/α   predicted     0.0000000E+00 (-100.00%)
   displ. norm   :     0.1195412 α      lambda       -0.4250918E-03
   maximum displ.:     0.0595995 α      in ANC's #2, #9, #5, ...

........................................................................
.............................. CYCLE   22 ..............................
........................................................................
   1   -151.4733738 -0.151473E+03  0.318E-02    2.36       0.0  T
   2   -151.4733794 -0.562285E-05  0.189E-02    2.36       1.0  T
   3   -151.4733781  0.135434E-05  0.753E-03    2.36       1.5  T
   4   -151.4733803 -0.221170E-05  0.163E-03    2.36       7.0  T
   5   -151.4733805 -0.199410E-06  0.645E-04    2.36      17.5  T
   6   -151.4733805 -0.193961E-07  0.319E-04    2.36      35.5  T
     SCC iter.                  ...        0 min,  0.181 sec
     gradient                   ...        0 min,  0.145 sec
 * total energy  :  -149.4816245 Eh     change       -0.3140483E-03 Eh
   gradient norm :     0.0041156 Eh/α   predicted    -0.2156661E-03 ( -31.33%)
   displ. norm   :     0.2539059 α      lambda       -0.4085965E-03
   maximum displ.:     0.1273764 α      in ANC's #2, #22, #5, ...

........................................................................
.............................. CYCLE   23 ..............................
........................................................................
   1   -151.4790366 -0.151479E+03  0.574E-02    2.36       0.0  T
   2   -151.4790421 -0.547953E-05  0.337E-02    2.36       1.0  T
   3   -151.4790369  0.516590E-05  0.929E-03    2.36       1.2  T
   4   -151.4790433 -0.642075E-05  0.207E-03    2.36       5.5  T
   5   -151.4790436 -0.284548E-06  0.898E-04    2.36      12.6  T
   6   -151.4790436 -0.144656E-07  0.456E-04    2.36      24.8  T
     SCC iter.                  ...        0 min,  0.180 sec
     gradient                   ...        0 min,  0.153 sec
 * total energy  :  -149.4819456 Eh     change       -0.3211025E-03 Eh
   gradient norm :     0.0069903 Eh/α   predicted    -0.2175974E-03 ( -32.23%)
   displ. norm   :     0.4501617 α      lambda       -0.5382422E-03
   maximum displ.:     0.2225945 α      in ANC's #2, #9, #22, ...

........................................................................
.............................. CYCLE   24 ..............................
........................................................................
   1   -151.4805549 -0.151481E+03  0.102E-01    2.35       0.0  T
   2   -151.4805616 -0.666465E-05  0.597E-02    2.35       1.0  T
   3   -151.4805488  0.127627E-04  0.132E-02    2.35       1.0  T
   4   -151.4805645 -0.156585E-04  0.277E-03    2.35       4.1  T
   5   -151.4805648 -0.282697E-06  0.155E-03    2.35       7.3  T
   6   -151.4805648 -0.234134E-07  0.746E-04    2.35      15.2  T
   7   -151.4805648 -0.115893E-07  0.277E-04    2.35      40.9  T
     SCC iter.                  ...        0 min,  0.210 sec
     gradient                   ...        0 min,  0.140 sec
 * total energy  :  -149.4824102 Eh     change       -0.4645664E-03 Eh
   gradient norm :     0.0132229 Eh/α   predicted    -0.3236811E-03 ( -30.33%)
   displ. norm   :     0.6541390 α      lambda       -0.7554051E-03
   maximum displ.:     0.3240600 α      in ANC's #2, #9, #22, ...

........................................................................
.............................. CYCLE   25 ..............................
........................................................................
   1   -151.4763033 -0.151476E+03  0.145E-01    2.33       0.0  T
   2   -151.4763174 -0.141075E-04  0.850E-02    2.34       1.0  T
   3   -151.4762894  0.280387E-04  0.203E-02    2.33       1.0  T
   4   -151.4763236 -0.342419E-04  0.428E-03    2.33       2.6  T
   5   -151.4763244 -0.784336E-06  0.231E-03    2.33       4.9  T
   6   -151.4763244 -0.450071E-07  0.112E-03    2.33      10.2  T
   7   -151.4763245 -0.341169E-07  0.357E-04    2.33      31.7  T
   8   -151.4763245 -0.685080E-08  0.135E-04    2.33      83.6  T
     SCC iter.                  ...        0 min,  0.239 sec
     gradient                   ...        0 min,  0.133 sec
 * total energy  :  -149.4830130 Eh     change       -0.6028882E-03 Eh
   gradient norm :     0.0200977 Eh/α   predicted    -0.5393237E-03 ( -10.54%)
   displ. norm   :     0.5408519 α      lambda       -0.7462353E-03
   maximum displ.:     0.2850648 α      in ANC's #2, #9, #5, ...

........................................................................
.............................. CYCLE   26 ..............................
........................................................................
   1   -151.4719315 -0.151472E+03  0.111E-01    2.32       0.0  T
   2   -151.4719444 -0.128358E-04  0.653E-02    2.32       1.0  T
   3   -151.4719287  0.156628E-04  0.154E-02    2.31       1.0  T
   4   -151.4719468 -0.181293E-04  0.416E-03    2.32       2.7  T
   5   -151.4719481 -0.123991E-05  0.155E-03    2.32       7.3  T
   6   -151.4719481 -0.297054E-07  0.912E-04    2.32      12.4  T
   7   -151.4719481 -0.185437E-07  0.285E-04    2.32      39.8  T
     SCC iter.                  ...        0 min,  0.210 sec
     gradient                   ...        0 min,  0.138 sec
 * total energy  :  -149.4836323 Eh     change       -0.6192983E-03 Eh
   gradient norm :     0.0149149 Eh/α   predicted    -0.4822628E-03 ( -22.13%)
   displ. norm   :     0.5270199 α      lambda       -0.8907496E-03
   maximum displ.:     0.2988332 α      in ANC's #2, #9, #5, ...

........................................................................
.............................. CYCLE   27 ..............................
........................................................................
   1   -151.4713404 -0.151471E+03  0.105E-01    2.30       0.0  T
   2   -151.4713657 -0.253605E-04  0.616E-02    2.30       1.0  T
   3   -151.4713522  0.135149E-04  0.182E-02    2.30       1.0  T
   4   -151.4713692 -0.169696E-04  0.457E-03    2.30       2.5  T
   5   -151.4713709 -0.168034E-05  0.155E-03    2.30       7.3  T
   6   -151.4713709 -0.711807E-07  0.835E-04    2.30      13.6  T
   7   -151.4713709 -0.976078E-08  0.309E-04    2.30      36.6  T
     SCC iter.                  ...        0 min,  0.213 sec
     gradient                   ...        0 min,  0.128 sec
 * total energy  :  -149.4842847 Eh     change       -0.6523519E-03 Eh
   gradient norm :     0.0083758 Eh/α   predicted    -0.5690784E-03 ( -12.77%)
   displ. norm   :     0.7062192 α      lambda       -0.7938723E-03
   maximum displ.:     0.3924495 α      in ANC's #2, #9, #5, ...

........................................................................
.............................. CYCLE   28 ..............................
........................................................................
   1   -151.4662545 -0.151466E+03  0.142E-01    2.27       0.0  T
   2   -151.4662754 -0.208528E-04  0.835E-02    2.27       1.0  T
   3   -151.4662470  0.283736E-04  0.205E-02    2.27       1.0  T
   4   -151.4662804 -0.333758E-04  0.556E-03    2.27       2.0  T
   5   -151.4662824 -0.204222E-05  0.225E-03    2.27       5.0  T
   6   -151.4662825 -0.702557E-07  0.119E-03    2.27       9.5  T
   7   -151.4662825 -0.164787E-07  0.388E-04    2.27      29.2  T
   8   -151.4662825 -0.627156E-08  0.137E-04    2.27      82.6  T
     SCC iter.                  ...        0 min,  0.240 sec
     gradient                   ...        0 min,  0.144 sec
 * total energy  :  -149.4848405 Eh     change       -0.5557664E-03 Eh
   gradient norm :     0.0201629 Eh/α   predicted    -0.5949412E-03 (   7.05%)
   displ. norm   :     0.4976043 α      lambda       -0.7928661E-03
   maximum displ.:     0.2958439 α      in ANC's #2, #1, #4, ...

........................................................................
.............................. CYCLE   29 ..............................
........................................................................
   1   -151.4728740 -0.151473E+03  0.877E-02    2.25       0.0  T
   2   -151.4728941 -0.200857E-04  0.514E-02    2.25       1.0  T
   3   -151.4728850  0.906406E-05  0.135E-02    2.25       1.0  T
   4   -151.4728946 -0.959136E-05  0.499E-03    2.25       2.3  T
   5   -151.4728968 -0.222201E-05  0.146E-03    2.25       7.7  T
   6   -151.4728969 -0.747067E-07  0.755E-04    2.25      15.0  T
   7   -151.4728969 -0.572103E-08  0.313E-04    2.25      36.2  T
     SCC iter.                  ...        0 min,  0.214 sec
     gradient                   ...        0 min,  0.134 sec
 * total energy  :  -149.4854285 Eh     change       -0.5880429E-03 Eh
   gradient norm :     0.0127611 Eh/α   predicted    -0.4945944E-03 ( -15.89%)
   displ. norm   :     0.5821343 α      lambda       -0.6687228E-03
   maximum displ.:     0.3522748 α      in ANC's #2, #1, #4, ...

........................................................................
.............................. CYCLE   30 ..............................
........................................................................
   1   -151.4761379 -0.151476E+03  0.993E-02    2.23       0.0  T
   2   -151.4761479 -0.100220E-04  0.583E-02    2.23       1.0  T
   3   -151.4761392  0.869734E-05  0.123E-02    2.22       1.0  T
   4   -151.4761499 -0.106261E-04  0.314E-03    2.22       3.6  T
   5   -151.4761505 -0.633197E-06  0.143E-03    2.22       7.9  T
   6   -151.4761506 -0.538616E-07  0.768E-04    2.22      14.8  T
   7   -151.4761506 -0.548505E-08  0.284E-04    2.22      39.9  T
     SCC iter.                  ...        0 min,  0.208 sec
     gradient                   ...        0 min,  0.135 sec
 * total energy  :  -149.4859777 Eh     change       -0.5491510E-03 Eh
   gradient norm :     0.0089505 Eh/α   predicted    -0.4476713E-03 ( -18.48%)
   displ. norm   :     0.6789203 α      lambda       -0.6616476E-03
   maximum displ.:     0.4082389 α      in ANC's #2, #1, #4, ...

........................................................................
.............................. CYCLE   31 ..............................
........................................................................
   1   -151.4769725 -0.151477E+03  0.112E-01    2.21       0.0  T
   2   -151.4769829 -0.104211E-04  0.657E-02    2.21       1.0  T
   3   -151.4769708  0.120868E-04  0.134E-02    2.20       1.0  T
   4   -151.4769855 -0.146753E-04  0.335E-03    2.20       3.4  T
   5   -151.4769862 -0.672762E-06  0.156E-03    2.20       7.3  T
   6   -151.4769862 -0.361119E-07  0.820E-04    2.20      13.8  T
   7   -151.4769862 -0.123567E-07  0.297E-04    2.20      38.1  T
     SCC iter.                  ...        0 min,  0.210 sec
     gradient                   ...        0 min,  0.123 sec
 * total energy  :  -149.4865341 Eh     change       -0.5564288E-03 Eh
   gradient norm :     0.0061078 Eh/α   predicted    -0.4833140E-03 ( -13.14%)
   displ. norm   :     0.6511717 α      lambda       -0.6275232E-03
   maximum displ.:     0.3973643 α      in ANC's #2, #1, #4, ...

........................................................................
.............................. CYCLE   32 ..............................
........................................................................
   1   -151.4820951 -0.151482E+03  0.964E-02    2.20       0.0  T
   2   -151.4821038 -0.876282E-05  0.568E-02    2.20       1.0  T
   3   -151.4820964  0.746406E-05  0.115E-02    2.20       1.0  T
   4   -151.4821058 -0.939333E-05  0.274E-03    2.20       4.1  T
   5   -151.4821062 -0.425228E-06  0.131E-03    2.20       8.6  T
   6   -151.4821062 -0.309529E-07  0.653E-04    2.20      17.3  T
   7   -151.4821062 -0.878501E-08  0.266E-04    2.20      42.6  T
     SCC iter.                  ...        0 min,  0.213 sec
     gradient                   ...        0 min,  0.122 sec
 * total energy  :  -149.4870077 Eh     change       -0.4735852E-03 Eh
   gradient norm :     0.0095885 Eh/α   predicted    -0.4468066E-03 (  -5.65%)
   displ. norm   :     0.7774298 α      lambda       -0.6001375E-03
   maximum displ.:     0.4646737 α      in ANC's #2, #1, #4, ...

........................................................................
.............................. CYCLE   33 ..............................
........................................................................
   1   -151.4746415 -0.151475E+03  0.129E-01    2.18       0.0  T
   2   -151.4746541 -0.125101E-04  0.758E-02    2.18       1.0  T
   3   -151.4746353  0.187031E-04  0.172E-02    2.18       1.0  T
   4   -151.4746577 -0.223899E-04  0.416E-03    2.18       2.7  T
   5   -151.4746588 -0.108598E-05  0.182E-03    2.18       6.2  T
   6   -151.4746589 -0.276830E-07  0.800E-04    2.18      14.2  T
   7   -151.4746589 -0.137150E-07  0.261E-04    2.18      43.4  T
     SCC iter.                  ...        0 min,  0.212 sec
     gradient                   ...        0 min,  0.136 sec
 * total energy  :  -149.4874093 Eh     change       -0.4016644E-03 Eh
   gradient norm :     0.0118113 Eh/α   predicted    -0.4814323E-03 (  19.86%)
   displ. norm   :     0.5164740 α      lambda       -0.4578925E-03
   maximum displ.:     0.3075749 α      in ANC's #2, #1, #4, ...

........................................................................
.............................. CYCLE   34 ..............................
........................................................................
   1   -151.4764044 -0.151476E+03  0.753E-02    2.18       0.0  T
   2   -151.4764105 -0.607968E-05  0.444E-02    2.18       1.0  T
   3   -151.4764015  0.896061E-05  0.106E-02    2.18       1.1  T
   4   -151.4764114 -0.988460E-05  0.294E-03    2.18       3.8  T
   5   -151.4764121 -0.702312E-06  0.993E-04    2.18      11.4  T
   6   -151.4764121 -0.260271E-07  0.555E-04    2.18      20.4  T
     SCC iter.                  ...        0 min,  0.186 sec
     gradient                   ...        0 min,  0.148 sec
 * total energy  :  -149.4877961 Eh     change       -0.3867670E-03 Eh
   gradient norm :     0.0078197 Eh/α   predicted    -0.2900181E-03 ( -25.01%)
   displ. norm   :     0.5955648 α      lambda       -0.5806816E-03
   maximum displ.:     0.3434044 α      in ANC's #2, #1, #4, ...

........................................................................
.............................. CYCLE   35 ..............................
........................................................................
   1   -151.4835867 -0.151484E+03  0.856E-02    2.19       0.0  T
   2   -151.4835990 -0.122875E-04  0.506E-02    2.20       1.0  T
   3   -151.4835774  0.215515E-04  0.180E-02    2.20       1.0  T
   4   -151.4836029 -0.255116E-04  0.378E-03    2.20       3.0  T
   5   -151.4836041 -0.116972E-05  0.118E-03    2.20       9.6  T
   6   -151.4836041 -0.243417E-07  0.703E-04    2.20      16.1  T
   7   -151.4836042 -0.880851E-08  0.282E-04    2.20      40.2  T
     SCC iter.                  ...        0 min,  0.208 sec
     gradient                   ...        0 min,  0.128 sec
 * total energy  :  -149.4882408 Eh     change       -0.4446662E-03 Eh
   gradient norm :     0.0079261 Eh/α   predicted    -0.3933268E-03 ( -11.55%)
   displ. norm   :     0.7488354 α      lambda       -0.5075724E-03
   maximum displ.:     0.4383726 α      in ANC's #2, #1, #4, ...

........................................................................
.............................. CYCLE   36 ..............................
........................................................................
   1   -151.4804121 -0.151480E+03  0.114E-01    2.20       0.0  T
   2   -151.4804198 -0.768651E-05  0.672E-02    2.20       1.0  T
   3   -151.4803976  0.222004E-04  0.159E-02    2.20       1.0  T
   4   -151.4804228 -0.251738E-04  0.334E-03    2.20       3.4  T
   5   -151.4804235 -0.769550E-06  0.136E-03    2.20       8.3  T
   6   -151.4804235 -0.224984E-07  0.756E-04    2.20      15.0  T
   7   -151.4804236 -0.108653E-07  0.222E-04    2.20      51.1  T
     SCC iter.                  ...        0 min,  0.209 sec
     gradient                   ...        0 min,  0.146 sec
 * total energy  :  -149.4886792 Eh     change       -0.4384586E-03 Eh
   gradient norm :     0.0084951 Eh/α   predicted    -0.3961037E-03 (  -9.66%)
   displ. norm   :     0.7139061 α      lambda       -0.5162304E-03
   maximum displ.:     0.4005854 α      in ANC's #2, #1, #4, ...

........................................................................
.............................. CYCLE   37 ..............................
........................................................................
   1   -151.4811143 -0.151481E+03  0.105E-01    2.21       0.0  T
   2   -151.4811222 -0.793815E-05  0.618E-02    2.21       1.0  T
   3   -151.4811024  0.198302E-04  0.153E-02    2.22       1.0  T
   4   -151.4811251 -0.226648E-04  0.338E-03    2.22       3.4  T
   5   -151.4811259 -0.793569E-06  0.140E-03    2.22       8.1  T
   6   -151.4811259 -0.285873E-07  0.759E-04    2.22      14.9  T
   7   -151.4811259 -0.111758E-07  0.251E-04    2.22      45.2  T
     SCC iter.                  ...        0 min,  0.208 sec
     gradient                   ...        0 min,  0.132 sec
 * total energy  :  -149.4891114 Eh     change       -0.4322066E-03 Eh
   gradient norm :     0.0073504 Eh/α   predicted    -0.3896687E-03 (  -9.84%)
   displ. norm   :     0.7017675 α      lambda       -0.4459501E-03
   maximum displ.:     0.3938159 α      in ANC's #2, #1, #4, ...

........................................................................
.............................. CYCLE   38 ..............................
........................................................................
   1   -151.4793695 -0.151479E+03  0.103E-01    2.22       0.0  T
   2   -151.4793788 -0.928745E-05  0.605E-02    2.22       1.0  T
   3   -151.4793646  0.142518E-04  0.138E-02    2.23       1.0  T
   4   -151.4793811 -0.165277E-04  0.323E-03    2.22       3.5  T
   5   -151.4793818 -0.762997E-06  0.142E-03    2.22       8.0  T
   6   -151.4793819 -0.567655E-07  0.743E-04    2.22      15.2  T
   7   -151.4793819 -0.585467E-08  0.307E-04    2.22      36.8  T
     SCC iter.                  ...        0 min,  0.213 sec
     gradient                   ...        0 min,  0.141 sec
 * total energy  :  -149.4894722 Eh     change       -0.3607265E-03 Eh
   gradient norm :     0.0063435 Eh/α   predicted    -0.3327892E-03 (  -7.74%)
   displ. norm   :     0.6908083 α      lambda       -0.3752617E-03
   maximum displ.:     0.3924631 α      in ANC's #2, #1, #4, ...

........................................................................
.............................. CYCLE   39 ..............................
........................................................................
   1   -151.4792851 -0.151479E+03  0.935E-02    2.23       0.0  T
   2   -151.4792928 -0.763662E-05  0.551E-02    2.23       1.0  T
   3   -151.4792808  0.119360E-04  0.128E-02    2.23       1.0  T
   4   -151.4792948 -0.139638E-04  0.322E-03    2.23       3.5  T
   5   -151.4792955 -0.707064E-06  0.144E-03    2.23       7.9  T
   6   -151.4792955 -0.473991E-07  0.732E-04    2.23      15.5  T
   7   -151.4792955 -0.581130E-08  0.280E-04    2.23      40.4  T
     SCC iter.                  ...        0 min,  0.209 sec
     gradient                   ...        0 min,  0.144 sec
 * total energy  :  -149.4897649 Eh     change       -0.2927434E-03 Eh
   gradient norm :     0.0068856 Eh/α   predicted    -0.2771760E-03 (  -5.32%)
   displ. norm   :     0.5863423 α      lambda       -0.3334050E-03
   maximum displ.:     0.3195883 α      in ANC's #2, #1, #4, ...

........................................................................
.............................. CYCLE   40 ..............................
........................................................................
   1   -151.4828369 -0.151483E+03  0.775E-02    2.24       0.0  T
   2   -151.4828426 -0.573277E-05  0.457E-02    2.24       1.0  T
   3   -151.4828359  0.666446E-05  0.103E-02    2.24       1.1  T
   4   -151.4828442 -0.823403E-05  0.211E-03    2.24       5.4  T
   5   -151.4828444 -0.267438E-06  0.109E-03    2.24      10.4  T
   6   -151.4828445 -0.276819E-07  0.552E-04    2.24      20.5  T
   7   -151.4828445 -0.541749E-08  0.241E-04    2.24      47.1  T
     SCC iter.                  ...        0 min,  0.207 sec
     gradient                   ...        0 min,  0.130 sec
 * total energy  :  -149.4899990 Eh     change       -0.2340918E-03 Eh
   gradient norm :     0.0059382 Eh/α   predicted    -0.2240149E-03 (  -4.30%)
   displ. norm   :     0.7162985 α      lambda       -0.3308239E-03
   maximum displ.:     0.4415491 α      in ANC's #2, #1, #4, ...

........................................................................
.............................. CYCLE   41 ..............................
........................................................................
   1   -151.4771188 -0.151477E+03  0.927E-02    2.23       0.0  T
   2   -151.4771241 -0.527612E-05  0.548E-02    2.23       1.0  T
   3   -151.4771158  0.829009E-05  0.104E-02    2.23       1.1  T
   4   -151.4771256 -0.983769E-05  0.270E-03    2.23       4.2  T
   5   -151.4771260 -0.412710E-06  0.131E-03    2.23       8.6  T
   6   -151.4771261 -0.334563E-07  0.657E-04    2.23      17.2  T
   7   -151.4771261 -0.692552E-08  0.226E-04    2.23      50.1  T
     SCC iter.                  ...        0 min,  0.209 sec
     gradient                   ...        0 min,  0.134 sec
 * total energy  :  -149.4902130 Eh     change       -0.2140539E-03 Eh
   gradient norm :     0.0079740 Eh/α   predicted    -0.2502844E-03 (  16.93%)
   displ. norm   :     0.4373178 α      lambda       -0.2636893E-03
   maximum displ.:     0.2599335 α      in ANC's #2, #1, #4, ...

........................................................................
.............................. CYCLE   42 ..............................
........................................................................
   1   -151.4824702 -0.151482E+03  0.491E-02    2.22       0.0  T
   2   -151.4824736 -0.335272E-05  0.290E-02    2.22       1.0  T
   3   -151.4824701  0.352195E-05  0.755E-03    2.22       1.5  T
   4   -151.4824744 -0.432890E-05  0.176E-03    2.22       6.5  T
   5   -151.4824746 -0.206919E-06  0.793E-04    2.22      14.3  T
   6   -151.4824746 -0.108779E-07  0.439E-04    2.22      25.8  T
     SCC iter.                  ...        0 min,  0.189 sec
     gradient                   ...        0 min,  0.136 sec
 * total energy  :  -149.4904168 Eh     change       -0.2037250E-03 Eh
   gradient norm :     0.0072750 Eh/α   predicted    -0.1570590E-03 ( -22.91%)
   displ. norm   :     0.5680008 α      lambda       -0.2798743E-03
   maximum displ.:     0.3411380 α      in ANC's #2, #1, #4, ...
 * RMSD in coord.:     1.3298059 α      energy gain  -0.9882624E-02 Eh

generating ANC from model Hessian ...
Using Lindh-Hessian (1995)
 Shifting diagonal of input Hessian by    9.9032669326458121E-003
 Lowest  eigenvalues of input Hessian
    0.000000    0.000000    0.000000    0.000000    0.000000    0.000000
    0.010000    0.010026    0.010089    0.010152    0.010284    0.010453
    0.010673    0.010791    0.010818    0.011002    0.011075    0.011489
 Highest eigenvalues
    2.047859    2.126736    2.129351    2.321726    2.341222    2.400022


........................................................................
.............................. CYCLE   43 ..............................
........................................................................
   1   -151.4850195 -0.151485E+03  0.647E-02    2.21       0.0  T
   2   -151.4850242 -0.468291E-05  0.383E-02    2.21       1.0  T
   3   -151.4850180  0.615016E-05  0.921E-03    2.21       1.2  T
   4   -151.4850254 -0.732847E-05  0.219E-03    2.21       5.2  T
   5   -151.4850257 -0.321562E-06  0.992E-04    2.21      11.4  T
   6   -151.4850257 -0.142551E-07  0.556E-04    2.21      20.4  T
     SCC iter.                  ...        0 min,  0.179 sec
     gradient                   ...        0 min,  0.151 sec
 * total energy  :  -149.4906335 Eh     change       -0.2166833E-03 Eh
   gradient norm :     0.0057615 Eh/α   predicted     0.0000000E+00 (-100.00%)
   displ. norm   :     0.0643170 α      lambda       -0.9610529E-04
   maximum displ.:     0.0291980 α      in ANC's #2, #7, #14, ...

........................................................................
.............................. CYCLE   44 ..............................
........................................................................
   1   -151.4849297 -0.151485E+03  0.176E-02    2.21       0.0  T
   2   -151.4849302 -0.553719E-06  0.103E-02    2.21       1.1  T
   3   -151.4849298  0.488471E-06  0.282E-03    2.21       4.0  T
   4   -151.4849303 -0.568434E-06  0.793E-04    2.21      14.3  T
   5   -151.4849304 -0.475140E-07  0.306E-04    2.21      37.0  T
     SCC iter.                  ...        0 min,  0.159 sec
     gradient                   ...        0 min,  0.139 sec
 * total energy  :  -149.4907111 Eh     change       -0.7760812E-04 Eh
   gradient norm :     0.0025395 Eh/α   predicted    -0.4826872E-04 ( -37.80%)
   displ. norm   :     0.1715653 α      lambda       -0.1468015E-03
   maximum displ.:     0.0811943 α      in ANC's #2, #7, #14, ...

........................................................................
.............................. CYCLE   45 ..............................
........................................................................
   1   -151.4844768 -0.151484E+03  0.414E-02    2.20       0.0  T
   2   -151.4844784 -0.160267E-05  0.244E-02    2.20       1.0  T
   3   -151.4844762  0.227154E-05  0.555E-03    2.20       2.0  T
   4   -151.4844788 -0.260290E-05  0.157E-03    2.20       7.2  T
   5   -151.4844789 -0.174896E-06  0.627E-04    2.20      18.1  T
   6   -151.4844789 -0.821868E-08  0.312E-04    2.20      36.3  T
     SCC iter.                  ...        0 min,  0.180 sec
     gradient                   ...        0 min,  0.155 sec
 * total energy  :  -149.4908092 Eh     change       -0.9810625E-04 Eh
   gradient norm :     0.0031132 Eh/α   predicted    -0.7559855E-04 ( -22.94%)
   displ. norm   :     0.1515009 α      lambda       -0.6926777E-04
   maximum displ.:     0.0773093 α      in ANC's #2, #7, #14, ...

........................................................................
.............................. CYCLE   46 ..............................
........................................................................
   1   -151.4842406 -0.151484E+03  0.337E-02    2.20       0.0  T
   2   -151.4842411 -0.481735E-06  0.199E-02    2.20       1.0  T
   3   -151.4842395  0.155216E-05  0.424E-03    2.20       2.7  T
   4   -151.4842413 -0.179919E-05  0.855E-04    2.20      13.2  T
   5   -151.4842414 -0.346375E-07  0.425E-04    2.20      26.6  T
   6   -151.4842414 -0.231773E-08  0.200E-04    2.20      56.7  T
     SCC iter.                  ...        0 min,  0.180 sec
     gradient                   ...        0 min,  0.139 sec
 * total energy  :  -149.4908661 Eh     change       -0.5691572E-04 Eh
   gradient norm :     0.0040348 Eh/α   predicted    -0.3543755E-04 ( -37.74%)
   displ. norm   :     0.2439567 α      lambda       -0.1053830E-03
   maximum displ.:     0.1258252 α      in ANC's #2, #7, #14, ...

........................................................................
.............................. CYCLE   47 ..............................
........................................................................
   1   -151.4841047 -0.151484E+03  0.536E-02    2.19       0.0  T
   2   -151.4841060 -0.129200E-05  0.316E-02    2.19       1.0  T
   3   -151.4841013  0.466482E-05  0.725E-03    2.19       1.6  T
   4   -151.4841067 -0.540535E-05  0.120E-03    2.19       9.4  T
   5   -151.4841068 -0.663370E-07  0.626E-04    2.19      18.1  T
   6   -151.4841068 -0.676425E-08  0.306E-04    2.19      37.0  T
     SCC iter.                  ...        0 min,  0.183 sec
     gradient                   ...        0 min,  0.131 sec
 * total energy  :  -149.4909533 Eh     change       -0.8722164E-04 Eh
   gradient norm :     0.0034809 Eh/α   predicted    -0.5585543E-04 ( -35.96%)
   displ. norm   :     0.3324082 α      lambda       -0.1306071E-03
   maximum displ.:     0.1754907 α      in ANC's #2, #7, #6, ...

........................................................................
.............................. CYCLE   48 ..............................
........................................................................
   1   -151.4840056 -0.151484E+03  0.724E-02    2.18       0.0  T
   2   -151.4840082 -0.265178E-05  0.426E-02    2.19       1.0  T
   3   -151.4839988  0.940102E-05  0.103E-02    2.18       1.1  T
   4   -151.4840097 -0.109206E-04  0.152E-03    2.18       7.5  T
   5   -151.4840098 -0.109851E-06  0.797E-04    2.18      14.2  T
   6   -151.4840099 -0.128750E-07  0.399E-04    2.18      28.4  T
     SCC iter.                  ...        0 min,  0.179 sec
     gradient                   ...        0 min,  0.124 sec
 * total energy  :  -149.4910589 Eh     change       -0.1056079E-03 Eh
   gradient norm :     0.0027844 Eh/α   predicted    -0.7252026E-04 ( -31.33%)
   displ. norm   :     0.3685302 α      lambda       -0.1317796E-03
   maximum displ.:     0.1995998 α      in ANC's #2, #7, #6, ...

........................................................................
.............................. CYCLE   49 ..............................
........................................................................
   1   -151.4841237 -0.151484E+03  0.794E-02    2.18       0.0  T
   2   -151.4841267 -0.305336E-05  0.466E-02    2.18       1.0  T
   3   -151.4841151  0.115688E-04  0.115E-02    2.18       1.0  T
   4   -151.4841286 -0.134702E-04  0.153E-03    2.18       7.4  T
   5   -151.4841287 -0.102836E-06  0.825E-04    2.18      13.7  T
   6   -151.4841287 -0.114577E-07  0.412E-04    2.18      27.5  T
     SCC iter.                  ...        0 min,  0.181 sec
     gradient                   ...        0 min,  0.162 sec
 * total energy  :  -149.4911677 Eh     change       -0.1087415E-03 Eh
   gradient norm :     0.0036006 Eh/α   predicted    -0.7483868E-04 ( -31.18%)
   displ. norm   :     0.4082756 α      lambda       -0.1494864E-03
   maximum displ.:     0.2261263 α      in ANC's #2, #7, #6, ...

........................................................................
.............................. CYCLE   50 ..............................
........................................................................
   1   -151.4846605 -0.151485E+03  0.862E-02    2.17       0.0  T
   2   -151.4846639 -0.339726E-05  0.506E-02    2.18       1.0  T
   3   -151.4846506  0.132625E-04  0.124E-02    2.18       1.0  T
   4   -151.4846661 -0.155029E-04  0.153E-03    2.18       7.4  T
   5   -151.4846662 -0.895798E-07  0.865E-04    2.18      13.1  T
   6   -151.4846662 -0.885535E-08  0.432E-04    2.18      26.2  T
     SCC iter.                  ...        0 min,  0.180 sec
     gradient                   ...        0 min,  0.129 sec
 * total energy  :  -149.4912934 Eh     change       -0.1257255E-03 Eh
   gradient norm :     0.0046409 Eh/α   predicted    -0.8720414E-04 ( -30.64%)
   displ. norm   :     0.4662409 α      lambda       -0.1770107E-03
   maximum displ.:     0.2636070 α      in ANC's #2, #7, #6, ...

........................................................................
.............................. CYCLE   51 ..............................
........................................................................
   1   -151.4853253 -0.151485E+03  0.960E-02    2.18       0.0  T
   2   -151.4853296 -0.423084E-05  0.563E-02    2.18       1.0  T
   3   -151.4853142  0.153556E-04  0.135E-02    2.18       1.0  T
   4   -151.4853323 -0.180622E-04  0.164E-03    2.18       6.9  T
   5   -151.4853323 -0.878480E-07  0.962E-04    2.18      11.8  T
   6   -151.4853324 -0.940642E-08  0.496E-04    2.18      22.8  T
     SCC iter.                  ...        0 min,  0.184 sec
     gradient                   ...        0 min,  0.144 sec
 * total energy  :  -149.4914405 Eh     change       -0.1471621E-03 Eh
   gradient norm :     0.0049008 Eh/α   predicted    -0.1077520E-03 ( -26.78%)
   displ. norm   :     0.4941216 α      lambda       -0.1804447E-03
   maximum displ.:     0.2859351 α      in ANC's #2, #7, #12, ...

........................................................................
.............................. CYCLE   52 ..............................
........................................................................
   1   -151.4856463 -0.151486E+03  0.992E-02    2.19       0.0  T
   2   -151.4856511 -0.487222E-05  0.582E-02    2.19       1.0  T
   3   -151.4856358  0.153819E-04  0.136E-02    2.19       1.0  T
   4   -151.4856540 -0.182281E-04  0.171E-03    2.19       6.6  T
   5   -151.4856541 -0.957396E-07  0.994E-04    2.19      11.4  T
   6   -151.4856541 -0.973765E-08  0.526E-04    2.19      21.5  T
     SCC iter.                  ...        0 min,  0.179 sec
     gradient                   ...        0 min,  0.121 sec
 * total energy  :  -149.4915882 Eh     change       -0.1476451E-03 Eh
   gradient norm :     0.0042180 Eh/α   predicted    -0.1122727E-03 ( -23.96%)
   displ. norm   :     0.4696791 α      lambda       -0.1603123E-03
   maximum displ.:     0.2803410 α      in ANC's #2, #12, #6, ...

........................................................................
.............................. CYCLE   53 ..............................
........................................................................
   1   -151.4859355 -0.151486E+03  0.922E-02    2.20       0.0  T
   2   -151.4859404 -0.487426E-05  0.541E-02    2.20       1.0  T
   3   -151.4859274  0.129444E-04  0.127E-02    2.21       1.0  T
   4   -151.4859429 -0.154309E-04  0.172E-03    2.21       6.6  T
   5   -151.4859430 -0.121436E-06  0.952E-04    2.21      11.9  T
   6   -151.4859430 -0.877100E-08  0.522E-04    2.21      21.7  T
     SCC iter.                  ...        0 min,  0.190 sec
     gradient                   ...        0 min,  0.134 sec
 * total energy  :  -149.4917168 Eh     change       -0.1286494E-03 Eh
   gradient norm :     0.0029902 Eh/α   predicted    -0.9784022E-04 ( -23.95%)
   displ. norm   :     0.4123375 α      lambda       -0.1264049E-03
   maximum displ.:     0.2549717 α      in ANC's #2, #12, #6, ...

........................................................................
.............................. CYCLE   54 ..............................
........................................................................
   1   -151.4861124 -0.151486E+03  0.800E-02    2.22       0.0  T
   2   -151.4861165 -0.415551E-05  0.469E-02    2.22       1.0  T
   3   -151.4861062  0.103237E-04  0.114E-02    2.22       1.0  T
   4   -151.4861185 -0.122720E-04  0.169E-03    2.22       6.7  T
   5   -151.4861186 -0.143698E-06  0.890E-04    2.22      12.7  T
   6   -151.4861186 -0.102934E-07  0.512E-04    2.22      22.1  T
     SCC iter.                  ...        0 min,  0.180 sec
     gradient                   ...        0 min,  0.123 sec
 * total energy  :  -149.4918188 Eh     change       -0.1019902E-03 Eh
   gradient norm :     0.0025677 Eh/α   predicted    -0.7396469E-04 ( -27.48%)
   displ. norm   :     0.3701842 α      lambda       -0.1078381E-03
   maximum displ.:     0.2365067 α      in ANC's #2, #12, #6, ...

........................................................................
.............................. CYCLE   55 ..............................
........................................................................
   1   -151.4863228 -0.151486E+03  0.716E-02    2.23       0.0  T
   2   -151.4863264 -0.356633E-05  0.420E-02    2.24       1.0  T
   3   -151.4863173  0.911064E-05  0.106E-02    2.24       1.1  T
   4   -151.4863280 -0.107411E-04  0.169E-03    2.24       6.7  T
   5   -151.4863282 -0.159935E-06  0.848E-04    2.24      13.4  T
   6   -151.4863282 -0.127926E-07  0.484E-04    2.24      23.4  T
     SCC iter.                  ...        0 min,  0.181 sec
     gradient                   ...        0 min,  0.137 sec
 * total energy  :  -149.4919080 Eh     change       -0.8920020E-04 Eh
   gradient norm :     0.0029393 Eh/α   predicted    -0.6130816E-04 ( -31.27%)
   displ. norm   :     0.3730444 α      lambda       -0.1113350E-03
   maximum displ.:     0.2433291 α      in ANC's #2, #12, #6, ...

........................................................................
.............................. CYCLE   56 ..............................
........................................................................
   1   -151.4863053 -0.151486E+03  0.727E-02    2.25       0.0  T
   2   -151.4863090 -0.368287E-05  0.427E-02    2.25       1.0  T
   3   -151.4862987  0.102722E-04  0.112E-02    2.25       1.0  T
   4   -151.4863107 -0.120181E-04  0.180E-03    2.25       6.3  T
   5   -151.4863109 -0.183169E-06  0.887E-04    2.25      12.8  T
   6   -151.4863109 -0.169393E-07  0.493E-04    2.25      22.9  T
     SCC iter.                  ...        0 min,  0.179 sec
     gradient                   ...        0 min,  0.141 sec
 * total energy  :  -149.4920010 Eh     change       -0.9299997E-04 Eh
   gradient norm :     0.0032307 Eh/α   predicted    -0.6341417E-04 ( -31.81%)
   displ. norm   :     0.4016084 α      lambda       -0.1266387E-03
   maximum displ.:     0.2671025 α      in ANC's #2, #6, #12, ...

........................................................................
.............................. CYCLE   57 ..............................
........................................................................
   1   -151.4869970 -0.151487E+03  0.784E-02    2.26       0.0  T
   2   -151.4870014 -0.445486E-05  0.460E-02    2.27       1.0  T
   3   -151.4869884  0.130013E-04  0.125E-02    2.27       1.0  T
   4   -151.4870035 -0.150976E-04  0.211E-03    2.27       5.4  T
   5   -151.4870038 -0.268049E-06  0.990E-04    2.27      11.4  T
   6   -151.4870038 -0.227446E-07  0.537E-04    2.27      21.1  T
     SCC iter.                  ...        0 min,  0.182 sec
     gradient                   ...        0 min,  0.148 sec
 * total energy  :  -149.4921050 Eh     change       -0.1040160E-03 Eh
   gradient norm :     0.0031617 Eh/α   predicted    -0.7354296E-04 ( -29.30%)
   displ. norm   :     0.4495175 α      lambda       -0.1293385E-03
   maximum displ.:     0.2987174 α      in ANC's #2, #6, #12, ...

........................................................................
.............................. CYCLE   58 ..............................
........................................................................
   1   -151.4852111 -0.151485E+03  0.890E-02    2.28       0.0  T
   2   -151.4852161 -0.502561E-05  0.523E-02    2.28       1.0  T
   3   -151.4851999  0.162951E-04  0.139E-02    2.28       1.0  T
   4   -151.4852189 -0.190022E-04  0.214E-03    2.28       5.3  T
   5   -151.4852191 -0.233844E-06  0.109E-03    2.28      10.4  T
   6   -151.4852191 -0.264359E-07  0.578E-04    2.28      19.6  T
   7   -151.4852191 -0.785738E-08  0.175E-04    2.28      64.8  T
     SCC iter.                  ...        0 min,  0.207 sec
     gradient                   ...        0 min,  0.153 sec
 * total energy  :  -149.4922040 Eh     change       -0.9893374E-04 Eh
   gradient norm :     0.0035110 Eh/α   predicted    -0.7773695E-04 ( -21.43%)
   displ. norm   :     0.4244665 α      lambda       -0.1603237E-03
   maximum displ.:     0.2825275 α      in ANC's #2, #6, #16, ...

........................................................................
.............................. CYCLE   59 ..............................
........................................................................
   1   -151.4894663 -0.151489E+03  0.834E-02    2.29       0.0  T
   2   -151.4894718 -0.553583E-05  0.489E-02    2.30       1.0  T
   3   -151.4894554  0.164314E-04  0.140E-02    2.30       1.0  T
   4   -151.4894742 -0.187907E-04  0.265E-03    2.30       4.3  T
   5   -151.4894746 -0.475676E-06  0.106E-03    2.30      10.6  T
   6   -151.4894747 -0.235762E-07  0.567E-04    2.30      20.0  T
   7   -151.4894747 -0.613915E-08  0.190E-04    2.30      59.6  T
     SCC iter.                  ...        0 min,  0.206 sec
     gradient                   ...        0 min,  0.130 sec
 * total energy  :  -149.4922943 Eh     change       -0.9031814E-04 Eh
   gradient norm :     0.0041891 Eh/α   predicted    -0.9460507E-04 (   4.75%)
   displ. norm   :     0.4325570 α      lambda       -0.1151999E-03
   maximum displ.:     0.2953705 α      in ANC's #2, #6, #12, ...

........................................................................
.............................. CYCLE   60 ..............................
........................................................................
   1   -151.4861506 -0.151486E+03  0.862E-02    2.30       0.0  T
   2   -151.4861550 -0.442654E-05  0.507E-02    2.30       1.0  T
   3   -151.4861408  0.142299E-04  0.130E-02    2.30       1.0  T
   4   -151.4861574 -0.166450E-04  0.197E-03    2.31       5.8  T
   5   -151.4861576 -0.192057E-06  0.102E-03    2.30      11.1  T
   6   -151.4861577 -0.200464E-07  0.542E-04    2.30      20.9  T
   7   -151.4861577 -0.777251E-08  0.159E-04    2.30      71.2  T
     SCC iter.                  ...        0 min,  0.210 sec
     gradient                   ...        0 min,  0.151 sec
 * total energy  :  -149.4923707 Eh     change       -0.7639897E-04 Eh
   gradient norm :     0.0038179 Eh/α   predicted    -0.6837827E-04 ( -10.50%)
   displ. norm   :     0.1833582 α      lambda       -0.8414312E-04
   maximum displ.:     0.1200639 α      in ANC's #2, #6, #7, ...

........................................................................
.............................. CYCLE   61 ..............................
........................................................................
   1   -151.4871195 -0.151487E+03  0.364E-02    2.30       0.0  T
   2   -151.4871202 -0.661866E-06  0.214E-02    2.30       1.0  T
   3   -151.4871185  0.163236E-05  0.433E-03    2.30       2.6  T
   4   -151.4871204 -0.191401E-05  0.837E-04    2.30      13.5  T
   5   -151.4871205 -0.371393E-07  0.422E-04    2.30      26.8  T
   6   -151.4871205 -0.366384E-08  0.214E-04    2.30      52.8  T
     SCC iter.                  ...        0 min,  0.185 sec
     gradient                   ...        0 min,  0.123 sec
 * total energy  :  -149.4924383 Eh     change       -0.6760491E-04 Eh
   gradient norm :     0.0035930 Eh/α   predicted    -0.4348562E-04 ( -35.68%)
   displ. norm   :     0.3116651 α      lambda       -0.1322656E-03
   maximum displ.:     0.1996332 α      in ANC's #2, #7, #6, ...

........................................................................
.............................. CYCLE   62 ..............................
........................................................................
   1   -151.4882860 -0.151488E+03  0.637E-02    2.30       0.0  T
   2   -151.4882881 -0.207469E-05  0.374E-02    2.30       1.0  T
   3   -151.4882836  0.448043E-05  0.737E-03    2.30       1.5  T
   4   -151.4882888 -0.517132E-05  0.165E-03    2.30       6.9  T
   5   -151.4882890 -0.173763E-06  0.701E-04    2.30      16.2  T
   6   -151.4882890 -0.104700E-07  0.350E-04    2.30      32.4  T
[...]
       139                         -0.2421880              -6.5903
       140                         -0.2401785              -6.5356
       141                         -0.2370373              -6.4501
       142                         -0.2360830              -6.4241
       ...                                ...                  ...
       234                          0.6882406              18.7280
      -------------------------------------------------------------
                  HL-Gap            0.0988132 Eh            2.6888 eV
             Fermi-level           -0.3372728 Eh           -9.1777 eV

     #   Z          covCN         q      C6AA      α(0)
     1   6 C        2.919    -0.031    28.769     8.796
     2   6 C        2.918    -0.031    28.764     8.795
     3   6 C        2.988     0.016    27.642     8.624
     4   6 C        2.918    -0.033    28.810     8.802
     5   6 C        2.916    -0.028    28.692     8.784
     6   6 C        2.916    -0.027    28.686     8.783
     7   6 C        2.918    -0.033    28.815     8.803
     8   6 C        2.987     0.018    27.609     8.619
     9   6 C        2.923    -0.033    28.831     8.805
    10   6 C        2.969     0.011    27.764     8.643
    11   6 C        3.835     0.045    19.791     6.329
    12   6 C        3.828     0.040    19.877     6.344
    13   6 C        2.969     0.004    27.941     8.670
    14   6 C        2.921    -0.041    29.012     8.833
    15   6 C        2.988     0.016    27.642     8.624
    16   6 C        2.919    -0.034    28.837     8.806
    17   6 C        2.916    -0.028    28.711     8.787
    18   6 C        2.916    -0.029    28.714     8.787
    19   6 C        2.918    -0.034    28.840     8.806
    20   6 C        2.987     0.014    27.698     8.633
    21   6 C        2.917    -0.033    28.815     8.803
    22   6 C        2.920    -0.036    28.891     8.814
    23   7 N        2.767    -0.113    23.461     7.194
    24   6 C        2.760     0.275    22.343     7.741
    25   6 C        2.978    -0.008    28.222     8.714
    26   6 C        2.923    -0.017    28.431     8.744
    27   6 C        2.920    -0.020    28.518     8.757
    28   6 C        2.977    -0.023    28.569     8.768
    29   6 C        3.336     0.486    17.285     6.584
    30   9 F        0.791    -0.199    11.229     3.958
    31   9 F        0.791    -0.203    11.268     3.965
    32   9 F        0.791    -0.211    11.354     3.980
    33   6 C        2.920    -0.025    28.634     8.775
    34   6 C        2.923    -0.028    28.712     8.787
    35   8 O        0.858    -0.395    21.579     6.228
    36   6 C        3.777     0.085    19.195     6.242
    37   6 C        2.687     0.347    21.099     7.517
    38   8 O        1.659    -0.360    20.091     6.051
    39   8 O        0.856    -0.379    21.266     6.183
    40   7 N        2.771    -0.114    23.491     7.199
    41   6 C        2.757     0.278    22.291     7.732
    42   6 C        2.978    -0.007    28.193     8.710
    43   6 C        2.922    -0.019    28.481     8.752
    44   6 C        2.919    -0.021    28.529     8.759
    45   6 C        2.978    -0.022    28.545     8.764
    46   6 C        3.336     0.486    17.273     6.581
    47   9 F        0.791    -0.208    11.314     3.973
    48   9 F        0.791    -0.198    11.217     3.956
    49   9 F        0.791    -0.206    11.296     3.970
    50   6 C        2.921    -0.022    28.565     8.765
    51   6 C        2.925    -0.026    28.657     8.779
    52   8 O        0.858    -0.393    21.531     6.221
    53   1 H        0.926     0.034     2.526     2.486
    54   1 H        0.926     0.042     2.429     2.437
    55   1 H        0.926     0.036     2.501     2.473
    56   1 H        0.926     0.035     2.514     2.479
    57   1 H        0.926     0.035     2.516     2.480
    58   1 H        0.926     0.032     2.560     2.502
    59   1 H        0.925     0.024     2.667     2.554
    60   1 H        0.923     0.045     2.379     2.412
    61   1 H        0.923     0.067     2.122     2.278
    62   1 H        0.926     0.046     2.373     2.409
    63   1 H        0.926     0.037     2.487     2.466
    64   1 H        0.926     0.034     2.533     2.489
    65   1 H        0.926     0.034     2.535     2.490
    66   1 H        0.926     0.034     2.525     2.485
    67   1 H        0.926     0.039     2.458     2.452
    68   1 H        0.926     0.031     2.565     2.505
    69   1 H        0.926     0.074     2.046     2.237
    70   1 H        0.926     0.072     2.068     2.249
    71   1 H        0.926     0.070     2.089     2.260
    72   1 H        0.926     0.050     2.316     2.380
    73   1 H        0.923     0.068     2.110     2.272
    74   1 H        0.804     0.350     0.588     1.204
    75   1 H        0.926     0.068     2.110     2.271
    76   1 H        0.926     0.072     2.061     2.245
    77   1 H        0.926     0.065     2.143     2.289
    78   1 H        0.926     0.052     2.301     2.372

 Mol. C6AA /au·bohr⁶  :      85706.790539
 Mol. C8AA /au·bohr⁸  :    2111840.474573
 Mol. α(0) /au        :        459.213252


Wiberg/Mayer (AO) data.
largest (>0.10) Wiberg bond orders for each atom

 ---------------------------------------------------------------------------
     #   Z sym  total        # sym  WBO       # sym  WBO       # sym  WBO
 ---------------------------------------------------------------------------
     1   6 C    3.990 --     2 C    1.558    10 C    1.299    53 H    0.968
     2   6 C    3.991 --     1 C    1.558     3 C    1.280    54 H    0.967
                             9 C    0.116
     3   6 C    3.990 --     4 C    1.280     2 C    1.280     8 C    1.248
     4   6 C    3.992 --     5 C    1.558     3 C    1.280    55 H    0.968
                             7 C    0.118
     5   6 C    3.990 --     4 C    1.558     6 C    1.319    56 H    0.971
     6   6 C    3.992 --     7 C    1.559     5 C    1.319    57 H    0.971
     7   6 C    3.990 --     6 C    1.559     8 C    1.277    58 H    0.968
                             4 C    0.118
     8   6 C    3.990 --     9 C    1.287     7 C    1.277     3 C    1.248
     9   6 C    3.990 --    10 C    1.519     8 C    1.287    59 H    0.965
                             2 C    0.116
    10   6 C    3.984 --     9 C    1.519     1 C    1.299    11 C    0.995
    11   6 C    3.957 --    10 C    0.995    60 H    0.955    40 N    0.953
                            12 C    0.944
    12   6 C    3.954 --    13 C    0.989    23 N    0.956    61 H    0.951
                            11 C    0.944
    13   6 C    3.984 --    14 C    1.533    22 C    1.288    12 C    0.989
    14   6 C    3.989 --    13 C    1.533    15 C    1.278    62 H    0.960
                            21 C    0.114
    15   6 C    3.990 --    16 C    1.280    14 C    1.278    20 C    1.253
    16   6 C    3.990 --    17 C    1.557    15 C    1.280    63 H    0.968
                            19 C    0.118
    17   6 C    3.992 --    16 C    1.557    18 C    1.322    64 H    0.971
    18   6 C    3.990 --    19 C    1.555    17 C    1.322    65 H    0.971
    19   6 C    3.992 --    18 C    1.555    20 C    1.282    66 H    0.968
                            16 C    0.118
    20   6 C    3.990 --    19 C    1.282    21 C    1.274    15 C    1.253
    21   6 C    3.991 --    22 C    1.568    20 C    1.274    67 H    0.968
                            14 C    0.114
    22   6 C    3.990 --    21 C    1.568    13 C    1.288    68 H    0.968
    23   7 N    3.464 --    24 C    1.200    36 C    0.995    12 C    0.956
                            35 O    0.195
    24   6 C    3.950 --    35 O    1.720    23 N    1.200    25 C    0.949
    25   6 C    3.988 --    26 C    1.413    34 C    1.401    24 C    0.949
                            28 C    0.106
    26   6 C    3.987 --    27 C    1.439    25 C    1.413    69 H    0.965
                            33 C    0.112
    27   6 C    3.987 --    26 C    1.439    28 C    1.418    70 H    0.965
                            34 C    0.110
    28   6 C    3.976 --    27 C    1.418    33 C    1.408    29 C    0.950
                            25 C    0.106
    29   6 C    3.828 --    30 F    0.954    31 F    0.952    28 C    0.950
                            32 F    0.936
    30   9 F    1.080 --    29 C    0.954
    31   9 F    1.076 --    29 C    0.952
    32   9 F    1.066 --    29 C    0.936
    33   6 C    3.988 --    34 C    1.448    28 C    1.408    71 H    0.965
                            26 C    0.112
    34   6 C    3.991 --    33 C    1.448    25 C    1.401    72 H    0.968
                            27 C    0.110
    35   8 O    2.045 --    24 C    1.720    23 N    0.195
    36   6 C    3.976 --    23 N    0.995    40 N    0.993    73 H    0.920
                            37 C    0.906
    37   6 C    3.920 --    39 O    1.780    38 O    1.162    36 C    0.906
    38   8 O    2.224 --    37 C    1.162    74 H    0.851    39 O    0.184
    39   8 O    2.067 --    37 C    1.780    38 O    0.184
    40   7 N    3.454 --    41 C    1.195    36 C    0.993    11 C    0.953
                            52 O    0.192
    41   6 C    3.950 --    52 O    1.722    40 N    1.195    42 C    0.950
    42   6 C    3.987 --    43 C    1.418    51 C    1.393    41 C    0.950
                            45 C    0.106
    43   6 C    3.988 --    44 C    1.436    42 C    1.418    75 H    0.966
                            50 C    0.111
    44   6 C    3.987 --    43 C    1.436    45 C    1.422    76 H    0.965
                            51 C    0.110
    45   6 C    3.977 --    44 C    1.422    50 C    1.404    46 C    0.950
                            42 C    0.106
    46   6 C    3.829 --    48 F    0.958    45 C    0.950    47 F    0.942
                            49 F    0.942
    47   9 F    1.069 --    46 C    0.942
    48   9 F    1.082 --    46 C    0.958
    49   9 F    1.071 --    46 C    0.942
    50   6 C    3.989 --    51 C    1.454    45 C    1.404    77 H    0.966
                            43 C    0.111
    51   6 C    3.990 --    50 C    1.454    42 C    1.393    78 H    0.967
                            44 C    0.110
    52   8 O    2.050 --    41 C    1.722    40 N    0.192
    53   1 H    0.998 --     1 C    0.968
    54   1 H    0.997 --     2 C    0.967
    55   1 H    0.998 --     4 C    0.968
    56   1 H    0.998 --     5 C    0.971
    57   1 H    0.998 --     6 C    0.971
    58   1 H    0.999 --     7 C    0.968
    59   1 H    0.999 --     9 C    0.965
    60   1 H    0.997 --    11 C    0.955
    61   1 H    0.994 --    12 C    0.951
    62   1 H    0.997 --    14 C    0.960
    63   1 H    0.998 --    16 C    0.968
    64   1 H    0.998 --    17 C    0.971
    65   1 H    0.998 --    18 C    0.971
    66   1 H    0.998 --    19 C    0.968
    67   1 H    0.997 --    21 C    0.968
    68   1 H    0.999 --    22 C    0.968
    69   1 H    0.994 --    26 C    0.965
    70   1 H    0.994 --    27 C    0.965
    71   1 H    0.994 --    33 C    0.965
    72   1 H    0.997 --    34 C    0.968
    73   1 H    0.995 --    36 C    0.920
    74   1 H    0.877 --    38 O    0.851
    75   1 H    0.995 --    43 C    0.966
    76   1 H    0.994 --    44 C    0.965
    77   1 H    0.995 --    50 C    0.966
    78   1 H    0.997 --    51 C    0.967
 ---------------------------------------------------------------------------

Topologies differ in total number of bonds
Writing topology from bond orders to xtbtopo.mol

molecular dipole:
                 x           y           z       tot (Debye)
 q only:       -0.145       2.227       1.795
   full:       -0.157       1.686       1.829       6.334
molecular quadrupole (traceless):
                xx          xy          yy          xz          yz          zz
 q only:       15.923       9.629     -23.441     -16.230     -20.262       7.518
  q+dip:       14.933      14.150     -18.455     -28.732     -15.552       3.522
   full:       14.171      11.554     -21.902     -22.999     -19.557       7.732

           -------------------------------------------------
          |                Geometry Summary                 |
           -------------------------------------------------

      molecular mass/u    :      712.6373406
   center of mass at/Å    :        0.0225787      -0.7547982      -0.2570231
  moments of inertia/u·Å² :        0.7485264E+04   0.1212102E+05   0.1726326E+05
rotational constants/cm⁻¹ :        0.2252109E-02   0.1390777E-02   0.9765034E-03

 * 76 selected distances

     #   Z          #   Z                                           value/Å
     1   6 C        2   6 C                                       1.3654356
     2   6 C        3   6 C                                       1.4097725
     3   6 C        4   6 C                                       1.4102647
     4   6 C        5   6 C                                       1.3666044
     5   6 C        6   6 C                                       1.4041217
     6   6 C        7   6 C                                       1.3662841
     3   6 C        8   6 C                                       1.4194999
     7   6 C        8   6 C                                       1.4108102
     8   6 C        9   6 C                                       1.4075598
     1   6 C       10   6 C                                       1.4063950
     9   6 C       10   6 C                                       1.3710370
    13   6 C       14   6 C                                       1.3683202
    14   6 C       15   6 C                                       1.4101705
    15   6 C       16   6 C                                       1.4102423
    16   6 C       17   6 C                                       1.3668020
    17   6 C       18   6 C                                       1.4038138
    18   6 C       19   6 C                                       1.3669734
    15   6 C       20   6 C                                       1.4187368
    19   6 C       20   6 C                                       1.4098719
    20   6 C       21   6 C                                       1.4110245
    13   6 C       22   6 C                                       1.4096601
    21   6 C       22   6 C                                       1.3643970
    12   6 C       23   7 N                                       1.4580186
    23   7 N       24   6 C                                       1.3605664
    25   6 C       26   6 C                                       1.3881306
    26   6 C       27   6 C                                       1.3837329
    27   6 C       28   6 C                                       1.3878955
    29   6 C       30   9 F                                       1.3390420
    29   6 C       31   9 F                                       1.3402324
    29   6 C       32   9 F                                       1.3502198
    28   6 C       33   6 C                                       1.3894291
    25   6 C       34   6 C                                       1.3918118
    33   6 C       34   6 C                                       1.3824171
    24   6 C       35   8 O                                       1.2073513
    23   7 N       36   6 C                                       1.4373027
    37   6 C       38   8 O                                       1.3267863
    37   6 C       39   8 O                                       1.1975334
    11   6 C       40   7 N                                       1.4582444 (max)
    36   6 C       40   7 N                                       1.4371019
    40   7 N       41   6 C                                       1.3611344
    42   6 C       43   6 C                                       1.3869934
    43   6 C       44   6 C                                       1.3850620
    44   6 C       45   6 C                                       1.3869000
    46   6 C       47   9 F                                       1.3460875
    46   6 C       48   9 F                                       1.3356010
    46   6 C       49   9 F                                       1.3462978
    45   6 C       50   6 C                                       1.3901353
    42   6 C       51   6 C                                       1.3929270
    50   6 C       51   6 C                                       1.3805248
    41   6 C       52   8 O                                       1.2068147
     1   6 C       53   1 H                                       1.0802418
     2   6 C       54   1 H                                       1.0803055
     4   6 C       55   1 H                                       1.0806261
     5   6 C       56   1 H                                       1.0800380
     6   6 C       57   1 H                                       1.0801529
     7   6 C       58   1 H                                       1.0808381
     9   6 C       59   1 H                                       1.0818629
    11   6 C       60   1 H                                       1.0997107
    12   6 C       61   1 H                                       1.0979958
    14   6 C       62   1 H                                       1.0797791
    16   6 C       63   1 H                                       1.0805576
    17   6 C       64   1 H                                       1.0801705
    18   6 C       65   1 H                                       1.0801420
    19   6 C       66   1 H                                       1.0807005
    21   6 C       67   1 H                                       1.0804145
    22   6 C       68   1 H                                       1.0805833
    26   6 C       69   1 H                                       1.0778994
    27   6 C       70   1 H                                       1.0788949
    33   6 C       71   1 H                                       1.0791994
    34   6 C       72   1 H                                       1.0798982
    36   6 C       73   1 H                                       1.0986969
    38   8 O       74   1 H                                       0.9723921 (min)
    43   6 C       75   1 H                                       1.0782346
    44   6 C       76   1 H                                       1.0788484
    50   6 C       77   1 H                                       1.0794146
    51   6 C       78   1 H                                       1.0798302

 * 6 distinct bonds (by element types)

   Z      Z             #   av. dist./Å        max./Å        min./Å
   1 H    6 C          25     1.0822014     1.0997107     1.0778994
   6 C    6 C          34     1.3918752     1.4194999     1.3643970
   6 C    7 N           6     1.4187281     1.4582444     1.3605664
   1 H    8 O           1     0.9723921     0.9723921     0.9723921
   6 C    8 O           4     1.2346214     1.3267863     1.1975334
   6 C    9 F           6     1.3429134     1.3502198     1.3356010


optimized geometry written to: xtbopt.xyz


           -------------------------------------------------
          | TOTAL ENERGY             -149.499465057589 Eh   |
          | GRADIENT NORM               0.000378820466 Eh/α |
          | HOMO-LUMO GAP               2.688844175912 eV   |
           -------------------------------------------------

------------------------------------------------------------------------
 * finished run on 2022/03/16 at 22:34:46.029     
------------------------------------------------------------------------
 total:
 * wall-time:     0 d,  0 h,  1 min, 36.851 sec
 *  cpu-time:     0 d,  0 h, 30 min, 45.551 sec
 * ratio c/w:    19.056 speedup
 SCF:
 * wall-time:     0 d,  0 h,  0 min,  0.679 sec
 *  cpu-time:     0 d,  0 h,  0 min,  9.675 sec
 * ratio c/w:    14.252 speedup
 ANC optimizer:
 * wall-time:     0 d,  0 h,  1 min, 36.036 sec
 *  cpu-time:     0 d,  0 h, 30 min, 31.863 sec
 * ratio c/w:    19.075 speedup

