68
 energy: -113.055611330524 gnorm: 0.094873500359 xtb: 6.3.3 (4ae9cef)
C         2.88818100000000   -2.19433000000000    1.06872400000000
C         4.07351400000000   -2.79695000000000    1.49660100000000
C         4.37194800000000   -4.10018700000000    1.10034800000000
C         3.48546800000000   -4.79579900000000    0.27932200000000
C         2.29658600000000   -4.19596400000000   -0.14348800000000
C         1.98309000000000   -2.88574600000000    0.24142600000000
C         0.67679100000000   -2.24901200000000   -0.22225400000000
C        -0.29110400000000   -2.04956200000000    0.97757800000000
C        -1.42043100000000   -3.06550400000000    1.04859800000000
C        -1.64017900000000   -3.76980500000000    2.24564700000000
C        -2.65148800000000   -4.73125500000000    2.33875000000000
C        -3.46612000000000   -4.99457900000000    1.24030500000000
C        -3.27651500000000   -4.29118900000000    0.05376300000000
C        -2.26232500000000   -3.33219700000000   -0.04072600000000
N        -0.77712100000000   -0.67043900000000    0.86715500000000
C        -1.23697600000000   -0.01307400000000    1.99891300000000
C        -1.76213500000000    1.35643700000000    1.83433200000000
C        -1.12866200000000    2.41345700000000    2.49125800000000
C        -1.61154300000000    3.71078600000000    2.31626400000000
C        -2.71949500000000    3.94777000000000    1.49323200000000
C        -3.36497100000000    2.88546700000000    0.85383800000000
O        -4.44788900000000    2.98712900000000    0.02613900000000
C        -4.84715200000000    4.29939100000000   -0.34934300000000
C        -2.89009600000000    1.58320900000000    1.04189500000000
O        -1.21098400000000   -0.48733400000000    3.12900800000000
C        -0.15810200000000    0.01678400000000   -0.26400700000000
C        -1.22894200000000    0.26108900000000   -1.36566600000000
O        -1.34734400000000    1.56952600000000   -1.69868800000000
O        -1.91639000000000   -0.57486400000000   -1.93347000000000
N         0.86407700000000   -0.90086500000000   -0.76515400000000
C         1.66263400000000   -0.66141000000000   -1.86367600000000
C         1.93192000000000    0.74255100000000   -2.20921900000000
C         2.69285600000000    1.52320900000000   -1.33490600000000
C         2.94659500000000    2.86362700000000   -1.63293300000000
O         3.70730900000000    3.51210900000000   -0.70430000000000
C         4.09041100000000    4.84736300000000   -1.00187700000000
C         2.40694500000000    3.41897500000000   -2.79874600000000
C         1.66974500000000    2.62176100000000   -3.68881400000000
C         1.44759500000000    1.27325000000000   -3.40835900000000
O         2.19394500000000   -1.53720900000000   -2.54078000000000
H         2.67702500000000   -1.17526500000000    1.37594000000000
H         4.76347800000000   -2.24070100000000    2.12309600000000
H         5.29451300000000   -4.56733800000000    1.43034900000000
H         3.71280700000000   -5.80641500000000   -0.05154700000000
H         1.62263500000000   -4.75882500000000   -0.78982900000000
H         0.23624500000000   -2.85146700000000   -1.02906000000000
H         0.27062300000000   -2.09899500000000    1.92162900000000
H        -1.01862500000000   -3.56645900000000    3.11696600000000
H        -2.80801200000000   -5.27386400000000    3.26736500000000
H        -4.25018000000000   -5.74331700000000    1.31399300000000
H        -3.92240700000000   -4.48314800000000   -0.80084200000000
H        -2.13722600000000   -2.80130900000000   -0.98043100000000
H        -0.27874700000000    2.22849900000000    3.14111700000000
H        -1.12096800000000    4.54842600000000    2.80916900000000
H        -3.05891400000000    4.97523800000000    1.38459400000000
H        -5.17699900000000    4.87756600000000    0.51848300000000
H        -4.04955200000000    4.81314700000000   -0.89129600000000
H        -5.70087500000000    4.20358900000000   -1.02818600000000
H        -3.40197300000000    0.75025900000000    0.56268800000000
H         0.30025700000000    0.95948000000000    0.05495700000000
H        -2.13185300000000    1.61023700000000   -2.28512800000000
H         3.11287500000000    1.08435100000000   -0.43121100000000
H         4.86388900000000    5.13529400000000   -0.27951600000000
H         3.24130300000000    5.53142400000000   -0.88411000000000
H         4.53702200000000    4.93239200000000   -1.99989200000000
H         2.54355700000000    4.46333100000000   -3.05078300000000
H         1.26013800000000    3.07231600000000   -4.59335800000000
H         0.88631900000000    0.64493800000000   -4.10184900000000
68
 energy: -113.069202544375 gnorm: 0.034806300546 xtb: 6.3.3 (4ae9cef)
C         2.87967840929398   -2.19528360313229    1.05205918932883
C         4.05584242134864   -2.79445560855129    1.47908321939489
C         4.35630880230109   -4.09146016326553    1.09243149181483
C         3.47529937382254   -4.78280574279813    0.27781075174553
C         2.29750424967647   -4.18397067142563   -0.14712337012012
C         1.98528415571096   -2.88261576824889    0.23179689168522
C         0.67658248233411   -2.25337314463740   -0.21147687888756
C        -0.28967389711673   -2.05759798005293    0.98132716635168
C        -1.41998921089472   -3.06758600975415    1.04954127703183
C        -1.63590121961131   -3.76782962127788    2.23600163717494
C        -2.64237129776950   -4.71770801776135    2.32955469693145
C        -3.45495667247826   -4.97935618694685    1.23815409297615
C        -3.26323201049561   -4.27734050371786    0.05931759711871
C        -2.25398121324337   -3.32791830715534   -0.03554429698448
N        -0.76560031986872   -0.67387234698012    0.86382105545439
C        -1.21297332970891   -0.02142273866494    1.99036307051713
C        -1.73985313505133    1.35776742558857    1.80350306647607
C        -1.13079570887412    2.41388978446881    2.47631706915347
C        -1.61883305007927    3.69888035637143    2.30836894736215
C        -2.71512227026482    3.94092149273118    1.49092642706403
C        -3.35498619804397    2.88342139793462    0.85110944402433
O        -4.43506206270973    2.99709679344581    0.02471187930284
C        -4.84804535151852    4.29885074183511   -0.34563250727606
C        -2.86345746763260    1.58682416831167    1.01974726361334
O        -1.21661327899946   -0.53454472182189    3.09432286528331
C        -0.16090368740239    0.01137480449166   -0.26601539493631
C        -1.21917338680550    0.25987714258184   -1.36010766571980
O        -1.35409114522665    1.56109239938740   -1.67127699824553
O        -1.88380001920373   -0.58093812217826   -1.90362706857619
N         0.86395906335644   -0.90247631960429   -0.74689686093033
C         1.65012976844146   -0.67289118530923   -1.84580194579648
C         1.89981103765225    0.75179075663020   -2.18885439664676
C         2.66843724054063    1.52813992608477   -1.33192287280828
C         2.94143138793243    2.86177156085653   -1.63769209640870
O         3.70708363437766    3.51900939522582   -0.72158873439501
C         4.09195024543482    4.84921633812296   -1.00477653139952
C         2.40671093364698    3.41267683180121   -2.79890157495263
C         1.67315642222975    2.61784239433130   -3.67247895727590
C         1.43355188710373    1.28396128525905   -3.38741106811648
O         2.17727805395104   -1.56235866890236   -2.48796774847147
H         2.66189665537428   -1.18180519704093    1.36328657999794
H         4.73992801271242   -2.24457954172752    2.11190592235087
H         5.27582604481668   -4.55720406709450    1.42276061403671
H         3.70336186906896   -5.79151438114047   -0.04131300228921
H         1.62206369865705   -4.74120806924135   -0.78353717330396
H         0.22758644738785   -2.87591343016244   -0.99635235620921
H         0.27363409055379   -2.12004734651681    1.92329379542244
H        -1.01749741675268   -3.56387742388169    3.10056916134972
H        -2.79552517844255   -5.25674584585489    3.25533506162347
H        -4.23606222727969   -5.72596341536412    1.30971397500429
H        -3.90266449622631   -4.46992013979824   -0.79274289719456
H        -2.13285901136795   -2.78698104650851   -0.96450319120983
H        -0.28373895171537    2.22841176862449    3.12144547030635
H        -1.13675407769059    4.53024493682805    2.80586206438780
H        -3.05622949049604    4.96081563598224    1.37844576264681
H        -5.17342437367023    4.87752749121151    0.52223922509219
H        -4.04725312100659    4.82352878161195   -0.87388055724530
H        -5.69659412263315    4.17720497146811   -1.02213844121566
H        -3.38143191033526    0.76116025948397    0.55052370518574
H         0.27228647913179    0.97514112205077    0.03127639813673
H        -2.10646484288881    1.62342999781215   -2.29143139561001
H         3.08938030155283    1.09711466235134   -0.43368043359968
H         4.85294871330869    5.11792624436778   -0.26815549655246
H         3.24222557917807    5.53134857515247   -0.90311908569079
H         4.52953545376061    4.93390236536384   -2.00316542335109
H         2.54985045368949    4.45363078388289   -3.04835879015742
H         1.27933849215369    3.05974233415205   -4.57914109113807
H         0.88605429300332    0.65803041071459   -4.08031253263135
68
 energy: -113.073196232403 gnorm: 0.013115967421 xtb: 6.3.3 (4ae9cef)
C         2.86561582224506   -2.18892585578046    1.03908002823566
C         4.03903352694495   -2.78429100563169    1.46430389219332
C         4.34198205603223   -4.07934443395323    1.08240525556097
C         3.46352814015925   -4.77225179622104    0.27074989655465
C         2.28944589943012   -4.17616472648441   -0.15416931801747
C         1.97851330547419   -2.87902317290582    0.22364195540864
C         0.67105200948287   -2.25514935875317   -0.20645896098206
C        -0.28140414550721   -2.06006517003550    0.98917424509357
C        -1.41380554987173   -3.06104283973456    1.05279613943524
C        -1.62509893064980   -3.76249462008691    2.23252263513850
C        -2.63104457418992   -4.70598888443192    2.32372174573915
C        -3.44246116322145   -4.96382281589744    1.23330205361982
C        -3.24908735472649   -4.25829519474503    0.05909632383986
C        -2.24459916583481   -3.31011590625192   -0.03235802055598
N        -0.75639089770678   -0.67761511154031    0.86792271553564
C        -1.21245293920600   -0.03875108272428    1.98842768464636
C        -1.72016570031375    1.35345480396510    1.78200693084529
C        -1.11910826793799    2.41093010959996    2.45836960011930
C        -1.61310938764267    3.68935507579109    2.29715188985731
C        -2.70340398594421    3.93439704734169    1.48043719711410
C        -3.33247889035859    2.87800478812684    0.83267392248843
O        -4.41519239869033    2.99871982626243    0.01419339734208
C        -4.84615781203166    4.29408500135936   -0.33903070090779
C        -2.83581172175218    1.58369469373522    0.99606656246546
O        -1.23514013040426   -0.57990224862941    3.07341768738151
C        -0.16327117808280    0.00612189468347   -0.26021981552208
C        -1.21908403273646    0.24831290631432   -1.35091972109049
O        -1.34980910126168    1.54478043572671   -1.64639512143874
O        -1.85733238027762   -0.60605147110768   -1.89272697228203
N         0.86278052203154   -0.90269879109570   -0.72891541250412
C         1.64524620818992   -0.68559639068907   -1.82628065360709
C         1.87357437329213    0.75436309017822   -2.17005140060288
C         2.64050712678701    1.53057107245031   -1.31919370640644
C         2.92423134467759    2.86083922957141   -1.63008730312683
O         3.70215256009125    3.52139083296402   -0.72961163159136
C         4.08927097974148    4.84652451708295   -1.01024712855544
C         2.40226457448030    3.40814645375759   -2.79591273222578
C         1.66736467834101    2.61356985382963   -3.65909926170398
C         1.41362610040157    1.28781123756377   -3.36830611039531
O         2.17514046900501   -1.58890497412402   -2.43536947129677
H         2.64191989810027   -1.17704030576565    1.34703654463378
H         4.71994064005921   -2.23706428734562    2.09989804550819
H         5.25816698240475   -4.54445822836684    1.41626715677813
H         3.69173786346423   -5.78215836285071   -0.03580581893327
H         1.61223727125514   -4.72715267190023   -0.78794674946930
H         0.21313968008738   -2.88694955508721   -0.97796936553786
H         0.27886926661765   -2.13068948324051    1.93209083171733
H        -1.00457104830317   -3.56088531781254    3.09171031653215
H        -2.78321485105928   -5.24284808722115    3.24817121547050
H        -4.22468642183444   -5.70609096190482    1.30197369465204
H        -3.88512494750545   -4.44846739715907   -0.79252284426361
H        -2.12196598307670   -2.75998010591608   -0.95297494818238
H        -0.27567316594268    2.22354592382777    3.10345731071776
H        -1.14612383743598    4.51586627332937    2.81114102839492
H        -3.05678377934430    4.94736143258778    1.37206423471285
H        -5.17720957775867    4.86648916258203    0.53145352765585
H        -4.05132845085745    4.84160575385586   -0.85668541599006
H        -5.68918585074945    4.15246532050465   -1.01412653187369
H        -3.35106072009591    0.76527040344663    0.51852278449358
H         0.25258275397820    0.98443694516647    0.02553053087375
H        -2.06975076962913    1.64326322526486   -2.29948503370763
H         3.05613016114096    1.11033480823090   -0.41736893854223
H         4.83654389423598    5.10278250553476   -0.26014915991359
H         3.24122987211734    5.53332068882438   -0.92522784022548
H         4.53273359963285    4.93307976524373   -2.00511919893113
H         2.56585986705694    4.44404052243102   -3.04959243486128
H         1.29157914258973    3.04623256117971   -4.57408022649949
H         0.86508952239302    0.66511245308007   -4.05637303101203
68
 energy: -113.074423315181 gnorm: 0.009462478217 xtb: 6.3.3 (4ae9cef)
C         2.85603223857699   -2.18062069245630    1.02809231163751
C         4.02976590293006   -2.77328593505248    1.45383691386196
C         4.33224708012445   -4.06995208875230    1.07580583809862
C         3.45479876828765   -4.76766312034481    0.26563187150141
C         2.28125507811667   -4.17382252735555   -0.16198852225117
C         1.97180711726132   -2.87675733951460    0.21563688027121
C         0.66496586305766   -2.25365733693860   -0.20395974382653
C        -0.27459246923898   -2.05910017051594    0.99731068281986
C        -1.40695132046889   -3.05495918509958    1.05954328744726
C        -1.61519011241166   -3.76193341062738    2.23543215696595
C        -2.62511879522858   -4.70135169181681    2.32226253050008
C        -3.43712974048809   -4.95021585169358    1.22975083234683
C        -3.24303033729643   -4.23853984384737    0.05873383731029
C        -2.23822216642905   -3.29125740682199   -0.02770566939234
N        -0.74861374420644   -0.67817986091822    0.87728018968223
C        -1.21818622334488   -0.05033862516707    1.99459698750656
C        -1.70876412427789    1.34788595375618    1.77716821731954
C        -1.10816200803341    2.40576459163478    2.45313840763888
C        -1.60262112256420    3.68331891314996    2.29075486180236
C        -2.69044607724725    3.92845150549558    1.47031753128200
C        -3.30942704055098    2.87209050599790    0.81195889298645
O        -4.39093900747694    2.99413457416306   -0.00628080012200
C        -4.84376427914706    4.28714034772288   -0.33546946154731
C        -2.81234018795133    1.57832041295615    0.97578502137233
O        -1.27209126542081   -0.61109879789451    3.06908341828518
C        -0.16375040094276    0.00469285768169   -0.25210812067157
C        -1.21248469885132    0.23931022731470   -1.35364836372546
O        -1.34488886418160    1.53437102111795   -1.63605324520779
O        -1.83689275443280   -0.62481753662371   -1.89851864581442
N         0.86109206109005   -0.90114160975157   -0.71734098174990
C         1.64654842271655   -0.69193366678293   -1.81229387880039
C         1.85940920308480    0.75287338947652   -2.15831727911980
C         2.61849413582802    1.53241885387818   -1.30457665103230
C         2.90903887079196    2.85991384311177   -1.62161776008036
O         3.69128165973601    3.52209609185560   -0.72791850825134
C         4.08399678461952    4.84309843295679   -1.01279973491540
C         2.39921786488974    3.40287915926162   -2.79562787692205
C         1.65781179969174    2.60808818986647   -3.65298578982479
C         1.39577343521231    1.28540711738434   -3.35553118753318
O         2.18635026050343   -1.60186647018681   -2.40068905339318
H         2.62611080986408   -1.16904603207487    1.33244632731981
H         4.71016449464072   -2.22452101399911    2.08806029962020
H         5.24838985397230   -4.53303435092136    1.41038632346259
H         3.68511547830747   -5.77827435033899   -0.03572177179545
H         1.60114556221609   -4.72209129923565   -0.79493599563872
H         0.19852746431382   -2.88291836452691   -0.97166763962013
H         0.28794773601882   -2.13285893556705    1.93830318989966
H        -0.98993928242468   -3.56526597301149    3.09208409520627
H        -2.77719631755053   -5.24120506132893    3.24458446217855
H        -4.21995408087636   -5.69131850498672    1.29305433556975
H        -3.87765304364243   -4.42395376064097   -0.79476921811334
H        -2.11458543227130   -2.73036981259653   -0.94151871421300
H        -0.26457368161207    2.21731994116146    3.09736933024913
H        -1.14222048569163    4.50842776715528    2.81254409429505
H        -3.05257110044725    4.93823878167656    1.36458905032631
H        -5.18749693815368    4.84048697043443    0.54383668475211
H        -4.05881843644553    4.86252457127436   -0.84132985955383
H        -5.68222629983754    4.13804318271996   -1.01311334337524
H        -3.32262955270533    0.76294325238032    0.48729600131215
H         0.24622273365382    0.98722456981762    0.02967693615019
H        -2.04595144139988    1.65745985308555   -2.30364375680861
H         3.02646213565725    1.12054817054085   -0.39522987537980
H         4.81773459687100    5.09960276998125   -0.25044400049945
H         3.23642434614432    5.53460630574076   -0.94888084203773
H         4.54491275104097    4.92464591833260   -2.00107843562552
H         2.57922146433484    4.43450591446467   -3.05553677030750
H         1.29023390001843    3.03485786989878   -4.57394286686240
H         0.84092395967707    0.66365879994443   -4.03910943696624
68
 energy: -113.075132270893 gnorm: 0.007883881902 xtb: 6.3.3 (4ae9cef)
C         2.84946677193793   -2.17396757373519    1.01739853982996
C         4.02550362136295   -2.76265956129140    1.44243034645789
C         4.32693862618005   -4.06109450308939    1.06743717525120
C         3.44990434139253   -4.76482279197431    0.26013371815004
C         2.27424696137980   -4.17501014562720   -0.16800578728649
C         1.96603629531142   -2.87734324294220    0.20907943423086
C         0.65991207835286   -2.25213034285556   -0.20160512899693
C        -0.26825366684426   -2.05877199211174    1.00657486548401
C        -1.40128823552371   -3.05022217871953    1.07014077313074
C        -1.60657051443641   -3.76667470668343    2.24104934848624
C        -2.62146470488689   -4.70260937639161    2.32120642563940
C        -3.43555743678471   -4.93774985861404    1.22646203412794
C        -3.24284144750551   -4.21603543490102    0.06054608347108
C        -2.23630850401754   -3.26986474489731   -0.01846369425054
N        -0.74134841026919   -0.67906784597794    0.88982087015888
C        -1.23287532596313   -0.06159760702915    2.00187819568237
C        -1.70148363590909    1.34183142518199    1.77820305566935
C        -1.09769639012502    2.39932254310266    2.45144209787289
C        -1.58880302105077    3.67826020517985    2.28363236490418
C        -2.67415555113633    3.92262854232149    1.45804102052638
C        -3.28584605014737    2.86667370302573    0.79075176403297
O        -4.36032697581322    2.98793650987728   -0.03599630920763
C        -4.84081155464191    4.27896499000697   -0.33400746443711
C        -2.79228614306611    1.57264869420417    0.95931559547407
O        -1.31586120878018   -0.63309304196628    3.06814953303756
C        -0.16438031818389    0.00378320313042   -0.24154877451007
C        -1.20981791371377    0.23528170625399   -1.35197079730921
O        -1.33651231539546    1.52825615390333   -1.63171147363794
O        -1.81251030058536   -0.63555455133794   -1.91364219513733
N         0.85944678024572   -0.89953943676201   -0.70781544657281
C         1.65126104550811   -0.69413765875862   -1.79859640898199
C         1.84964770125529    0.75080618929785   -2.14838533285843
C         2.59903124750379    1.53510623876022   -1.28982392631650
C         2.89379670369715    2.85978671802872   -1.61360925053563
O         3.67445566600338    3.52423142422104   -0.72160997012561
C         4.07555376763719    4.84069314575212   -1.01375174525655
C         2.39480926467155    3.39648426963543   -2.79644692868559
C         1.64629169743527    2.60142739900162   -3.64886483413949
C         1.38002897847399    1.28041050743422   -3.34455396536219
O         2.20383868993349   -1.60547386734157   -2.37206672454926
H         2.61415013030416   -1.16150935492693    1.31532474518089
H         4.70674816586643   -2.21013420017953    2.07259035963732
H         5.24340641167671   -4.52221775918645    1.40337598102202
H         3.68228527774302   -5.77646183107129   -0.03684575722539
H         1.59126779669733   -4.72185776693530   -0.80026100518588
H         0.18442178885431   -2.87392228751690   -0.96939131024681
H         0.29976384466080   -2.13372955857227    1.94397946172496
H        -0.97494759876418   -3.57871621636649    3.09572050157402
H        -2.77433709938637   -5.24868083843722    3.23998174771137
H        -4.22114120416474   -5.67639556951209    1.28356735077195
H        -3.87906871189263   -4.39169359435997   -0.79442322518828
H        -2.11139455396230   -2.69733970732742   -0.92513227233098
H        -0.25698446034718    2.20943001514751    3.09977095030522
H        -1.13065646403520    4.50313472039089    2.80816404278469
H        -3.04064274272790    4.93097774614410    1.35237049882649
H        -5.20128860953705    4.80153556406723    0.55945770629209
H        -4.06877262435305    4.88770949243623   -0.82328338834929
H        -5.67363633698061    4.12755752382900   -1.01784004778345
H        -3.29585295359544    0.75873061889584    0.45971819129863
H         0.24218346909356    0.98757959623146    0.03858813841804
H        -2.01653339135115    1.67168882798309   -2.31547293110557
H         2.99878778440613    1.13047491937965   -0.37266545252562
H         4.79106245533377    5.10533210519541   -0.23624223234461
H         3.22768656954309    5.53595222099630   -0.97991019841861
H         4.56308628428418    4.91015714284452   -1.99182382238840
H         2.58946421382787    4.42325940404059   -3.06466789101817
H         1.27982061173150    3.02376320011964   -4.57256139748322
H         0.81795233357288    0.65826248137928   -4.02330782741407
68
 energy: -113.075528350167 gnorm: 0.006873682248 xtb: 6.3.3 (4ae9cef)
C         2.84859359033362   -2.17113727938147    1.00837645194375
C         4.02736718131862   -2.75595189971592    1.43157797050216
C         4.32744936601171   -4.05585697195268    1.05953394629434
C         3.44961027979651   -4.76438166798273    0.25667466772503
C         2.27099406352672   -4.17847839685232   -0.17011944245954
C         1.96344483039807   -2.88019696705715    0.20557031920459
C         0.65682875857014   -2.25282058179192   -0.19862864603994
C        -0.26455601630232   -2.05994617871692    1.01504522915812
C        -1.39889619198283   -3.04868045847144    1.08057169126947
C        -1.60119870740487   -3.77604572007647    2.24564191957832
C        -2.62074994101823   -4.70850104049561    2.31964622138870
C        -3.43976976006836   -4.92796688701397    1.22495697772758
C        -3.25025645269791   -4.19487549111671    0.06523966408455
C        -2.24024508061643   -3.25170407205890   -0.00713199198819
N        -0.73526027186643   -0.67994269765637    0.90098036635692
C        -1.24697556030425   -0.06903544988044    2.00726082489700
C        -1.69975479200099    1.33702976496861    1.78202769305564
C        -1.09364955217273    2.39337449922554    2.45398604972854
C        -1.57760733009218    3.67468942857199    2.27663127418293
C        -2.65846317193036    3.91902959483011    1.44417781373520
C        -3.26798768162956    2.86385967045817    0.77326228058616
O        -4.33272522493254    2.98396002666286   -0.06618432852308
C        -4.83797234568414    4.27253645492647   -0.33518806767241
C        -2.78052182251950    1.56888444002588    0.94965630181394
O        -1.35713512911755   -0.64694398371255    3.06759064065511
C        -0.16314078499691    0.00317217315678   -0.23215272434655
C        -1.19931630901550    0.23551653200538   -1.35549232504891
O        -1.32683481604938    1.52889068238913   -1.62878878132334
O        -1.79262458934273   -0.63501901798244   -1.92717457662771
N         0.85840529054865   -0.89999729965316   -0.70146556429542
C         1.65665732341120   -0.69328146756201   -1.78760428845564
C         1.84489440499692    0.74941182921356   -2.14093927724948
C         2.58715348164667    1.53834390564913   -1.27956627964837
C         2.88226915007824    2.86126845199025   -1.60826103018201
O         3.65694092986522    3.52903310398259   -0.71396865327285
C         4.06535403346119    4.84161712257965   -1.01391990718586
C         2.38897508221209    3.39171765181090   -2.79679783899092
C         1.63657712578321    2.59578902734451   -3.64582322211445
C         1.37093515543088    1.27516572686411   -3.33677798329153
O         2.22090722717739   -1.60160082025909   -2.35403614815083
H         2.61011605465435   -1.15772509023545    1.30085807983034
H         4.71056718411148   -2.19916403057338    2.05616346847788
H         5.24567791984424   -4.51470021850943    1.39439133997839
H         3.68388627365487   -5.77631421083194   -0.03855311807256
H         1.58564868687146   -4.72614691920040   -0.79993731861086
H         0.17465617463976   -2.86768918618182   -0.96791125334107
H         0.30952409330601   -2.13584077789547    1.94881333475239
H        -0.96335961744869   -3.59903698912351    3.09874896326881
H        -2.77301935249564   -5.26358402802006    3.23350811619023
H        -4.22803235798051   -5.66455765081513    1.27668900116077
H        -3.89063422940726   -4.35846315701072   -0.78957122615354
H        -2.11552163488033   -2.66867176065207   -0.90735547458050
H        -0.25721076818493    2.20229515566807    3.10828219874346
H        -1.11720168224029    4.50012662845272    2.79850973516630
H        -3.02289905938439    4.92791956766004    1.33500367649607
H        -5.21139037803246    4.76364184010606    0.57180556154800
H        -4.07814898523813    4.90880330933200   -0.80783176394817
H        -5.66587411106600    4.12254432459686   -1.02565595643849
H        -3.27966679403961    0.75475679795487    0.44532790376039
H         0.24395612487632    0.98608983859571    0.04741587069269
H        -1.99301119970732    1.68282582264841   -2.32046223242299
H         2.98172819003134    1.13803180517032   -0.35793499630200
H         4.76187505526543    5.11848545780063   -0.22251410039806
H         3.21703697346517    5.53786371040474   -1.01086840986307
H         4.57888893154470    4.89643126076821   -1.98078980035628
H         2.59164397357604    4.41470588874848   -3.07228592424971
H         1.26732224024216    3.01535366133770   -4.56996388911777
H         0.80572755120179    0.65109321253999   -4.01227101323158
68
 energy: -113.075855706561 gnorm: 0.006227111310 xtb: 6.3.3 (4ae9cef)
C         2.85267182877160   -2.17155924152138    1.00025861970887
C         4.03498431128644   -2.75222750067416    1.41911504233580
C         4.33398445541104   -4.05315854642255    1.04964857677060
C         3.45338602517726   -4.76587485974253    0.25388852713878
C         2.27074023286873   -4.18405700818443   -0.16860622743210
C         1.96363262567655   -2.88524602727708    0.20504150020671
C         0.65580247708771   -2.25636851237661   -0.19393927592064
C        -0.26232948040551   -2.06348356934509    1.02350297003381
C        -1.39911447961423   -3.04951131512127    1.09043445973186
C        -1.59697486560332   -3.79037765759410    2.24792524754896
C        -2.62116326218954   -4.71867638583977    2.31634700165340
C        -3.44914449867997   -4.91899938575052    1.22462137956971
C        -3.26514350237335   -4.17179422746890    0.07293813336486
C        -2.25005729764641   -3.23365217219998    0.00633138124484
N        -0.73011061724207   -0.68243484387549    0.91164575758665
C        -1.26248721987398   -0.07609156424762    2.01050223931619
C        -1.70202037560993    1.33228373307637    1.78561798580792
C        -1.09366118299143    2.38703285548296    2.45692434395775
C        -1.56773847300915    3.67118406889140    2.26792507241474
C        -2.64168777640037    3.91727144338161    1.42683047002130
C        -3.25331346208696    2.86317170104215    0.75667447955506
O        -4.30644302031640    2.98312017799435   -0.09772154199739
C        -4.83476783423203    4.26786610437679   -0.33866038590683
C        -2.77498019125304    1.56645382475853    0.94381223423520
O        -1.39649433844534   -0.65735536490164    3.06540091072607
C        -0.16045808075088    0.00174941178715   -0.22145565952149
C        -1.19213597603896    0.23999723872832   -1.35005842248744
O        -1.31280837546048    1.53425452024842   -1.62242864194551
O        -1.77313740239640   -0.62747914290070   -1.93928623238329
N         0.85813713343520   -0.90308745634087   -0.69569799652095
C         1.66209336769226   -0.69137213059501   -1.77666835307206
C         1.84195318023650    0.74885524861732   -2.13316365110638