      -----------------------------------------------------------      
     |                   =====================                   |     
     |                           x T B                           |     
     |                   =====================                   |     
     |                         S. Grimme                         |     
     |          Mulliken Center for Theoretical Chemistry        |     
     |                    University of Bonn                     |     
      -----------------------------------------------------------      

   * xtb version 6.3.3 (4ae9cef) compiled by 'conda@95abc7406d43' on 2020-10-14

   xtb is free software: you can redistribute it and/or modify it under
   the terms of the GNU Lesser General Public License as published by
   the Free Software Foundation, either version 3 of the License, or
   (at your option) any later version.
   
   xtb is distributed in the hope that it will be useful,
   but WITHOUT ANY WARRANTY; without even the implied warranty of
   MERCHANTABILITY or FITNESS FOR A PARTICULAR PURPOSE.  See the
   GNU Lesser General Public License for more details.
   
   Cite this work as:
   * C. Bannwarth, E. Caldeweyher, S. Ehlert, A. Hansen, P. Pracht,
     J. Seibert, S. Spicher, S. Grimme, WIREs Comput. Mol. Sci., 2020,
     e01493. DOI: 10.1002/wcms.1493
   
   for GFN2-xTB:
   * S. Grimme, C. Bannwarth, P. Shushkov, J. Chem. Theory Comput., 2017,
     13, 1989-2009. DOI: 10.1021/acs.jctc.7b00118
   for GFN1-xTB:
   * C. Bannwarth, S. Ehlert and S. Grimme., J. Chem. Theory Comput., 2019,
     15, 1652-1671. DOI: 10.1021/acs.jctc.8b01176
   for GFN0-xTB:
   * P. Pracht, E. Caldeweyher, S. Ehlert, S. Grimme, ChemRxiv, 2019, preprint.
     DOI: 10.26434/chemrxiv.8326202.v1
   for GFN-FF:
   * S. Spicher and S. Grimme, Angew. Chem. Int. Ed., 2020, 59, 15665-15673.
     DOI: 10.1002/anie.202004239
   
   for DFT-D4:
   * E. Caldeweyher, C. Bannwarth and S. Grimme, J. Chem. Phys., 2017,
     147, 034112. DOI: 10.1063/1.4993215
   * E. Caldeweyher, S. Ehlert, A. Hansen, H. Neugebauer, S. Spicher,
     C. Bannwarth and S. Grimme, J. Chem. Phys., 2019, 150, 154122.
     DOI: 10.1063/1.5090222
   * E. Caldeweyher, J.-M. Mewes, S. Ehlert and S. Grimme, Phys. Chem. Chem. Phys.
     2020, 22, 8499-8512. DOI: 10.1039/D0CP00502A
   
   for sTDA-xTB:
   * S. Grimme and C. Bannwarth, J. Chem. Phys., 2016, 145, 054103.
     DOI: 10.1063/1.4959605
   
   in the mass-spec context:
   * V. Asgeirsson, C. Bauer and S. Grimme, Chem. Sci., 2017, 8, 4879.
     DOI: 10.1039/c7sc00601b
   * J. Koopman and S. Grimme, ACS Omega 2019, 4, 12, 15120-15133.
     DOI: 10.1021/acsomega.9b02011
   
   for metadynamics refer to:
   * S. Grimme, J. Chem. Theory Comput., 2019, 155, 2847-2862
     DOI: 10.1021/acs.jctc.9b00143
   
   with help from (in alphabetical order)
   C. Bannwarth, F. Bohle, G. Brandenburg, E. Caldeweyher, M. Checinski,
   S. Dohm, S. Ehlert, S. Ehrlich, F. März, H. Neugebauer, J. Pisarek,
   P. Pracht, P. Shushkov, and S. Spicher.
   
 * started run on 2022/03/17 at 02:19:16.865     

           -------------------------------------------------
          |                Calculation Setup                |
           -------------------------------------------------

          program call               : xtb alk_11.xyz --opt --chrg 0 --uhf 0 --gfn 2
          coordinate file            : alk_11.xyz
          omp threads                :                    64
          number of atoms            :                    27
          number of electrons        :                    70
          charge                     :                     0
          spin                       :                   0.0
          first test random number   :      0.66416567925309

   ID    Z sym.   atoms
    1    6 C      1, 3-11, 13
    2    8 O      2, 12
    3    1 H      14-27

           -------------------------------------------------
          |                 G F N 2 - x T B                 |
           -------------------------------------------------

        Reference                      10.1021/acs.jctc.8b01176
      * Hamiltonian:
        H0-scaling (s, p, d)           1.850000    2.230000    2.230000
        zeta-weighting                 0.500000
      * Dispersion:
        s8                             2.700000
        a1                             0.520000
        a2                             5.000000
        s9                             5.000000
      * Repulsion:
        kExp                           1.500000    1.000000
        rExp                           1.000000
      * Coulomb:
        alpha                          2.000000
        third order                    shell-resolved
        anisotropic                    true
        a3                             3.000000
        a5                             4.000000
        cn-shift                       1.200000
        cn-exp                         4.000000
        max-rad                        5.000000


          ...................................................
          :                      SETUP                      :
          :.................................................:
          :  # basis functions                  66          :
          :  # atomic orbitals                  66          :
          :  # shells                           40          :
          :  # electrons                        70          :
          :  max. iterations                   250          :
          :  Hamiltonian                  GFN2-xTB          :
          :  restarted?                      false          :
          :  GBSA solvation                  false          :
          :  PC potential                    false          :
          :  electronic temp.          300.0000000     K    :
          :  accuracy                    1.0000000          :
          :  -> integral cutoff          0.2500000E+02      :
          :  -> integral neglect         0.1000000E-07      :
          :  -> SCF convergence          0.1000000E-05 Eh   :
          :  -> wf. convergence          0.1000000E-03 e    :
          :  Broyden damping             0.4000000          :
          ...................................................

 iter      E             dE          RMSdq      gap      omega  full diag
   1    -39.2567662 -0.392568E+02  0.435E+00    3.86       0.0  T
   2    -39.3056185 -0.488523E-01  0.242E+00    3.85       1.0  T
   3    -39.2998982  0.572031E-02  0.958E-01    3.78       1.0  T
   4    -39.3040961 -0.419793E-02  0.513E-01    3.90       1.0  T
   5    -39.3090076 -0.491145E-02  0.104E-01    3.90       1.0  T
   6    -39.3090900 -0.824369E-04  0.630E-02    3.87       1.0  T
   7    -39.3091271 -0.370861E-04  0.239E-02    3.88       1.0  T
   8    -39.3091292 -0.208676E-05  0.718E-03    3.88       2.7  T
   9    -39.3091301 -0.942800E-06  0.239E-03    3.88       8.1  T
  10    -39.3091302 -0.550198E-07  0.981E-04    3.88      19.6  T
  11    -39.3091302 -0.182066E-08  0.525E-04    3.88      36.6  T

   *** convergence criteria satisfied after 11 iterations ***

         #    Occupation            Energy/Eh            Energy/eV
      -------------------------------------------------------------
         1        2.0000           -0.7046262             -19.1739
       ...           ...                  ...                  ...
        29        2.0000           -0.4388408             -11.9415
        30        2.0000           -0.4318787             -11.7520
        31        2.0000           -0.4257143             -11.5843
        32        2.0000           -0.4205792             -11.4445
        33        2.0000           -0.3969927             -10.8027
        34        2.0000           -0.3856167             -10.4932
        35        2.0000           -0.3586886              -9.7604 (HOMO)
        36                         -0.2160961              -5.8803 (LUMO)
        37                         -0.2130099              -5.7963
        38                         -0.2004688              -5.4550
        39                         -0.0894193              -2.4332
        40                          0.0125223               0.3407
       ...                                ...                  ...
        66                          0.6387262              17.3806
      -------------------------------------------------------------
                  HL-Gap            0.1425926 Eh            3.8801 eV
             Fermi-level           -0.2873924 Eh           -7.8203 eV

 SCC (total)                   0 d,  0 h,  0 min,  0.265 sec
 SCC setup                      ...        0 min,  0.013 sec (  4.977%)
 Dispersion                     ...        0 min,  0.018 sec (  6.885%)
 classical contributions        ...        0 min,  0.021 sec (  8.040%)
 integral evaluation            ...        0 min,  0.039 sec ( 14.765%)
 iterations                     ...        0 min,  0.015 sec (  5.814%)
 molecular gradient             ...        0 min,  0.143 sec ( 54.081%)
 printout                       ...        0 min,  0.014 sec (  5.407%)

         :::::::::::::::::::::::::::::::::::::::::::::::::::::
         ::                     SUMMARY                     ::
         :::::::::::::::::::::::::::::::::::::::::::::::::::::
         :: total energy             -38.777733064036 Eh    ::
         :: gradient norm              0.045410819684 Eh/a0 ::
         :: HOMO-LUMO gap              3.880140930081 eV    ::
         ::.................................................::
         :: SCC energy               -39.309130162520 Eh    ::
         :: -> isotropic ES            0.031154655617 Eh    ::
         :: -> anisotropic ES          0.007868852330 Eh    ::
         :: -> anisotropic XC          0.014939003322 Eh    ::
         :: -> dispersion             -0.022272101282 Eh    ::
         :: repulsion energy           0.531306148331 Eh    ::
         :: add. restraining           0.000000000000 Eh    ::
         :: total charge               0.000000000000 e     ::
         :::::::::::::::::::::::::::::::::::::::::::::::::::::

      ----------------------------------------------------------- 
     |                   =====================                   |
     |                        A N C O P T                        |
     |                   =====================                   |
     |               Approximate Normal Coordinate               |
     |                Rational Function Optimizer                |
      ----------------------------------------------------------- 

          ...................................................
          :                      SETUP                      :
          :.................................................:
          :   optimization level            normal          :
          :   max. optcycles                   200          :
          :   ANC micro-cycles                  20          :
          :   degrees of freedom                75          :
          :.................................................:
          :   RF solver                   davidson          :
          :   write xtbopt.log                true          :
          :   linear?                        false          :
          :   energy convergence         0.5000000E-05 Eh   :
          :   grad. convergence          0.1000000E-02 Eh/α :
          :   maximium RF displ.         1.0000000          :
          :   Hlow (freq-cutoff)         0.1000000E-01      :
          :   Hmax (freq-cutoff)         5.0000000          :
          :   S6 in model hess.         20.0000000          :
          ...................................................

generating ANC from model Hessian ...
Using Lindh-Hessian (1995)
 Shifting diagonal of input Hessian by    9.2954465531016103E-003
 Lowest  eigenvalues of input Hessian
    0.000000    0.000000    0.000000    0.000000    0.000000    0.000000
    0.010000    0.010350    0.011698    0.012568    0.013119    0.014174
    0.014605    0.015461    0.015942    0.019862    0.024230    0.025428
 Highest eigenvalues
    1.636443    1.755438    1.853749    1.859349    1.977097    2.078074


........................................................................
.............................. CYCLE    1 ..............................
........................................................................
   1    -39.3091302 -0.393091E+02  0.153E-04    3.88       0.0  T
   2    -39.3091302 -0.412896E-10  0.988E-05    3.88     194.8  T
   3    -39.3091302  0.272280E-10  0.669E-05    3.88     287.7  T
     SCC iter.                  ...        0 min,  0.007 sec
     gradient                   ...        0 min,  0.134 sec
 * total energy  :   -38.7777331 Eh     change       -0.3415614E-08 Eh
   gradient norm :     0.0454156 Eh/α   predicted     0.0000000E+00 (-100.00%)
   displ. norm   :     0.2028110 α      lambda       -0.4763523E-02
   maximum displ.:     0.0936950 α      in ANC's #23, #14, #20, ...

........................................................................
.............................. CYCLE    2 ..............................
........................................................................
   1    -39.3374162 -0.393374E+02  0.166E-01    3.96       0.0  T
   2    -39.3374273 -0.110321E-04  0.982E-02    3.97       1.0  T
   3    -39.3374077  0.195650E-04  0.327E-02    3.96       1.0  T
   4    -39.3374311 -0.233596E-04  0.501E-03    3.97       3.8  T
   5    -39.3374314 -0.313414E-06  0.299E-03    3.97       6.4  T
   6    -39.3374315 -0.111110E-06  0.129E-03    3.97      14.9  T
   7    -39.3374315 -0.145419E-07  0.504E-04    3.97      38.2  T
   8    -39.3374315 -0.143041E-08  0.187E-04    3.97     103.1  T
     SCC iter.                  ...        0 min,  0.018 sec
     gradient                   ...        0 min,  0.113 sec
 * total energy  :   -38.7807612 Eh     change       -0.3028142E-02 Eh
   gradient norm :     0.0144874 Eh/α   predicted    -0.2479755E-02 ( -18.11%)
   displ. norm   :     0.1304665 α      lambda       -0.7176973E-03
   maximum displ.:     0.0543896 α      in ANC's #23, #8, #2, ...

........................................................................
.............................. CYCLE    3 ..............................
........................................................................
   1    -39.3468770 -0.393469E+02  0.903E-02    3.99       0.0  T
   2    -39.3468846 -0.762100E-05  0.536E-02    4.00       1.0  T
   3    -39.3468760  0.858176E-05  0.223E-02    4.00       1.0  T
   4    -39.3468872 -0.111467E-04  0.280E-03    4.00       6.9  T
   5    -39.3468873 -0.148126E-06  0.113E-03    4.00      17.0  T
   6    -39.3468873 -0.155955E-07  0.531E-04    4.00      36.2  T
   7    -39.3468873 -0.156900E-08  0.221E-04    4.00      87.0  T
     SCC iter.                  ...        0 min,  0.013 sec
     gradient                   ...        0 min,  0.144 sec
 * total energy  :   -38.7811561 Eh     change       -0.3949275E-03 Eh
   gradient norm :     0.0049010 Eh/α   predicted    -0.3649607E-03 (  -7.59%)
   displ. norm   :     0.0816955 α      lambda       -0.1341045E-03
   maximum displ.:     0.0315912 α      in ANC's #8, #9, #2, ...

........................................................................
.............................. CYCLE    4 ..............................
........................................................................
   1    -39.3474358 -0.393474E+02  0.464E-02    4.00       0.0  T
   2    -39.3474373 -0.143943E-05  0.278E-02    4.00       1.0  T
   3    -39.3474351  0.222943E-05  0.104E-02    4.00       1.8  T
   4    -39.3474378 -0.276189E-05  0.123E-03    4.00      15.6  T
   5    -39.3474378 -0.270907E-07  0.536E-04    4.00      35.9  T
   6    -39.3474379 -0.204853E-08  0.273E-04    4.00      70.5  T
     SCC iter.                  ...        0 min,  0.010 sec
     gradient                   ...        0 min,  0.137 sec
 * total energy  :   -38.7812271 Eh     change       -0.7095039E-04 Eh
   gradient norm :     0.0025677 Eh/α   predicted    -0.6750123E-04 (  -4.86%)
   displ. norm   :     0.0894289 α      lambda       -0.7878400E-04
   maximum displ.:     0.0419877 α      in ANC's #2, #8, #1, ...

........................................................................
.............................. CYCLE    5 ..............................
........................................................................
   1    -39.3463248 -0.393463E+02  0.454E-02    3.99       0.0  T
   2    -39.3463253 -0.509831E-06  0.271E-02    4.00       1.0  T
   3    -39.3463240  0.128412E-05  0.684E-03    3.99       2.8  T
   4    -39.3463255 -0.150344E-05  0.973E-04    4.00      19.8  T
   5    -39.3463255 -0.103975E-07  0.547E-04    4.00      35.2  T
   6    -39.3463255 -0.171560E-08  0.310E-04    4.00      62.1  T
     SCC iter.                  ...        0 min,  0.012 sec
     gradient                   ...        0 min,  0.122 sec
 * total energy  :   -38.7812785 Eh     change       -0.5142829E-04 Eh
   gradient norm :     0.0018054 Eh/α   predicted    -0.3970846E-04 ( -22.79%)
   displ. norm   :     0.1055011 α      lambda       -0.2969405E-04
   maximum displ.:     0.0556655 α      in ANC's #2, #1, #8, ...

........................................................................
.............................. CYCLE    6 ..............................
........................................................................
   1    -39.3450821 -0.393451E+02  0.469E-02    3.99       0.0  T
   2    -39.3450822 -0.116795E-06  0.278E-02    3.99       1.0  T
   3    -39.3450822 -0.510545E-08  0.173E-03    3.99      11.1  T
   4    -39.3450823 -0.447612E-07  0.930E-04    3.99      20.7  T
   5    -39.3450823 -0.518278E-08  0.412E-04    3.99      46.7  T
     SCC iter.                  ...        0 min,  0.007 sec
     gradient                   ...        0 min,  0.138 sec
 * total energy  :   -38.7813032 Eh     change       -0.2465576E-04 Eh
   gradient norm :     0.0016657 Eh/α   predicted    -0.1492864E-04 ( -39.45%)
   displ. norm   :     0.0504650 α      lambda       -0.1137882E-04
   maximum displ.:     0.0302918 α      in ANC's #2, #1, #4, ...

........................................................................
.............................. CYCLE    7 ..............................
........................................................................
   1    -39.3456554 -0.393457E+02  0.179E-02    3.99       0.0  T
   2    -39.3456555 -0.864385E-07  0.107E-02    3.99       1.8  T
   3    -39.3456551  0.349603E-06  0.371E-03    3.99       5.2  T
   4    -39.3456555 -0.399503E-06  0.618E-04    3.99      31.2  T
   5    -39.3456555 -0.435377E-08  0.343E-04    3.99      56.2  T
     SCC iter.                  ...        0 min,  0.007 sec
     gradient                   ...        0 min,  0.150 sec
 * total energy  :   -38.7813167 Eh     change       -0.1355517E-04 Eh
   gradient norm :     0.0006619 Eh/α   predicted    -0.5701933E-05 ( -57.94%)
   displ. norm   :     0.0919109 α      lambda       -0.1410573E-04
   maximum displ.:     0.0544904 α      in ANC's #2, #1, #4, ...

........................................................................
.............................. CYCLE    8 ..............................
........................................................................
   1    -39.3462153 -0.393462E+02  0.336E-02    3.99       0.0  T
   2    -39.3462154 -0.119566E-06  0.200E-02    3.99       1.0  T
   3    -39.3462148  0.555478E-06  0.469E-03    3.99       4.1  T
   4    -39.3462155 -0.640042E-06  0.870E-04    3.99      22.1  T
   5    -39.3462155 -0.363596E-08  0.517E-04    3.99      37.3  T
     SCC iter.                  ...        0 min,  0.014 sec
     gradient                   ...        0 min,  0.015 sec
 * total energy  :   -38.7813318 Eh     change       -0.1504145E-04 Eh
   gradient norm :     0.0008349 Eh/α   predicted    -0.7080642E-05 ( -52.93%)
   displ. norm   :     0.0851110 α      lambda       -0.7817043E-05
   maximum displ.:     0.0517931 α      in ANC's #2, #1, #3, ...

........................................................................
.............................. CYCLE    9 ..............................
........................................................................
   1    -39.3463389 -0.393463E+02  0.310E-02    3.99       0.0  T
   2    -39.3463390 -0.551069E-07  0.183E-02    3.99       1.1  T
   3    -39.3463389  0.134874E-06  0.246E-03    3.99       7.8  T
   4    -39.3463390 -0.171109E-06  0.615E-04    3.99      31.3  T
   5    -39.3463390  0.105310E-09  0.381E-04    3.99      50.5  T
     SCC iter.                  ...        0 min,  0.010 sec
     gradient                   ...        0 min,  0.119 sec
 * total energy  :   -38.7813403 Eh     change       -0.8507793E-05 Eh
   gradient norm :     0.0008007 Eh/α   predicted    -0.3921772E-05 ( -53.90%)
   displ. norm   :     0.0806985 α      lambda       -0.5974060E-05
   maximum displ.:     0.0502335 α      in ANC's #2, #1, #3, ...

........................................................................
.............................. CYCLE   10 ..............................
........................................................................
   1    -39.3463007 -0.393463E+02  0.329E-02    3.99       0.0  T
   2    -39.3463008 -0.465123E-07  0.193E-02    3.99       1.0  T
   3    -39.3463008  0.276874E-07  0.138E-03    3.99      13.9  T
   4    -39.3463008 -0.505345E-07  0.419E-04    3.99      46.0  T
   5    -39.3463008 -0.216922E-09  0.173E-04    3.99     111.0  T
     SCC iter.                  ...        0 min,  0.006 sec
     gradient                   ...        0 min,  0.148 sec
 * total energy  :   -38.7813468 Eh     change       -0.6494978E-05 Eh
   gradient norm :     0.0004954 Eh/α   predicted    -0.2998253E-05 ( -53.84%)
   displ. norm   :     0.0752380 α      lambda       -0.5068548E-05
   maximum displ.:     0.0476465 α      in ANC's #2, #3, #1, ...

........................................................................
.............................. CYCLE   11 ..............................
........................................................................
   1    -39.3461493 -0.393461E+02  0.327E-02    3.99       0.0  T
   2    -39.3461494 -0.436793E-07  0.192E-02    3.99       1.0  T
   3    -39.3461493  0.395954E-07  0.153E-03    3.99      12.6  T
   4    -39.3461494 -0.593018E-07  0.339E-04    3.99      56.8  T
   5    -39.3461494 -0.299821E-09  0.208E-04    3.99      92.6  T
     SCC iter.                  ...        0 min,  0.008 sec
     gradient                   ...        0 min,  0.158 sec
 * total energy  :   -38.7813527 Eh     change       -0.5893128E-05 Eh
   gradient norm :     0.0004015 Eh/α   predicted    -0.2544620E-05 ( -56.82%)
   displ. norm   :     0.0743131 α      lambda       -0.5124602E-05
   maximum displ.:     0.0469780 α      in ANC's #2, #3, #5, ...

........................................................................
.............................. CYCLE   12 ..............................
........................................................................
   1    -39.3460579 -0.393461E+02  0.353E-02    3.99       0.0  T
   2    -39.3460580 -0.497317E-07  0.208E-02    3.99       1.0  T
   3    -39.3460579  0.649611E-07  0.195E-03    3.99       9.9  T
   4    -39.3460580 -0.895123E-07  0.420E-04    3.99      45.8  T
   5    -39.3460580 -0.700616E-09  0.243E-04    3.99      79.1  T
     SCC iter.                  ...        0 min,  0.007 sec
     gradient                   ...        0 min,  0.134 sec
 * total energy  :   -38.7813586 Eh     change       -0.5969606E-05 Eh
   gradient norm :     0.0005743 Eh/α   predicted    -0.2570532E-05 ( -56.94%)
   displ. norm   :     0.0764432 α      lambda       -0.4901124E-05
   maximum displ.:     0.0478368 α      in ANC's #2, #5, #3, ...

........................................................................
.............................. CYCLE   13 ..............................
........................................................................
   1    -39.3459504 -0.393460E+02  0.382E-02    3.98       0.0  T
   2    -39.3459504 -0.557510E-07  0.225E-02    3.98       1.0  T
   3    -39.3459504  0.734208E-07  0.214E-03    3.98       9.0  T
   4    -39.3459505 -0.104548E-06  0.510E-04    3.98      37.7  T
   5    -39.3459505  0.744720E-10  0.284E-04    3.98      67.7  T
     SCC iter.                  ...        0 min,  0.015 sec
     gradient                   ...        0 min,  0.149 sec
 * total energy  :   -38.7813638 Eh     change       -0.5147780E-05 Eh
   gradient norm :     0.0005407 Eh/α   predicted    -0.2458730E-05 ( -52.24%)
   displ. norm   :     0.0482516 α      lambda       -0.2343739E-05
   maximum displ.:     0.0322277 α      in ANC's #2, #4, #5, ...

........................................................................
.............................. CYCLE   14 ..............................
........................................................................
   1    -39.3461023 -0.393461E+02  0.230E-02    3.98       0.0  T
   2    -39.3461024 -0.242343E-07  0.136E-02    3.98       1.4  T
   3    -39.3461024  0.118315E-07  0.106E-03    3.98      18.1  T
   4    -39.3461024 -0.237691E-07  0.338E-04    3.98      56.9  T
   5    -39.3461024 -0.201936E-10  0.171E-04    3.98     112.6  T
     SCC iter.                  ...        0 min,  0.011 sec
     gradient                   ...        0 min,  0.134 sec
 * total energy  :   -38.7813661 Eh     change       -0.2366981E-05 Eh
   gradient norm :     0.0003626 Eh/α   predicted    -0.1177375E-05 ( -50.26%)
   displ. norm   :     0.0480887 α      lambda        0.6105528E-06
   maximum displ.:     0.0322275 α      in ANC's #2, #4, #5, ...

   *** GEOMETRY OPTIMIZATION CONVERGED AFTER 14 ITERATIONS ***

------------------------------------------------------------------------
 total energy gain   :        -0.0036331 Eh       -2.2798 kcal/mol
 total RMSD          :         0.1648910 a0        0.0873 Å
 total power (kW/mol):        -0.6813329 (step)   -3.1254 (real)
------------------------------------------------------------------------

 ANCopt (total)                0 d,  0 h,  0 min,  3.052 sec
 optimizer setup                ...        0 min,  0.000 sec (  0.002%)
 model hessian                  ...        0 min,  0.006 sec (  0.187%)
 ANC generation                 ...        0 min,  0.002 sec (  0.059%)
 coordinate transformation      ...        0 min,  0.000 sec (  0.006%)
 single point calculation       ...        0 min,  2.879 sec ( 94.318%)
 optimization log               ...        0 min,  0.001 sec (  0.034%)
 hessian update                 ...        0 min,  0.161 sec (  5.284%)
 rational function              ...        0 min,  0.001 sec (  0.033%)

================
 final structure:
================
27
 xtb: 6.3.3 (4ae9cef)
C        -3.30989030809116   -2.52873306521609   -0.40244512744111
O        -2.82696600699816   -1.21923404786181   -0.55599422054091
C        -1.56510338043522   -0.94195184737136   -0.11780166607825
C        -0.70848924084636   -1.84801788456797    0.47953486962196
C         0.56055306105365   -1.45897164300293    0.89003618545439
C         0.98941089996965   -0.15930221529889    0.71429189931535
C         2.37394416839881    0.27847141135134    1.11711275795007
C         3.24311621615273    0.38280808900650   -0.10065888926184
C         3.81445243728595    1.49596342329626   -0.51858579104488
C         0.13248710361170    0.75855650709129    0.10932021608002
C        -1.13308970982469    0.39039489997398   -0.30624601117601
O        -2.03587786460640    1.22083930464255   -0.90127133947567
C        -1.67092103404485    2.56076081326948   -1.10915764602161
H        -2.69601932017633   -3.25345348022925   -0.94852766846126
H        -3.36089612144828   -2.82040443108330    0.65246055124527
H        -4.31495319005563   -2.52247746453305   -0.82156644478454
H        -1.01530367718377   -2.87004074905301    0.63509791688280
H         1.20910575432116   -2.18716877754555    1.35441205947931
H         2.33171186059439    1.24511345433993    1.62286516143639
H         2.80177041043238   -0.45641106067106    1.80349219987215
H         3.36225391069866   -0.53855062560728   -0.65581076717151
H         4.42224086347589    1.52910997719351   -1.40705183177617
H         3.70534844914293    2.42544037548146    0.01724853939652
H         0.48210578792587    1.76922211307180   -0.03187786912710
H        -1.46155571750706    3.07394200867184   -0.16410046833856
H        -0.79951200491367    2.64597333376509   -1.76752178667991
H        -2.52992234693277    3.02812258088602   -1.58827382935494

 Bond Distances (Angstroems)
 ---------------------------
C1-O2=1.4041         C1-H14=1.0956        C1-H15=1.0957        C1-H16=1.0890        O2-C1=1.4041         O2-C3=1.3643         
C3-O2=1.3643         C3-C4=1.3826         C3-C11=1.4133        C4-C3=1.3826         C4-C5=1.3894         C4-H17=1.0784        
C5-C4=1.3894         C5-C6=1.3798         C5-H18=1.0801        C6-C5=1.3798         C6-C7=1.5069         C6-C10=1.3938        
C7-C6=1.5069         C7-C8=1.4998         C7-H19=1.0918        C7-H20=1.0928        C8-C7=1.4998         C8-C9=1.3192         
C8-H21=1.0823        C9-C8=1.3192         C9-H22=1.0770        C9-H23=1.0784        C10-C6=1.3938        C10-C11=1.3820       
C10-H24=1.0787       C11-C3=1.4133        C11-C10=1.3820       C11-O12=1.3633       O12-C11=1.3633       O12-C13=1.4042       
C13-O12=1.4042       C13-H25=1.0956       C13-H26=1.0955       C13-H27=1.0890       H14-C1=1.0956        H15-C1=1.0957        
H16-C1=1.0890        H17-C4=1.0784        H18-C5=1.0801        H19-C7=1.0918        H20-C7=1.0928        H21-C8=1.0823        
H22-C9=1.0770        H23-C9=1.0784        H24-C10=1.0787       H25-C13=1.0956       H26-C13=1.0955       H27-C13=1.0890       
 C  H  Rav=1.0871 sigma=0.0073  Rmin=1.0770  Rmax=1.0957    14
 C  C  Rav=1.4074 sigma=0.0566  Rmin=1.3192  Rmax=1.5069     9
 O  C  Rav=1.3840 sigma=0.0202  Rmin=1.3633  Rmax=1.4042     4

 selected bond angles (degree)
 --------------------
H14-C1-O2=111.70               H15-C1-O2=111.69               H15-C1-H14=109.26              H16-C1-O2=105.66               
H16-C1-H14=109.21              H16-C1-H15=109.22              C3-O2-C1=118.20                C4-C3-O2=125.36                
C11-C3-O2=115.56               C11-C3-C4=119.08               C5-C4-C3=120.67                H17-C4-C3=120.47               
H17-C4-C5=118.86               C6-C5-C4=120.66                H18-C5-C4=119.12               H18-C5-C6=120.21               
C7-C6-C5=121.68                C10-C6-C5=118.98               C10-C6-C7=119.31               C8-C7-C6=109.61                
H19-C7-C6=110.21               H19-C7-C8=109.69               H20-C7-C6=109.40               H20-C7-C8=109.26               
H20-C7-H19=108.64              C9-C8-C7=124.54                H21-C8-C7=114.90               H21-C8-C9=120.54               
H22-C9-C8=122.12               H23-C9-C8=121.74               H23-C9-H22=116.13              C11-C10-C6=121.20              
H24-C10-C6=118.33              H24-C10-C11=120.47             

 selected dihedral angles (degree)
 ---------------------------------
C3-O2-C1-H14=299.11           C3-O2-C1-H15= 61.82           C3-O2-C1-H16=180.47           C4-C3-O2-C1=359.65            
C11-C3-O2-C1=179.67           C5-C4-C3-O2=180.00            C5-C4-C3-C11=359.97           H17-C4-C3-O2=359.97           
H17-C4-C3-C11=179.95          C6-C5-C4-C3=  0.24            C6-C5-C4-H17=180.27           H18-C5-C4-C3=179.97           
H18-C5-C4-H17=  0.00          C7-C6-C5-C4=181.67            C7-C6-C5-H18=  1.94           C10-C6-C5-C4=359.58           
C10-C6-C5-H18=179.86          C8-C7-C6-C5=102.45            C8-C7-C6-C10=284.54           H19-C7-C6-C5=223.27           
H19-C7-C6-C10= 45.36          H20-C7-C6-C5=342.66           H20-C7-C6-C10=164.75          C9-C8-C7-C6=118.32            
C9-C8-C7-H19=357.18           C9-C8-C7-H20=238.19           H21-C8-C7-C6=299.80           H21-C8-C7-H19=178.66          
H21-C8-C7-H20= 59.68          H22-C9-C8-C7=180.78           H22-C9-C8-H21=359.22          H23-C9-C8-C7=  1.31           
H23-C9-C8-H21=179.75          C11-C10-C6-C5=  0.39          C11-C10-C6-C7=178.35          H24-C10-C6-C5=180.61          
H24-C10-C6-C7=358.57          
           -------------------------------------------------
          |                Final Singlepoint                |
           -------------------------------------------------

          ...................................................
          :                      SETUP                      :
          :.................................................:
          :  # basis functions                  66          :
          :  # atomic orbitals                  66          :
          :  # shells                           40          :
          :  # electrons                        70          :
          :  max. iterations                   250          :
          :  Hamiltonian                  GFN2-xTB          :
          :  restarted?                      false          :
          :  GBSA solvation                  false          :
          :  PC potential                    false          :
          :  electronic temp.          300.0000000     K    :
          :  accuracy                    1.0000000          :
          :  -> integral cutoff          0.2500000E+02      :
          :  -> integral neglect         0.1000000E-07      :
          :  -> SCF convergence          0.1000000E-05 Eh   :
          :  -> wf. convergence          0.1000000E-03 e    :
          :  Broyden damping             0.4000000          :
          ...................................................

 iter      E             dE          RMSdq      gap      omega  full diag
   1    -39.3461024 -0.393461E+02  0.694E-05    3.98       0.0  T
   2    -39.3461024 -0.190923E-10  0.533E-05    3.98     361.1  T
   3    -39.3461024 -0.571418E-10  0.240E-05    3.98     802.7  T

   *** convergence criteria satisfied after 3 iterations ***

         #    Occupation            Energy/Eh            Energy/eV
      -------------------------------------------------------------
         1        2.0000           -0.7082201             -19.2717
       ...           ...                  ...                  ...
        29        2.0000           -0.4393515             -11.9554
        30        2.0000           -0.4322515             -11.7622
        31        2.0000           -0.4253151             -11.5734
        32        2.0000           -0.4202658             -11.4360
        33        2.0000           -0.3993604             -10.8672
        34        2.0000           -0.3862140             -10.5094
        35        2.0000           -0.3584507              -9.7539 (HOMO)
        36                         -0.2120219              -5.7694 (LUMO)
        37                         -0.2097939              -5.7088
        38                         -0.1940269              -5.2797
        39                         -0.0819259              -2.2293
        40                          0.0305152               0.8304
       ...                                ...                  ...
        66                          0.6823598              18.5680
      -------------------------------------------------------------
                  HL-Gap            0.1464288 Eh            3.9845 eV
             Fermi-level           -0.2852363 Eh           -7.7617 eV

 SCC (total)                   0 d,  0 h,  0 min,  0.107 sec
 SCC setup                      ...        0 min,  0.012 sec ( 11.204%)
 Dispersion                     ...        0 min,  0.009 sec (  8.639%)
 classical contributions        ...        0 min,  0.018 sec ( 16.750%)
 integral evaluation            ...        0 min,  0.033 sec ( 31.346%)
 iterations                     ...        0 min,  0.008 sec (  7.570%)
 molecular gradient             ...        0 min,  0.026 sec ( 24.304%)
 printout                       ...        0 min,  0.000 sec (  0.127%)

         :::::::::::::::::::::::::::::::::::::::::::::::::::::
         ::                     SUMMARY                     ::
         :::::::::::::::::::::::::::::::::::::::::::::::::::::
         :: total energy             -38.781366148557 Eh    ::
         :: gradient norm              0.000363191190 Eh/a0 ::
         :: HOMO-LUMO gap              3.984530204602 eV    ::
         ::.................................................::
         :: SCC energy               -39.346102376091 Eh    ::
         :: -> isotropic ES            0.030374365339 Eh    ::
         :: -> anisotropic ES          0.007213976972 Eh    ::
         :: -> anisotropic XC          0.013827367446 Eh    ::
         :: -> dispersion             -0.022585119615 Eh    ::
         :: repulsion energy           0.564630685608 Eh    ::
         :: add. restraining           0.000000000000 Eh    ::
         :: total charge               0.000000000000 e     ::
         :::::::::::::::::::::::::::::::::::::::::::::::::::::

           -------------------------------------------------
          |                Property Printout                |
           -------------------------------------------------

    * Orbital Energies and Occupations

         #    Occupation            Energy/Eh            Energy/eV
      -------------------------------------------------------------
         1        2.0000           -0.7082201             -19.2717
       ...           ...                  ...                  ...
        23        2.0000           -0.4808831             -13.0855
        24        2.0000           -0.4762406             -12.9592
        25        2.0000           -0.4652057             -12.6589
        26        2.0000           -0.4580092             -12.4631
        27        2.0000           -0.4478348             -12.1862
        28        2.0000           -0.4442264             -12.0880
        29        2.0000           -0.4393515             -11.9554
        30        2.0000           -0.4322515             -11.7622
        31        2.0000           -0.4253151             -11.5734
        32        2.0000           -0.4202658             -11.4360
        33        2.0000           -0.3993604             -10.8672
        34        2.0000           -0.3862140             -10.5094
        35        2.0000           -0.3584507              -9.7539 (HOMO)
        36                         -0.2120219              -5.7694 (LUMO)
        37                         -0.2097939              -5.7088
        38                         -0.1940269              -5.2797
        39                         -0.0819259              -2.2293
        40                          0.0305152               0.8304
        41                          0.0474204               1.2904
        42                          0.1015905               2.7644
        43                          0.1172898               3.1916
        44                          0.1224387               3.3317
        45                          0.1267516               3.4491
        46                          0.1300637               3.5392
       ...                                ...                  ...
        66                          0.6823598              18.5680
      -------------------------------------------------------------
                  HL-Gap            0.1464288 Eh            3.9845 eV
             Fermi-level           -0.2852363 Eh           -7.7617 eV

     #   Z          covCN         q      C6AA      α(0)
     1   6 C        3.646     0.038    20.260     6.469
     2   8 O        1.705    -0.258    18.275     5.772
     3   6 C        2.866     0.119    25.371     8.256
     4   6 C        2.917    -0.073    29.815     8.954
     5   6 C        2.923    -0.054    29.338     8.883
     6   6 C        2.973     0.004    27.936     8.670
     7   6 C        3.813    -0.063    21.692     6.629
     8   6 C        2.891    -0.022    28.550     8.760
     9   6 C        2.837    -0.095    30.386     9.034
    10   6 C        2.923    -0.079    29.980     8.979
    11   6 C        2.865     0.122    25.316     8.248
    12   8 O        1.705    -0.257    18.257     5.769
    13   6 C        3.645     0.038    20.266     6.470
    14   1 H        0.924     0.039     2.469     2.457
    15   1 H        0.924     0.038     2.470     2.458
    16   1 H        0.925     0.062     2.176     2.307
    17   1 H        0.926     0.038     2.477     2.461
    18   1 H        0.926     0.033     2.544     2.494
    19   1 H        0.924     0.044     2.398     2.422
    20   1 H        0.924     0.045     2.383     2.414
    21   1 H        0.925     0.032     2.561     2.502
    22   1 H        0.926     0.033     2.537     2.491
    23   1 H        0.926     0.035     2.523     2.484
    24   1 H        0.926     0.040     2.445     2.445
    25   1 H        0.924     0.039     2.466     2.456
    26   1 H        0.924     0.039     2.458     2.452
    27   1 H        0.925     0.062     2.173     2.305

 Mol. C6AA /au·bohr⁶  :       7470.948950
 Mol. C8AA /au·bohr⁸  :     172964.450306
 Mol. α(0) /au        :        135.039996


Wiberg/Mayer (AO) data.
largest (>0.10) Wiberg bond orders for each atom

 ---------------------------------------------------------------------------
     #   Z sym  total        # sym  WBO       # sym  WBO       # sym  WBO
 ---------------------------------------------------------------------------
     1   6 C    3.948 --     2 O    0.989    16 H    0.979    14 H    0.976
                            15 H    0.976
     2   8 O    2.233 --     3 C    1.058     1 C    0.989
     3   6 C    3.935 --     4 C    1.416    11 C    1.260     2 O    1.058
     4   6 C    3.985 --     3 C    1.416     5 C    1.399    17 H    0.965
     5   6 C    3.989 --     6 C    1.442     4 C    1.399    18 H    0.969
     6   6 C    3.987 --     5 C    1.442    10 C    1.371     7 C    0.994
     7   6 C    3.997 --     8 C    1.010     6 C    0.994    19 H    0.968
                            20 H    0.960
     8   6 C    3.989 --     9 C    1.976     7 C    1.010    21 H    0.967
     9   6 C    3.989 --     8 C    1.976    22 H    0.977    23 H    0.975
    10   6 C    3.984 --    11 C    1.420     6 C    1.371    24 H    0.964
    11   6 C    3.937 --    10 C    1.420     3 C    1.260    12 O    1.060
    12   8 O    2.238 --    11 C    1.060    13 C    0.989
    13   6 C    3.948 --    12 O    0.989    27 H    0.979    25 H    0.976
                            26 H    0.976
    14   1 H    0.998 --     1 C    0.976
    15   1 H    0.998 --     1 C    0.976
    16   1 H    0.996 --     1 C    0.979
    17   1 H    0.998 --     4 C    0.965
    18   1 H    0.999 --     5 C    0.969
    19   1 H    0.997 --     7 C    0.968
    20   1 H    0.998 --     7 C    0.960
    21   1 H    0.999 --     8 C    0.967
    22   1 H    0.998 --     9 C    0.977
    23   1 H    0.999 --     9 C    0.975
    24   1 H    0.998 --    10 C    0.964
    25   1 H    0.998 --    13 C    0.976
    26   1 H    0.998 --    13 C    0.976
    27   1 H    0.996 --    13 C    0.979
 ---------------------------------------------------------------------------

Topologies differ in total number of bonds
Writing topology from bond orders to xtbtopo.mol

molecular dipole:
                 x           y           z       tot (Debye)
 q only:        0.103      -0.030       0.140
   full:        0.210      -0.075       0.183       0.733
molecular quadrupole (traceless):
                xx          xy          yy          xz          yz          zz
 q only:       -3.848       3.248       7.545       0.178      -1.513      -3.697
  q+dip:       -6.193       3.927      10.585      -0.872      -1.740      -4.391
   full:       -6.198       3.795       9.730      -1.150      -1.408      -3.532

           -------------------------------------------------
          |                Geometry Summary                 |
           -------------------------------------------------

      molecular mass/u    :      178.2280752
   center of mass at/Å    :       -0.2407160      -0.0659221      -0.0872586
  moments of inertia/u·Å² :        0.4043428E+03   0.1011620E+04   0.1339703E+04
rotational constants/cm⁻¹ :        0.4169144E-01   0.1666400E-01   0.1258311E-01

 * 25 selected distances

     #   Z          #   Z                                           value/Å
     1   6 C        2   8 O                                       1.4041299
     2   8 O        3   6 C                                       1.3642564
     3   6 C        4   6 C                                       1.3825897
     4   6 C        5   6 C                                       1.3893656
     5   6 C        6   6 C                                       1.3798354
     8   6 C        9   6 C                                       1.3191675
     6   6 C       10   6 C                                       1.3938342
     3   6 C       11   6 C                                       1.4132569 (max)
    10   6 C       11   6 C                                       1.3819996
    11   6 C       12   8 O                                       1.3633486
    12   8 O       13   6 C                                       1.4042079
     1   6 C       14   1 H                                       1.0955653
     1   6 C       15   1 H                                       1.0956732
     1   6 C       16   1 H                                       1.0889689
     4   6 C       17   1 H                                       1.0783625
     5   6 C       18   1 H                                       1.0800632
     7   6 C       19   1 H                                       1.0917719
     7   6 C       20   1 H                                       1.0927965
     8   6 C       21   1 H                                       1.0822612
     9   6 C       22   1 H                                       1.0769760 (min)
     9   6 C       23   1 H                                       1.0784014
    10   6 C       24   1 H                                       1.0787099
    13   6 C       25   1 H                                       1.0955920
    13   6 C       26   1 H                                       1.0954717
    13   6 C       27   1 H                                       1.0889732

 * 3 distinct bonds (by element types)

   Z      Z             #   av. dist./Å        max./Å        min./Å
   1 H    6 C          14     1.0871134     1.0956732     1.0769760
   6 C    6 C           7     1.3800070     1.4132569     1.3191675
   6 C    8 O           4     1.3839857     1.4042079     1.3633486


optimized geometry written to: xtbopt.xyz


           -------------------------------------------------
          | TOTAL ENERGY              -38.781366148557 Eh   |
          | GRADIENT NORM               0.000363191190 Eh/α |
          | HOMO-LUMO GAP               3.984530204602 eV   |
           -------------------------------------------------

------------------------------------------------------------------------
 * finished run on 2022/03/17 at 02:19:20.397     
------------------------------------------------------------------------
 total:
 * wall-time:     0 d,  0 h,  0 min,  3.533 sec
 *  cpu-time:     0 d,  0 h,  1 min, 52.904 sec
 * ratio c/w:    31.960 speedup
 SCF:
 * wall-time:     0 d,  0 h,  0 min,  0.265 sec
 *  cpu-time:     0 d,  0 h,  0 min,  7.935 sec
 * ratio c/w:    29.950 speedup
 ANC optimizer:
 * wall-time:     0 d,  0 h,  0 min,  3.160 sec
 *  cpu-time:     0 d,  0 h,  1 min, 41.745 sec
 * ratio c/w:    32.202 speedup

