27
 energy: -38.777733067452 gnorm: 0.045415643042 xtb: 6.3.3 (4ae9cef)
C        -3.33547300000000   -2.56734700000000   -0.35862200000000
O        -2.88395800000000   -1.23234600000000   -0.53099400000000
C        -1.60741500000000   -0.93387300000000   -0.12152400000000
C        -0.72312400000000   -1.85723400000000    0.44563500000000
C         0.56020700000000   -1.46342700000000    0.83395100000000
C         0.97810300000000   -0.13944500000000    0.66735500000000
C         2.36829100000000    0.28710100000000    1.07699200000000
C         3.30376000000000    0.38281300000000   -0.09501400000000
C         3.95621400000000    1.49656900000000   -0.45349700000000
C         0.09332300000000    0.78607400000000    0.09106900000000
C        -1.19401800000000    0.40080100000000   -0.30415500000000
O        -2.11692800000000    1.24584100000000   -0.87092600000000
C        -1.71467200000000    2.58323900000000   -1.12689100000000
H        -2.73147100000000   -3.26774800000000   -0.94475300000000
H        -3.35085700000000   -2.84622500000000    0.70012700000000
H        -4.36290000000000   -2.62367000000000   -0.73109700000000
H        -1.00074300000000   -2.89446700000000    0.59825400000000
H         1.23131600000000   -2.20126900000000    1.26843800000000
H         2.30323200000000    1.24201100000000    1.61419000000000
H         2.78034900000000   -0.43168200000000    1.79626200000000
H         3.45163000000000   -0.52448000000000   -0.67770900000000
H         4.61942600000000    1.49734900000000   -1.31334200000000
H         3.84503000000000    2.42680100000000    0.09469600000000
H         0.43888700000000    1.80655300000000   -0.04040800000000
H        -1.48445800000000    3.11107100000000   -0.19564700000000
H        -0.86922800000000    2.61702300000000   -1.82199600000000
H        -2.55452200000000    3.09996800000000   -1.60141300000000
27
 energy: -38.780761209378 gnorm: 0.014487420692 xtb: 6.3.3 (4ae9cef)
C        -3.32725854874538   -2.55632516640003   -0.35825581494261
O        -2.87227927841632   -1.23106430637235   -0.52761664647489
C        -1.59828362271994   -0.93607915518077   -0.12181396269360
C        -0.71738926771198   -1.84812878897147    0.44144262236262
C         0.55854576041128   -1.45560218767023    0.82493873028565
C         0.97692705563552   -0.14516582284067    0.65958703226781
C         2.35984558597608    0.29148083981131    1.07825463641438
C         3.28759163657974    0.39188691490154   -0.09425265163200
C         3.93482662184054    1.48862216657249   -0.45205313612091
C         0.09785739050492    0.77313654624411    0.08756159490700
C        -1.18070495404185    0.39750242910924   -0.30463113062819
O        -2.10079232001769    1.23988741532302   -0.86778897476045
C        -1.71032485652608    2.57208091204537   -1.12163274541735
H        -2.72137406694442   -3.26239492979243   -0.93440210388641
H        -3.33437527489836   -2.84357161408832    0.69767832443237
H        -4.35111854539952   -2.58005603493243   -0.73689698496771
H        -1.00312957532577   -2.87775490906828    0.59375583776553
H         1.22395834034997   -2.18652094728355    1.26396417757877
H         2.30607419280909    1.25693069625273    1.59174822981365
H         2.76756608551538   -0.43962577440368    1.78547810819647
H         3.42243664474515   -0.51757531051812   -0.66728717625349
H         4.60440692904160    1.49308211719485   -1.29779499638024
H         3.83673832292557    2.41316117694260    0.09492613760405
H         0.43731669580326    1.78996785757285   -0.04118564364765
H        -1.47143170653275    3.10124472791090   -0.19413356889319
H        -0.85856591382124    2.61283683759205   -1.80731920390827
H        -2.56706233103685    3.05804531004924   -1.59328969102132
27
 energy: -38.781156136894 gnorm: 0.004900991862 xtb: 6.3.3 (4ae9cef)
C        -3.32300463209421   -2.54584909757561   -0.36013445582144
O        -2.86194760065079   -1.22815371257362   -0.52783901168238
C        -1.58948894105705   -0.93903297208442   -0.12399718965602
C        -0.71060501482867   -1.84644854182731    0.43896062434801
C         0.56199103417185   -1.45349050268155    0.82656824551174
C         0.97821121050696   -0.14756843564600    0.66357034726305
C         2.35694925346088    0.29351744724263    1.08443650375946
C         3.28050460539878    0.39053801391678   -0.09126979570853
C         3.92760468724424    1.48212480323988   -0.44951407449621
C         0.10291788546374    0.76812479751816    0.08707412034699
C        -1.16977196097643    0.39564716758112   -0.30705771103204
O        -2.08876277689690    1.23355598955111   -0.86962111501727
C        -1.70818251625179    2.56383996693798   -1.11919392963094
H        -2.72023501475358   -3.25914913329997   -0.93167821800420
H        -3.32973399180600   -2.83930243759604    0.69463846811133
H        -4.34377987011469   -2.55055461646346   -0.74146178323252
H        -1.00301072174180   -2.87277310295877    0.58960506576979
H         1.22590992320222   -2.18264217232340    1.26589675910535
H         2.30437651161449    1.26270211209414    1.58597165194824
H         2.76250877829020   -0.43976004200327    1.78753943253457
H         3.39424479778441   -0.52035638867192   -0.66489142359849
H         4.57990742215445    1.49939824689312   -1.30552439388316
H         3.82810969522535    2.40785786433575    0.09250767291035
H         0.43909009739217    1.78416994378298   -0.04346338565483
H        -1.46858461242813    3.09589934781144   -0.19295301628768
H        -0.85252944300066    2.61526476182119   -1.80016686945086
H        -2.57268780530912    3.03244169297904   -1.58902151845232
27
 energy: -38.781227087283 gnorm: 0.002567657560 xtb: 6.3.3 (4ae9cef)
C        -3.32276257871832   -2.53969142470878   -0.36333861324546
O        -2.85510090116780   -1.22608878106196   -0.52993008472018
C        -1.58359471095028   -0.94135246012961   -0.12459499475071
C        -0.70602113656395   -1.84831255306724    0.43957610696344
C         0.56598464177967   -1.45485278911067    0.83123127842284
C         0.98057685695188   -0.14888789218469    0.67046860789254
C         2.35781681012192    0.29483859769528    1.09030020068846
C         3.27048635049847    0.39025672260033   -0.09509002782858
C         3.91210214121771    1.48309995646104   -0.45959207045098
C         0.10707225964765    0.76693307952257    0.08964178988987
C        -1.16320609323348    0.39446819754816   -0.30779391311595
O        -2.08177395096811    1.22877634497215   -0.87305832347399
C        -1.70819032959102    2.55994611859764   -1.11910173548995
H        -2.72339372378748   -3.25779289891945   -0.93347696568601
H        -3.33185283727470   -2.83531463106687    0.69136815904673
H        -4.34227302068440   -2.53724059639047   -0.74558093320845
H        -1.00097548176398   -2.87439057356876    0.58744316291610
H         1.22908904335267   -2.18387255661963    1.27200735636783
H         2.30434258233459    1.26546822904626    1.58716215088755
H         2.76704958393000   -0.43574360370964    1.79294619553783
H         3.37871306981012   -0.52385950413943   -0.66446269316132
H         4.57016123451424    1.50161874075411   -1.31115543553830
H         3.82947331996748    2.40376459883858    0.09535891458891
H         0.44292793741909    1.78303081458945   -0.04255608268007
H        -1.47164086457524    3.09294232782430   -0.19196048953795
H        -0.85058965960520    2.61920980983651   -1.79793692068887
H        -2.57441954266161    3.02304772639075   -1.58889363962533
27
 energy: -38.781278515570 gnorm: 0.001805388247 xtb: 6.3.3 (4ae9cef)
C        -3.32342158464396   -2.53413441110466   -0.36773865464095
O        -2.84797027870477   -1.22408611866260   -0.53382043651492
C        -1.57741267259909   -0.94353404998965   -0.12516349707986
C        -0.70158408768222   -1.85084672186283    0.44127216438530
C         0.56996241831877   -1.45656718415174    0.83759006500635
C         0.98360886517407   -0.14985681905503    0.67858896740741
C         2.36031929980085    0.29558544985299    1.09726982365571
C         3.26630314632811    0.38785021118208   -0.09455901653959
C         3.90629638024226    1.48105418177945   -0.46287407437738
C         0.11190430584367    0.76662013558897    0.09323724501693
C        -1.15657622319532    0.39329718236065   -0.30840580630961
O        -2.07478413953369    1.22382123661493   -0.87819153727033
C        -1.70822039693490    2.55706518574907   -1.11970230984195
H        -2.72801408245943   -3.25692662538778   -0.93696490858416
H        -3.33589568059153   -2.83032196611886    0.68725774878915
H        -4.34225558216628   -2.52676137855954   -0.75072598177354
H        -0.99782988208489   -2.87741690282565    0.58610499969384
H         1.23202262306094   -2.18565430235499    1.28073229326881
H         2.30681612182084    1.26700847082990    1.59182652428317
H         2.77301191025572   -0.43207654943306    1.80039018030918
H         3.36209005488700   -0.52621355385003   -0.66664401367506
H         4.54998281789250    1.50603138959448   -1.32608472617785
H         3.82374901360300    2.40189965804957    0.09256061906908
H         0.44840086360786    1.78284777522347   -0.03975056686365
H        -1.47667302330040    3.08968109227905   -0.19048355946558
H        -0.84890422296139    2.62425437108272   -1.79644540932557
H        -2.57492496397786    3.01738124316900   -1.59029513244491
27
 energy: -38.781303171333 gnorm: 0.001665698711 xtb: 6.3.3 (4ae9cef)
C        -3.32386364453252   -2.52991812475219   -0.37406488947004
O        -2.83987158360117   -1.22286746456679   -0.54159494766549
C        -1.57082900079908   -0.94555890064375   -0.12581466879300
C        -0.69804802227706   -1.85327001249394    0.44522907697112
C         0.57207186076054   -1.45766875624917    0.84755238918655
C         0.98572492633430   -0.15040568251896    0.68962605601762
C         2.36379300629454    0.29576544023888    1.10402898254952
C         3.25993428179324    0.38670986933795   -0.09592218762551
C         3.89590531128876    1.48033144885175   -0.47066166066507
C         0.11651021041017    0.76668108078806    0.09970055627804
C        -1.14990564023534    0.39176838602404   -0.30821538499465
O        -2.06692589876902    1.21837377272734   -0.88604771959900
C        -1.70669439334071    2.55505415504791   -1.12005649202266
H        -2.73283245406331   -3.25731340302605   -0.94204915012399
H        -3.34074048724987   -2.82370997138330    0.68164337474979
H        -4.34263828021998   -2.51877740565665   -0.75834877707773
H        -0.99384429934995   -2.88073654399309    0.58743089173710
H         1.23302323547199   -2.18671455228581    1.29322455815615
H         2.31228919025746    1.26775653708847    1.59829657158664
H         2.78238156919175   -0.42888410152627    1.80735427057167
H         3.34704442614184   -0.52679720227794   -0.66970455198455
H         4.52691786222686    1.50770956519865   -1.34356892063635
H         3.81725102123757    2.40022140948914    0.08716734932505
H         0.45497189177607    1.78263142614641   -0.03284004896263
H        -1.48328202644544    3.08452880757887   -0.18687535083510
H        -0.84535109989426    2.63033856651787   -1.79342312933645
H        -2.57299096240759    3.01475265633844   -1.59308519733703
27
 energy: -38.781316726504 gnorm: 0.000661882886 xtb: 6.3.3 (4ae9cef)
C        -3.32230596851383   -2.52987113070380   -0.37725741098592
O        -2.83674491731754   -1.22342249906527   -0.54710411133179
C        -1.56914443094963   -0.94569404353003   -0.12615195822304
C        -0.69837422224122   -1.85293310430647    0.44832537522885
C         0.57077415879507   -1.45705862637232    0.85246734281850
C         0.98530286886075   -0.15035718053997    0.69365954832777
C         2.36446206534570    0.29517701985292    1.10560754741565
C         3.25606275188757    0.38719123490583   -0.09711794545435
C         3.88919143998576    1.48096372246883   -0.47565552901426
C         0.11730707001198    0.76657646808260    0.10254487979358
C        -1.14799420622408    0.39122801550522   -0.30798994209433
O        -2.06344258858768    1.21711261745897   -0.88989561505042
C        -1.70356779535694    2.55500448940179   -1.11899492867302
H        -2.73180992893019   -3.25865983933573   -0.94340745126130
H        -3.34054553299760   -2.82092774661086    0.67887894721535
H        -4.34085558711941   -2.51766010808197   -0.76280289432545
H        -0.99379852665903   -2.88029204039067    0.59110048627682
H         1.23080661136982   -2.18552181414115    1.30020742119279
H         2.31501070537204    1.26690201963036    1.60108139609218
H         2.78502648602735   -0.43044439985118    1.80704153980979
H         3.34245978350987   -0.52602002431765   -0.67109212844573
H         4.51712304928912    1.50642371380700   -1.35012775847328
H         3.81233035852582    2.40114651479371    0.08130094853437
H         0.45655481914637    1.78221207751146   -0.02902927744186
H        -1.48413881310047    3.08139021910467   -0.18351635570652
H        -0.84048850451756    2.63263207038102   -1.78929401482699
H        -2.56920014561230    3.01490337434252   -1.59379711139741
27
 energy: -38.781331767952 gnorm: 0.000834906396 xtb: 6.3.3 (4ae9cef)
C        -3.31875276268343   -2.53071216332264   -0.38242925069100
O        -2.83188570164102   -1.22510584093587   -0.55699916924295
C        -1.56709349687816   -0.94571036338495   -0.12784174487651
C        -0.69995965246678   -1.85181127040909    0.45367890950784
C         0.56770664855618   -1.45583638805155    0.86142211970034
C         0.98431153256116   -0.15028888642586    0.69974989246384
C         2.36503853772141    0.29355270373030    1.10823320714492
C         3.24976266289434    0.38764672917887   -0.09874983739855
C         3.87699244563617    1.48241382165791   -0.48419431329455
C         0.11856797467770    0.76617990081779    0.10544128473477
C        -1.14513083162798    0.39055905170242   -0.30913458798286
O        -2.05743260795587    1.21642404430431   -0.89628387826322
C        -1.69729043674622    2.55606164410577   -1.11627963569011
H        -2.72748020776165   -3.26202425010511   -0.94406471806742
H        -3.33909761875332   -2.81678085967745    0.67471856444714
H        -4.33626977857205   -2.51834340146531   -0.77048090192724
H        -0.99614107741475   -2.87844827647833    0.59882391475263
H         1.22586311925477   -2.18337554910470    1.31311234546564
H         2.31858787819853    1.26416467625377    1.60627482695466
H         2.78780800457188   -0.43490367218436    1.80528836390684
H         3.33674845078886   -0.52585319069240   -0.67224868699108
H         4.49851993660347    1.50565247267848   -1.36315136453218
H         3.80297567947504    2.40377055740662    0.07086001475932
H         0.45890041891529    1.78131658180836   -0.02562734275736
H        -1.48421502311920    3.07695296333710   -0.17661996162949
H        -0.83020193374263    2.63766829660787   -1.78049621286544
H        -2.56083116049201    3.01683166864786   -1.59402083762799
27
 energy: -38.781340275745 gnorm: 0.000800664401 xtb: 6.3.3 (4ae9cef)
C        -3.31556252839656   -2.53148374279163   -0.38698892659181
O        -2.82789054318642   -1.22649133673516   -0.56424044512347
C        -1.56556913108017   -0.94553777616718   -0.12889971010716
C        -0.70149621212712   -1.85071140830338    0.45866021449842
C         0.56532527080322   -1.45527341561139    0.86926752065877
C         0.98425403293393   -0.15089799260620    0.70449806044448
C         2.36607899183151    0.29134049884676    1.11104294295299
C         3.24489423211399    0.38737712753101   -0.10006486238856
C         3.86492493150192    1.48391194246801   -0.49202183344977
C         0.12061305588694    0.76532881988536    0.10691780707888
C        -1.14234955915403    0.39028997799681   -0.31039064926149
O        -2.05174680025333    1.21683312778106   -0.90101987545705
C        -1.69169110609848    2.55772766799968   -1.11371428062874
H        -2.72239068982272   -3.26473435445420   -0.94421338309571
H        -3.33899194251604   -2.81402123737309    0.67107069823120
H        -4.33171625589317   -2.52026708564433   -0.77833643425702
H        -0.99927147659899   -2.87658930395320    0.60568893996209
H         1.22100518733216   -2.18215857691630    1.32558112071420
H         2.32184683690266    1.26088028155072    1.61124831691149
H         2.79056121545506   -0.43929475234648    1.80453169525039
H         3.33239558691893   -0.52662064160151   -0.67292984277192
H         4.48245444785781    1.50635814534603   -1.37367091738088
H         3.78996835044555    2.40705462896711    0.05961528752687
H         0.46228065008745    1.77982990035151   -0.02525923799051
H        -1.48373541266009    3.07449218699963   -0.17057967115531
H        -0.82112160920800    2.64296904382594   -1.77290632086524
H        -2.55306852307636    3.01968927495419   -1.59390521370515
27
 energy: -38.781346770723 gnorm: 0.000495378448 xtb: 6.3.3 (4ae9cef)
C        -3.31273318217983   -2.53223586605708   -0.39109808586063
O        -2.82527130148789   -1.22729515572784   -0.56868725298791
C        -1.56478157211024   -0.94510554805536   -0.12921562971544
C        -0.70334049420890   -1.84958366458069    0.46344620875688
C         0.56285613856771   -1.45503837071705    0.87669518443035
C         0.98432911072649   -0.15194059978617    0.70844366321083
C         2.36715637700350    0.28893495679803    1.11294159039596
C         3.24191387457016    0.38651932165347   -0.10099677908782
C         3.85339266464403    1.48561821766071   -0.49912271416974
C         0.12288117330509    0.76402807208832    0.10742915539143
C        -1.13998907722823    0.39021588343746   -0.31140073097348
O        -2.04677648728768    1.21799279626635   -0.90418328438005
C        -1.68641154795868    2.55958440269410   -1.11127800591987
H        -2.71634586980176   -3.26619814539902   -0.94413596571225
H        -3.34057792721635   -2.81282827088753    0.66747010255612
H        -4.32713070067625   -2.52301667168518   -0.78700544702039
H        -1.00316900058174   -2.87458829700175    0.61240999605371
H         1.21618192110001   -2.18174566798230    1.33656102978183
H         2.32464800520883    1.25759137281338    1.61491429022096
H         2.79318185862197   -0.44317680142427    1.80365494696626
H         3.33324150916180   -0.52893652548783   -0.67082955970365
H         4.46540046674555    1.50944177477679   -1.38495233695064
H         3.77652586371771    2.41008150877699    0.05032044348326
H         0.46619787866627    1.77773027175606   -0.02676818410663
H        -1.48215350410061    3.07336902753975   -0.16560626548959
H        -0.81330716498865    2.64757225179221   -1.76675623689428
H        -2.54591801221273    3.02301072673814   -1.59326913227523
27
 energy: -38.781352663851 gnorm: 0.000401543873 xtb: 6.3.3 (4ae9cef)
C        -3.31064937869556   -2.53236002965549   -0.39466194044161
O        -2.82412106840683   -1.22682589695210   -0.56931420447731
C        -1.56449971345991   -0.94433282492858   -0.12798367219963
C        -0.70500798516057   -1.84857002040924    0.46807206546560
C         0.56134693807849   -1.45542952519351    0.88231577727228
C         0.98535109389435   -0.15351076548767    0.71095824940105
C         2.36880207427376    0.28617082010125    1.11460618652347
C         3.24070145540815    0.38517050332238   -0.10152065777204
C         3.84215369576348    1.48772816518269   -0.50551741953488
C         0.12563765941014    0.76248914226478    0.10739085856764
C        -1.13779974866090    0.39033016069373   -0.31151519840491
O        -2.04265457247458    1.21935763986708   -0.90537266236755
C        -1.68171035069222    2.56105316560628   -1.10938563343385
H        -2.70992856848432   -3.26556496680364   -0.94420632624465
H        -3.34428321433140   -2.81331613044075    0.66376918557993
H        -4.32281827225513   -2.52519637035481   -0.79635629914674
H        -1.00712525482593   -2.87267134416215    0.61889531396925
H         1.21238378873587   -2.18227892505772    1.34521206078351
H         2.32705228554714    1.25418011909502    1.61778770245543
H         2.79556063247385   -0.44702624286023    1.80355328082259
H         3.33647264840071   -0.53178267508959   -0.66844253418735
H         4.45240214905228    1.51344810023744   -1.39243849029945
H         3.75846764915779    2.41398451769305    0.04004447128662
H         0.47074807545593    1.77531222603656   -0.02933526029499
H        -1.47907934004344    3.07329593228386   -0.16242316856287
H        -0.80735478096045    2.65052400411846   -1.76305240519550
H        -2.54004689720114    3.02582222089255   -1.59209827956406
27
 energy: -38.781358633457 gnorm: 0.000574339734 xtb: 6.3.3 (4ae9cef)
C        -3.30958981064685   -2.53170021348158   -0.39783674916446
O        -2.82454021710357   -1.22489175591768   -0.56615660113631
C        -1.56470312158953   -0.94338938710456   -0.12506876034212
C        -0.70661517884028   -1.84792101840143    0.47267040135776
C         0.56049538813925   -1.45641605823784    0.88628605665131
C         0.98672668568751   -0.15555348173242    0.71243004665595
C         2.37063560863582    0.28328311791929    1.11553099548358
C         3.24107964901731    0.38385569256745   -0.10166985878260
C         3.83149278225791    1.49035384390053   -0.51098763642750
C         0.12838018087552    0.76083662016853    0.10745022043158
C        -1.13591263512582    0.39042878940775   -0.31048363052560
O        -2.03949156969629    1.22045358462619   -0.90485979812661
C        -1.67748313286236    2.56176119302104   -1.10839175041684
H        -2.70362482941049   -3.26250929139072   -0.94490703787348
H        -3.35006153803018   -2.81532636653293    0.65975985056744
H        -4.31907149957395   -2.52599294424408   -0.80637731568209
H        -1.01089458030838   -2.87112669895895    0.62543121552147
H         1.20986566792013   -2.18364520750732    1.35092026494720
H         2.32902914224435    1.25082922249838    1.61952641417461
H         2.79789137197815   -0.45047412947126    1.80347836436314
H         3.34462430849005   -0.53503152267063   -0.66408329556696
H         4.44021374185274    1.51909966199686   -1.39900325867136
H         3.73898025671689    2.41792290358971    0.03119907083783
H         0.47534611364082    1.77274859541062   -0.03163221018902
H        -1.47405693787569    3.07360123854735   -0.16128626050868
H        -0.80326334924791    2.65106201161062   -1.76234538511698
H        -2.53545149714565    3.02774260038668   -1.59061235246127
27
 energy: -38.781363781238 gnorm: 0.000540729866 xtb: 6.3.3 (4ae9cef)
C        -3.30949864230905   -2.53024882170350   -0.40072852776276
O        -2.82605256054406   -1.22170093096877   -0.56031581497419
C        -1.56507918597788   -0.94242777273341   -0.12095854606867
C        -0.70799763159432   -1.84776284668074    0.47701969319591
C         0.56017376524684   -1.45780852819501    0.88918976292537
C         0.98831443107302   -0.15781274081197    0.71357816336634
C         2.37268434944236    0.28027527363519    1.11632589601706
C         3.24269138095955    0.38275798569111   -0.10104357798809
C         3.82096084598123    1.49369453979595   -0.51601548593834
C         0.13100039232101    0.75931417860009    0.10810249976623
C        -1.13421983200619    0.39044939405133   -0.30833000438609
O        -2.03715571995389    1.22101399600318   -0.90299089547762
C        -1.67344499015875    2.56157547240427   -1.10838617417241
H        -2.69820188903064   -3.25741093799862   -0.94662247101536
H        -3.35690079874506   -2.81841814603442    0.65537775696723
H        -4.31613364282550   -2.52493572879526   -0.81623629691189
H        -1.01408276314961   -2.87014312208007    0.63177511053378
H         1.20889237090978   -2.18571109596833    1.35364172658942
H         2.33072921008009    1.24739783891476    1.62114725544248
H         2.80019931863301   -0.45396608744622    1.80355702100220
H         3.35535937205611   -0.53777009611983   -0.65906413250431
H         4.42943124368073    1.52527879850342   -1.40405473574771
H         3.71807816091011    2.42251218754222    0.02235219931734
H         0.47969198326617    1.77040507166471   -0.03260445949013
H        -1.46699307921529    3.07393293852924   -0.16219162965733
H        -0.80063614391000    2.64892258270267   -1.76455800748273
H        -2.53180894514030    3.02858759749753   -1.58898532554575
27
 energy: -38.781366148219 gnorm: 0.000362576606 xtb: 6.3.3 (4ae9cef)
C        -3.30989030809116   -2.52873306521609   -0.40244512744111
O        -2.82696600699816   -1.21923404786181   -0.55599422054091
C        -1.56510338043522   -0.94195184737136   -0.11780166607825
C        -0.70848924084636   -1.84801788456797    0.47953486962196
C         0.56055306105365   -1.45897164300293    0.89003618545439
C         0.98941089996965   -0.15930221529889    0.71429189931535
C         2.37394416839881    0.27847141135134    1.11711275795007
C         3.24311621615273    0.38280808900650   -0.10065888926184
C         3.81445243728595    1.49596342329626   -0.51858579104488
C         0.13248710361170    0.75855650709129    0.10932021608002
C        -1.13308970982469    0.39039489997398   -0.30624601117601
O        -2.03587786460640    1.22083930464255   -0.90127133947567
C        -1.67092103404485    2.56076081326948   -1.10915764602161
H        -2.69601932017633   -3.25345348022925   -0.94852766846126
H        -3.36089612144828   -2.82040443108330    0.65246055124527
H        -4.31495319005563   -2.52247746453305   -0.82156644478454
H        -1.01530367718377   -2.87004074905301    0.63509791688280
H         1.20910575432116   -2.18716877754555    1.35441205947931
H         2.33171186059439    1.24511345433993    1.62286516143639
H         2.80177041043238   -0.45641106067106    1.80349219987215
H         3.36225391069866   -0.53855062560728   -0.65581076717151
H         4.42224086347589    1.52910997719351   -1.40705183177617
H         3.70534844914293    2.42544037548146    0.01724853939652
H         0.48210578792587    1.76922211307180   -0.03187786912710
H        -1.46155571750706    3.07394200867184   -0.16410046833856
H        -0.79951200491367    2.64597333376509   -1.76752178667991
H        -2.52992234693277    3.02812258088602   -1.58827382935494
