76
 energy: -138.689373345368 gnorm: 0.156548169679 xtb: 6.3.3 (4ae9cef)
C        -1.87008700000000    1.93767600000000   -0.74147300000000
C        -2.73393200000000    2.98144500000000   -0.40416400000000
C        -3.06327000000000    3.22829400000000    0.93462100000000
C        -3.93832700000000    4.26567200000000    1.29242300000000
C        -4.25271600000000    4.50366500000000    2.63038200000000
C        -3.69683900000000    3.70647000000000    3.62650200000000
C        -2.82617300000000    2.66910200000000    3.28689800000000
C        -2.50038400000000    2.41738600000000    1.94533800000000
C        -1.63543400000000    1.36823400000000    1.58792100000000
C        -1.32739200000000    1.10185800000000    0.24638200000000
C        -0.43567300000000   -0.05178500000000   -0.16757800000000
C         1.06324600000000    0.19048200000000    0.15930600000000
C         1.79032800000000    0.69895800000000   -1.07518200000000
C         2.21422300000000    2.03700200000000   -1.12689500000000
C         2.85383700000000    2.55706400000000   -2.26503100000000
C         3.28707400000000    3.89213700000000   -2.31668000000000
C         3.91959500000000    4.39502900000000   -3.45522900000000
C         4.12403300000000    3.56969300000000   -4.55751400000000
C         3.70078300000000    2.24080000000000   -4.52200700000000
C         3.06816100000000    1.71991800000000   -3.38273800000000
C         2.64783100000000    0.38345600000000   -3.32967200000000
C         2.01801800000000   -0.12189600000000   -2.19004700000000
N         1.54034800000000   -1.10865900000000    0.63643700000000
C         2.86301600000000   -1.30156400000000    0.99182200000000
C         3.34657300000000   -2.67378700000000    1.27246400000000
C         3.11685800000000   -3.71826100000000    0.36795800000000
C         3.60592200000000   -4.99685300000000    0.64631300000000
C         4.33774800000000   -5.21397200000000    1.82129500000000
N         4.84938100000000   -6.55175700000000    2.11275300000000
O         5.10591500000000   -7.28635100000000    1.14777400000000
O         4.99245600000000   -6.86306500000000    3.30448000000000
C         4.59210500000000   -4.17113800000000    2.71870500000000
C         4.10518000000000   -2.89484600000000    2.43055300000000
O         3.67886500000000   -0.38515800000000    1.06275600000000
C         0.42240400000000   -1.94004100000000    1.07167200000000
C         0.29277700000000   -1.98690500000000    2.63167000000000
O        -0.91276800000000   -1.62895700000000    3.13133400000000
O         1.16842600000000   -2.33163900000000    3.41435300000000
N        -0.75174400000000   -1.34295500000000    0.45712800000000
C        -1.87504200000000   -2.12241500000000    0.27870700000000
C        -3.05351800000000   -1.51048900000000   -0.35698000000000
C        -4.07456200000000   -1.01366000000000    0.46283200000000
C        -5.16981800000000   -0.36901400000000   -0.11502700000000
C        -5.23973200000000   -0.24921500000000   -1.51171100000000
N        -6.37026500000000    0.45758700000000   -2.12384400000000
O        -6.28326900000000    0.74470600000000   -3.32722500000000
O        -7.33988400000000    0.72872200000000   -1.40158400000000
C        -4.23764200000000   -0.79276100000000   -2.33293900000000
C        -3.14031700000000   -1.43196600000000   -1.75050200000000
O        -1.95036100000000   -3.29041900000000    0.64764200000000
H        -1.63253200000000    1.78185600000000   -1.79215000000000
H        -3.14795800000000    3.60217600000000   -1.19758600000000
H        -4.37865600000000    4.89971600000000    0.52763300000000
H        -4.92759800000000    5.31397500000000    2.89230600000000
H        -3.93798200000000    3.89291300000000    4.66931700000000
H        -2.40357400000000    2.05631600000000    4.07967600000000
H        -1.21645800000000    0.74174700000000    2.36923300000000
H        -0.57529200000000   -0.22553300000000   -1.24303000000000
H         1.19308200000000    0.89118500000000    0.99398400000000
H         2.04608800000000    2.68722100000000   -0.26633500000000
H         3.14288900000000    4.55102300000000   -1.46297100000000
H         4.25597900000000    5.42906000000000   -3.47760800000000
H         4.61590100000000    3.95776900000000   -5.44472400000000
H         3.87565100000000    1.60949700000000   -5.39191500000000
H         2.81359800000000   -0.27824400000000   -4.17857700000000
H         1.70782300000000   -1.16358500000000   -2.18247400000000
H         2.56512200000000   -3.54860100000000   -0.55116400000000
H         3.41095100000000   -5.81090000000000   -0.04843200000000
H         5.16154500000000   -4.33522800000000    3.63049500000000
H         4.29986400000000   -2.07218400000000    3.11732900000000
H         0.54017700000000   -2.96846200000000    0.72101500000000
H        -0.83074000000000   -1.81816300000000    4.09085400000000
H        -4.00086400000000   -1.10517200000000    1.54533700000000
H        -5.94777900000000    0.03631800000000    0.53165700000000
H        -4.29649300000000   -0.71825800000000   -3.41707100000000
H        -2.35869500000000   -1.85227100000000   -2.37919600000000
76
 energy: -138.710565131896 gnorm: 0.059399276770 xtb: 6.3.3 (4ae9cef)
C        -1.87918251699292    1.93281058682643   -0.73600622829155
C        -2.72433855058493    2.96963639095993   -0.40768175283464
C        -3.06311749014961    3.22609438365062    0.93190801500495
C        -3.93790509211732    4.26639108048979    1.29670347560385
C        -4.24436444300327    4.49687264276408    2.61957653303531
C        -3.68629706415631    3.69616443576762    3.61855717305496
C        -2.82751091055697    2.66949752644691    3.28914530879580
C        -2.49811029822448    2.40794611428728    1.94605749264527
C        -1.63625113642705    1.35492575069876    1.57950130114997
C        -1.33810584369525    1.09533981605211    0.25398483863519
C        -0.44238642922330   -0.05293572205110   -0.16455601666171
C         1.05821350955002    0.18771293761381    0.15593374816077
C         1.79810623794549    0.70515277947489   -1.06594815797187
C         2.21053819760646    2.02557295584043   -1.11830883851630
C         2.84962154988678    2.55530041634724   -2.25665916225818
C         3.28731174401632    3.89236532788656   -2.31651466025605
C         3.91179831106519    4.38265170155697   -3.44327444980458
C         4.11742579131483    3.55596864982810   -4.55015873336813
C         3.70248407415657    2.24280695457065   -4.51993178869141
C         3.06704969567650    1.71483521652097   -3.38025803437348
C         2.64097722930998    0.37649108718326   -3.31275491721242
C         2.02140936002242   -0.11568413817487   -2.18390551787836
N         1.53826646426892   -1.11762278343071    0.62584474565846
C         2.85055614649905   -1.29693075234398    0.99463331968490
C         3.32130368947810   -2.68259621885116    1.28485158111307
C         3.10537338323541   -3.72703125271339    0.38544783606826
C         3.61249956252681   -4.99088532231394    0.64872679851709
C         4.33363412164504   -5.20716031507761    1.81896156883946
N         4.84061091833619   -6.53558858919902    2.10843794766886
O         5.08492297914790   -7.26331419043357    1.16060093533044
O         4.99622584695781   -6.83765411916719    3.27949498719997
C         4.58176288944747   -4.16827834320374    2.71029620896192
C         4.09042930913055   -2.90313783799171    2.42791881623955
O         3.64576316402271   -0.37564542357211    1.03052695495257
C         0.42649287543373   -1.93689379111367    1.07501452232180
C         0.30707375695461   -1.98839811402197    2.62077676455561
O        -0.89166157636249   -1.63277221619177    3.10716494773594
O         1.18906671416385   -2.32964649104184    3.36619566954794
N        -0.74496889238302   -1.34240826631846    0.46702523358849
C        -1.85853856955568   -2.11360735822961    0.28944415634598
C        -3.03638433650353   -1.47116156869114   -0.35597470639104
C        -4.06571272194559   -0.98966397217984    0.45112914844609
C        -5.16505886803581   -0.37152206477413   -0.12330173679860
C        -5.23420482193557   -0.25296755254124   -1.50917568463096
N        -6.35506357790596    0.44568405332394   -2.11569611162177
O        -6.27129710483496    0.72745142172688   -3.29966014803259
O        -7.30634030345034    0.71844731902508   -1.40400302618176
C        -4.23978876979035   -0.78850972558212   -2.32421807323547
C        -3.14155492955921   -1.40478788232144   -1.74374605787288
O        -1.91597318655568   -3.27230506585847    0.65867548089795
H        -1.63389915422763    1.77157283473543   -1.77855422392892
H        -3.13637541918723    3.59034334631059   -1.19296734586325
H        -4.37474957362086    4.89354894341151    0.53113077255629
H        -4.91809232437701    5.30144699268650    2.88432543628860
H        -3.93005561934869    3.88327971876751    4.65630197819871
H        -2.40450515904310    2.05767975243231    4.07489907932340
H        -1.21876728571778    0.73090410105633    2.35757759646735
H        -0.56010206965058   -0.19637561237278   -1.24829056471811
H         1.17035152632956    0.91015647713939    0.97608554652959
H         2.04364472643831    2.67256849367459   -0.26597004605620
H         3.13927638998241    4.54475853451699   -1.46601352353235
H         4.24604151724618    5.41223442459212   -3.47020485909956
H         4.60714073063474    3.94673830039278   -5.43289730170653
H         3.87242823105488    1.61147084025987   -5.38297853078748
H         2.80560552312464   -0.27788444339723   -4.15989523840731
H         1.70918661475460   -1.15281734101094   -2.16960641040201
H         2.56473821372818   -3.55393735586087   -0.53504154623287
H         3.42845475788085   -5.80645174119494   -0.03806934990351
H         5.15375960675601   -4.34148075452083    3.61207484773397
H         4.28980780777176   -2.08188952524057    3.10267786050415
H         0.53627775055437   -2.97861168614972    0.74457574916233
H        -0.84493508307821   -1.80283715920192    4.06906587044905
H        -3.99824957326586   -1.09354406396049    1.52567854913306
H        -5.94684501558520    0.03280076701478    0.50671423157228
H        -4.31250067595152   -0.71320156158832   -3.40130196281159
H        -2.37243353105193   -1.83748375394462   -2.37011632134573
76
 energy: -138.716210148467 gnorm: 0.016398227531 xtb: 6.3.3 (4ae9cef)
C        -1.88521394666755    1.92076435161136   -0.73743303209852
C        -2.71806672226007    2.95264206786615   -0.41266568341741
C        -3.06064685274707    3.21549148313955    0.92884365891639
C        -3.93330920101889    4.26027322555218    1.29713417956513
C        -4.23557728515644    4.48738591059163    2.61032021512472
C        -3.67540637021847    3.68294203430027    3.61288001528719
C        -2.82610891084629    2.66178632359351    3.28877810813939
C        -2.49688811426940    2.39271951744430    1.94346247890845
C        -1.63911466228151    1.33492931375221    1.57176605922987
C        -1.34502468554250    1.08212055863278    0.25661568717382
C        -0.44517945580682   -0.05648655876043   -0.17031598486426
C         1.05160411883802    0.18948224269071    0.15893246661756
C         1.79699398885110    0.71031584105582   -1.05293610670014
C         2.20646458888951    2.01704873886352   -1.10476001851897
C         2.84664130237499    2.54873984471334   -2.24418754767674
C         3.28383743815912    3.88864911964030   -2.31002047414634
C         3.90200308089884    4.37118609477680   -3.42969051275023
C         4.10959690038167    3.54081085963220   -4.54028543377621
C         3.69959258470445    2.23735120797596   -4.51122010705100
C         3.06402221570568    1.70621571186918   -3.36921168733266
C         2.63414570477081    0.36569372560250   -3.29181715052214
C         2.01915291562996   -0.11693317959826   -2.17092204944194
N         1.53521296316483   -1.12169446239966    0.60807621014238
C         2.84300727654643   -1.28706186290902    0.98056899040528
C         3.29873354467411   -2.68173009842938    1.28885287419098
C         3.08872841697055   -3.72746792811641    0.39338834620922
C         3.60421082014239   -4.98357478947529    0.65119120180933
C         4.32305503225692   -5.19649195338355    1.81861769407248
N         4.84030371121046   -6.51488246481854    2.10328085374040
O         5.05143339791617   -7.24608073485896    1.16271128519756
O         5.00725975697722   -6.81019067267869    3.26322571235069
C         4.56445286874193   -4.15918312188589    2.70829693227781
C         4.06964567973233   -2.90051485924134    2.42787678023438
O         3.62225497960405   -0.35950677194961    0.99212191841341
C         0.43048328324391   -1.93135269843140    1.06874854905562
C         0.33191134569261   -1.98114136156201    2.60742908505505
O        -0.86474779209477   -1.63258181951703    3.07849462361226
O         1.23047529287278   -2.32449567210642    3.32137790866873
N        -0.73854228741946   -1.33955695586466    0.46564746707984
C        -1.84449039410022   -2.10699805627462    0.29550475858804
C        -3.01973714874060   -1.44030544793833   -0.35419558931920
C        -4.05028375794391   -0.96138805765763    0.44789359164769
C        -5.15248293066700   -0.35795291776395   -0.12428323893950
C        -5.22281750449560   -0.24565297487806   -1.50565407725552
N        -6.34323721605348    0.43829481789705   -2.10860317223542
O        -6.26500341459674    0.70744195086138   -3.28492825045580
O        -7.28353237416901    0.71000014250181   -1.39970864444694
C        -4.23114712738474   -0.77490497509702   -2.31892979738005
C        -3.13327042631711   -1.38013886932937   -1.73921417462702
O        -1.88945676341708   -3.25782399112577    0.67511050329619
H        -1.63453709990216    1.74841641607752   -1.77411944697833
H        -3.12728618947177    3.58123706656791   -1.18922989897819
H        -4.36402631862277    4.88134201380929    0.52576867161285
H        -4.90707993944327    5.28902850355939    2.88026023894780
H        -3.92077232760342    3.87463249500766    4.64707390661457
H        -2.39886887600312    2.04737210668063    4.06727482185842
H        -1.22624154506777    0.71112081928079    2.35027063008461
H        -0.54994717049786   -0.17972616311666   -1.25840186602980
H         1.15155628619856    0.92040068261702    0.97384508470851
H         2.04292574660949    2.66697909913403   -0.25842504294640
H         3.12893605811617    4.53411599267387   -1.45845181055284
H         4.23632376554215    5.39784965493036   -3.46314475831610
H         4.59815309871171    3.93584862724929   -5.41931143529723
H         3.86366938883455    1.59983803400949   -5.36762672812311
H         2.79849644791604   -0.28146603083700   -4.14117769095526
H         1.70501265301213   -1.15131520788008   -2.14412187760747
H         2.54517074210595   -3.55507259315777   -0.52323023144295
H         3.44685966778581   -5.80067543686835   -0.03672237307099
H         5.14475398833898   -4.34236501023975    3.59967200422200
H         4.26992616532829   -2.07843613739434    3.09492360645983
H         0.53013639655941   -2.98428511420134    0.75454712811133
H        -0.86335021803393   -1.78450567220349    4.04298050895913
H        -3.98221924398516   -1.06585756335696    1.51866348289098
H        -5.95056188769619    0.03173398547500    0.48859503403485
H        -4.32549297280624   -0.70843353492987   -3.39215717769073
H        -2.36747148066163   -1.81396986139995   -2.36391820256919
76
 energy: -138.717664918210 gnorm: 0.015147014417 xtb: 6.3.3 (4ae9cef)
C        -1.88964529194595    1.90623994434440   -0.74462818538535
C        -2.71716324480019    2.93937843516357   -0.41842227435363
C        -3.05793329007737    3.20143182211161    0.92489537907660
C        -3.92701885018754    4.24972268961274    1.29369288881158
C        -4.22737216852789    4.47709941595719    2.60588559041446
C        -3.66738156194757    3.67014686203212    3.60951772797092
C        -2.82379776292100    2.64649311468798    3.28500381465110
C        -2.49819760979412    2.37598814178648    1.93816740514135
C        -1.64399548805037    1.31556258468129    1.56569504857233
C        -1.35023070415259    1.06773079499797    0.25159936823851
C        -0.44542822810710   -0.06243017167015   -0.17704003995016
C         1.04556686703658    0.18984987867078    0.16262349587778
C         1.79362063503986    0.71263559742841   -1.04070239162389
C         2.20316218236354    2.01643289912528   -1.09184505004548
C         2.84401770971499    2.54334827154463   -2.23270198426501
C         3.27921164699876    3.88415044905306   -2.30019669427368
C         3.89585005591610    4.36368248759182   -3.41987388831827
C         4.10403333580917    3.52945014954565   -4.53012675081112
C         3.69538993150568    2.22695688440179   -4.49857743196923
C         3.06047473796992    1.69822095644120   -3.35462918422423
C         2.63040052052503    0.35659680866584   -3.27482355840116
C         2.01586370048509   -0.12185509653258   -2.15481809138562
N         1.53364529555604   -1.12282735987812    0.59434872706798
C         2.84178624078381   -1.27758075738411    0.96486109367607
C         3.29036187143406   -2.67298291038869    1.28264457026393
C         3.07257554878350   -3.72006703509116    0.39110487727953
C         3.59086908474992   -4.97418560386019    0.64749688523114
C         4.30935368460102   -5.18500810702495    1.81530725666673
N         4.81738770736882   -6.50519229828798    2.10051157464788
O         5.02608398651281   -7.23679292411551    1.15997519031284
O         5.04464949912709   -6.77596252065479    3.25967470166554
C         4.55092644931788   -4.14786393304219    2.70560209567122
C         4.05826781840079   -2.88964111813607    2.42368337715652
O         3.61644200906808   -0.34664165327379    0.95670870442762
C         0.43519303454734   -1.93240870275051    1.05887137834674
C         0.34830597747578   -1.97941498283317    2.59745815942539
O        -0.84526659492112   -1.62935045660195    3.06336233174968
O         1.26285273162541   -2.30997554916130    3.29771337002722
N        -0.73360363224664   -1.34133030480942    0.45973414349473
C        -1.84054632171454   -2.10493355494754    0.29941676367609
C        -3.00926660019420   -1.42402387865936   -0.35155105464034
C        -4.03502046202722   -0.93714926423152    0.45143738046644
C        -5.13956088238536   -0.34005178736329   -0.12091121293334
C        -5.21202899278170   -0.23589468589701   -1.50285319731293
N        -6.33890268658664    0.43406030319527   -2.10576802962552
O        -6.26767820422116    0.69079639825051   -3.28579680053162
O        -7.27455999126007    0.71048833147796   -1.39189407057896
C        -4.21888457039700   -0.76119253301594   -2.31693462093838
C        -3.11964876024939   -1.36173371718111   -1.73643309365478
O        -1.88599210636672   -3.25275210965416    0.68702287623922
H        -1.63649514179806    1.72618316707300   -1.77906390039385
H        -3.12597913543477    3.57400008805005   -1.19038179179350
H        -4.35257685653512    4.86939050582636    0.51817885520900
H        -4.89602650850849    5.27920933133363    2.87993895375622
H        -3.91173501655750    3.86619546540652    4.64278671341133
H        -2.39308934859548    2.02880925104316    4.05941587019206
H        -1.23537640402215    0.68881008580594    2.34441013373119
H        -0.54256167084299   -0.17901717599175   -1.26608711885402
H         1.13656970288979    0.91729864056351    0.98109217860534
H         2.04185787624290    2.66964824551215   -0.24724738257138
H         3.11909203195362    4.52653647494276   -1.44700036555640
H         4.22891611557956    5.39011785469376   -3.45941452739534
H         4.59140133751196    3.92634439326095   -5.40838742167070
H         3.85569530637574    1.58317677449970   -5.35121388623243
H         2.79656913441814   -0.28933621216371   -4.12471822416608
H         1.69905180700874   -1.15495291344861   -2.11720158202252
H         2.52221759727707   -3.54907488791556   -0.52153963070146
H         3.44390573339621   -5.79410502860227   -0.03897351549511
H         5.12984756195724   -4.33800739145868    3.59608187478078
H         4.25330425074108   -2.06659089688338    3.09055412859173
H         0.52964184382689   -2.98843783534734    0.74988791458989
H        -0.86790161024672   -1.76460591519762    4.02903511099850
H        -3.96233177602810   -1.03426300271672    1.52230953824507
H        -5.94514226738467    0.04675711957499    0.48338257869566
H        -4.32333777704307   -0.69717264134832   -3.38911618646534
H        -2.35268204303537   -1.79413470083372   -2.36021488851294
76
 energy: -138.718491823116 gnorm: 0.018944058738 xtb: 6.3.3 (4ae9cef)
C        -1.89636864934111    1.88517746109295   -0.75721233404363
C        -2.71915258020235    2.92053991135806   -0.42767999802131
C        -3.05524106815835    3.17942694889450    0.91826384523826
C        -3.91803801526988    4.23284274925472    1.28784383937351
C        -4.21526921848537    4.46113609808703    2.60076744855437
C        -3.65662317871145    3.65047411669249    3.60465542538462
C        -2.82100351593808    2.62107279849758    3.27782828941135
C        -2.50170100694603    2.35050266942358    1.92897198071257
C        -1.65210809293708    1.28750463951308    1.55582166163060
C        -1.35812104544619    1.04661457431428    0.24080837727409
C        -0.44613982097355   -0.07334606111440   -0.18657825404740
C         1.03661837459700    0.18855057814941    0.16763156050191
C         1.78759261016245    0.71637571785068   -1.02390743301471
C         2.19804199259044    2.01864101030987   -1.07386156205298
C         2.84039017553000    2.53696862944768   -2.21677434583614
C         3.27245039868516    3.87849641173385   -2.28622423196397
C         3.88788730815118    4.35441965234220   -3.40787357565307
C         4.09674609594465    3.51436140769223   -4.51578627529767
C         3.68970854019593    2.21124747588375   -4.47941466528638
C         3.05586761424405    1.68754794596401   -3.33283002994699
C         2.62697699206532    0.34467542576808   -3.25157767847849
C         2.01070572356897   -0.12819226963292   -2.13152333488279
N         1.53184077971218   -1.12487553653693    0.57611383446792
C         2.84262578362774   -1.26566933910616    0.93927194985184
C         3.28476174609718   -2.65844957101078    1.26979197997463
C         3.05515955899885   -3.70871598363584    0.38464805472853
C         3.57435233027326   -4.96135376757985    0.64464304206145
C         4.29818960831741   -5.16447446392309    1.81224030552861
N         4.83569517740241   -6.47340471525204    2.09152806164427
O         4.95051627276690   -7.23874641040467    1.14997439608831
O         5.07462995253733   -6.74225453501589    3.24914496615554
C         4.53227228497576   -4.12730266677789    2.70559823814606
C         4.04485638668344   -2.86945894663052    2.41680100159599
O         3.61215871123922   -0.33092767435905    0.90757491951322
C         0.44207831459100   -1.93677474405941    1.04556448510814
C         0.36921634362310   -1.97159552730183    2.58710598829065
O        -0.82242764854825   -1.62659548036546    3.04761830334551
O         1.30227900921033   -2.28382564867087    3.27307501323028
N        -0.72751167811370   -1.34782022415260    0.45009605637992
C        -1.83985947845573   -2.10444628215340    0.30591084802308
C        -2.99783374344023   -1.40624871038757   -0.34659914842652
C        -4.01478522343330   -0.90405279930147    0.45863088238366
C        -5.12010979356105   -0.31031945489622   -0.11453452474126
C        -5.19550861145003   -0.21833258839462   -1.49839989535803
N        -6.33207670251312    0.43383049880757   -2.10185814711167
O        -6.27656114110675    0.66292428171949   -3.29165704667902
O        -7.26465807866057    0.71410197221825   -1.38151658340371
C        -4.19989384674941   -0.73989776186448   -2.31387433056094
C        -3.10060212390169   -1.33895191381110   -1.73183184830587
O        -1.89129292095771   -3.24820412430518    0.70566924425122
H        -1.64082349369609    1.69587979045294   -1.78940268616922
H        -3.12856029273456    3.56231070797244   -1.19415882809932
H        -4.33677614929681    4.85244073365222    0.50797476217993
H        -4.87876320538356    5.26540649189103    2.88061851580322
H        -3.89806262705839    3.85252921292622    4.63743943813201
H        -2.38680125738236    1.99804665422200    4.04708325462093
H        -1.24825339685785    0.65585187066191    2.33376423351972
H        -0.53222719566995   -0.18558921312020   -1.27618597222345
H         1.11522350188980    0.90668708472408    0.99488784635185
H         2.03839221415676    2.67567669739709   -0.23080351042757
H         3.10627470826727    4.51780632070818   -1.43106765543545
H         4.21947897801962    5.38092250373981   -3.45590626181589
H         4.58295111529420    3.91246652147212   -5.39375694085433
H         3.84622402234838    1.55884829126090   -5.32702672685208
H         2.79703316114931   -0.30175808133900   -4.10085169840092
H         1.69068713887247   -1.15980960224580   -2.07856550987839
H         2.49577726633965   -3.54079306253369   -0.52350081072364
H         3.43722244783274   -5.78651461470111   -0.03774134704852
H         5.10928745691929   -4.32376550785209    3.59593643097817
H         4.23271116824988   -2.04310946535000    3.08218436905758
H         0.53127767029131   -2.99493466258923    0.74162810258933
H        -0.87388225019933   -1.73941913806653    4.01368336955375
H        -3.93446282548317   -0.98843569906816    1.53054638923386
H        -5.93115047777165    0.07954609491795    0.48037845663375
H        -4.31308915599281   -0.67512312485261   -3.38510539472348
H        -2.33041642459427   -1.76836357865192   -2.35412858173912
76
 energy: -138.719127170517 gnorm: 0.009893094619 xtb: 6.3.3 (4ae9cef)
C        -1.89982113344889    1.87804623606223   -0.76339071441510
C        -2.72418359472591    2.91314383044069   -0.43212637893818
C        -3.05701055931665    3.17025039980083    0.91447739889967
C        -3.91605757823345    4.22563961520531    1.28563831359131
C        -4.21057067677169    4.45422170090309    2.60017854598307
C        -3.65380352820311    3.64159323530680    3.60239958730296
C        -2.82148501926149    2.60892690997651    3.27328815510473
C        -2.50485787856616    2.34019173056017    1.92403319654357
C        -1.65611746243721    1.27785980856338    1.54998324805694
C        -1.36164847870719    1.03913951551740    0.23340427675632
C        -0.44714154793449   -0.08025622868851   -0.18933699060232
C         1.03339337791801    0.18655449247709    0.16940106656739
C         1.78438292712814    0.71864523105532   -1.02000568658258
C         2.19514971745527    2.02204454643287   -1.06954663663186
C         2.83909369301807    2.53714213948682   -2.21265106971212
C         3.27049671656198    3.87833065893456   -2.28346209697460
C         3.88625457110870    4.35292730720043   -3.40691421933842
C         4.09563437089191    3.51083123730680   -4.51208458166824
C         3.68956293694401    2.20651936641514   -4.47305205902833
C         3.05574091804504    1.68547561252228   -3.32605577472523
C         2.62881291300372    0.34259579038077   -3.24530181928862
C         2.00934899815545   -0.12795504502748   -2.12495933459847
N         1.53246585020930   -1.12532614369097    0.57474436713622
C         2.84636490867610   -1.26342024152259    0.92977217569092
C         3.29144325059561   -2.65251425313773    1.26002605388132
C         3.05835257321782   -3.70202587366149    0.37494214856545
C         3.57058679921259   -4.95667706146996    0.63866369569010
C         4.29072197340541   -5.16059164712607    1.80901306522504
N         4.81608686054602   -6.47342567740615    2.09162588374470
O         4.94708373647243   -7.23444234105989    1.15485558477924
O         5.09703159216068   -6.72638971758670    3.24676540871229
C         4.52697557363181   -4.12340925152009    2.70295967422532
C         4.04636290152712   -2.86340965196578    2.41043509017764
O         3.61465046341132   -0.32849214604085    0.89817849271309
C         0.44468754423674   -1.94081358630180    1.04537814668737
C         0.37143834681233   -1.96440496211868    2.58975844480938
O        -0.82275546565974   -1.62732442205007    3.04946530317764
O         1.30371497129459   -2.26837710255326    3.27880475740951
N        -0.72666080617461   -1.35537890219509    0.44747582420785
C        -1.84469295303621   -2.10722347920663    0.30990073933267
C        -2.99861369986182   -1.40629668122976   -0.34288584864844
C        -4.01120497431191   -0.89486689509382    0.46257464170282
C        -5.11254800556288   -0.29437609488239   -0.11151613060029
C        -5.18922547419533   -0.20779554746202   -1.49637937861516
N        -6.33085643147936    0.43589057639862   -2.10168904932107
O        -6.28151281885366    0.65549693355932   -3.29410003533218
O        -7.26113665849311    0.72244146263846   -1.37965484658175
C        -4.19293643522027   -0.73039859788747   -2.31134829189588
C        -3.09730759172829   -1.33619198737125   -1.72840106246433
O        -1.90399573792389   -3.24909687194317    0.71419555903966
H        -1.64513438817678    1.68934571138795   -1.79602298939288
H        -3.13459218995860    3.55474741021969   -1.19827480588901
H        -4.33384138463438    4.84783704031467    0.50739739561802
H        -4.87049158550920    5.26119975289164    2.88148103664142
H        -3.89225579205784    3.84431841572103    4.63597276338258
H        -2.38886247492891    1.98356345528757    4.04163994009072
H        -1.25169170641557    0.64428195566367    2.32591901655019
H        -0.52920504239573   -0.19709780743399   -1.27868288019747
H         1.10829220777861    0.89902750613319    1.00207045288281
H         2.03350778745744    2.67866106351189   -0.22646811117647
H         3.10456266082470    4.51891715471873   -1.42918629109449