      -----------------------------------------------------------      
     |                   =====================                   |     
     |                           x T B                           |     
     |                   =====================                   |     
     |                         S. Grimme                         |     
     |          Mulliken Center for Theoretical Chemistry        |     
     |                    University of Bonn                     |     
      -----------------------------------------------------------      

   * xtb version 6.3.3 (4ae9cef) compiled by 'conda@95abc7406d43' on 2020-10-14

   xtb is free software: you can redistribute it and/or modify it under
   the terms of the GNU Lesser General Public License as published by
   the Free Software Foundation, either version 3 of the License, or
   (at your option) any later version.
   
   xtb is distributed in the hope that it will be useful,
   but WITHOUT ANY WARRANTY; without even the implied warranty of
   MERCHANTABILITY or FITNESS FOR A PARTICULAR PURPOSE.  See the
   GNU Lesser General Public License for more details.
   
   Cite this work as:
   * C. Bannwarth, E. Caldeweyher, S. Ehlert, A. Hansen, P. Pracht,
     J. Seibert, S. Spicher, S. Grimme, WIREs Comput. Mol. Sci., 2020,
     e01493. DOI: 10.1002/wcms.1493
   
   for GFN2-xTB:
   * S. Grimme, C. Bannwarth, P. Shushkov, J. Chem. Theory Comput., 2017,
     13, 1989-2009. DOI: 10.1021/acs.jctc.7b00118
   for GFN1-xTB:
   * C. Bannwarth, S. Ehlert and S. Grimme., J. Chem. Theory Comput., 2019,
     15, 1652-1671. DOI: 10.1021/acs.jctc.8b01176
   for GFN0-xTB:
   * P. Pracht, E. Caldeweyher, S. Ehlert, S. Grimme, ChemRxiv, 2019, preprint.
     DOI: 10.26434/chemrxiv.8326202.v1
   for GFN-FF:
   * S. Spicher and S. Grimme, Angew. Chem. Int. Ed., 2020, 59, 15665-15673.
     DOI: 10.1002/anie.202004239
   
   for DFT-D4:
   * E. Caldeweyher, C. Bannwarth and S. Grimme, J. Chem. Phys., 2017,
     147, 034112. DOI: 10.1063/1.4993215
   * E. Caldeweyher, S. Ehlert, A. Hansen, H. Neugebauer, S. Spicher,
     C. Bannwarth and S. Grimme, J. Chem. Phys., 2019, 150, 154122.
     DOI: 10.1063/1.5090222
   * E. Caldeweyher, J.-M. Mewes, S. Ehlert and S. Grimme, Phys. Chem. Chem. Phys.
     2020, 22, 8499-8512. DOI: 10.1039/D0CP00502A
   
   for sTDA-xTB:
   * S. Grimme and C. Bannwarth, J. Chem. Phys., 2016, 145, 054103.
     DOI: 10.1063/1.4959605
   
   in the mass-spec context:
   * V. Asgeirsson, C. Bauer and S. Grimme, Chem. Sci., 2017, 8, 4879.
     DOI: 10.1039/c7sc00601b
   * J. Koopman and S. Grimme, ACS Omega 2019, 4, 12, 15120-15133.
     DOI: 10.1021/acsomega.9b02011
   
   for metadynamics refer to:
   * S. Grimme, J. Chem. Theory Comput., 2019, 155, 2847-2862
     DOI: 10.1021/acs.jctc.9b00143
   
   with help from (in alphabetical order)
   C. Bannwarth, F. Bohle, G. Brandenburg, E. Caldeweyher, M. Checinski,
   S. Dohm, S. Ehlert, S. Ehrlich, F. März, H. Neugebauer, J. Pisarek,
   P. Pracht, P. Shushkov, and S. Spicher.
   
 * started run on 2022/03/17 at 00:36:39.828     

           -------------------------------------------------
          |                Calculation Setup                |
           -------------------------------------------------

          program call               : xtb acid_39.xyz --opt --chrg 0 --uhf 0 --gfn 2
          coordinate file            : acid_39.xyz
          omp threads                :                    64
          number of atoms            :                    66
          number of electrons        :                   238
          charge                     :                     0
          spin                       :                   0.0
          first test random number   :      0.33066263349125

   ID    Z sym.   atoms
    1    6 C      1, 2, 6-15, 19-22, 24-26, 28-31, 33, 34, 38-44
    2    9 F      3-5, 16-18
    3    7 N      23, 37
    4   17 Cl     27, 45
    5    8 O      32, 35, 36, 46
    6    1 H      47-66

           -------------------------------------------------
          |                 G F N 2 - x T B                 |
           -------------------------------------------------

        Reference                      10.1021/acs.jctc.8b01176
      * Hamiltonian:
        H0-scaling (s, p, d)           1.850000    2.230000    2.230000
        zeta-weighting                 0.500000
      * Dispersion:
        s8                             2.700000
        a1                             0.520000
        a2                             5.000000
        s9                             5.000000
      * Repulsion:
        kExp                           1.500000    1.000000
        rExp                           1.000000
      * Coulomb:
        alpha                          2.000000
        third order                    shell-resolved
        anisotropic                    true
        a3                             3.000000
        a5                             4.000000
        cn-shift                       1.200000
        cn-exp                         4.000000
        max-rad                        5.000000


          ...................................................
          :                      SETUP                      :
          :.................................................:
          :  # basis functions                 216          :
          :  # atomic orbitals                 214          :
          :  # shells                          114          :
          :  # electrons                       238          :
          :  max. iterations                   250          :
          :  Hamiltonian                  GFN2-xTB          :
          :  restarted?                      false          :
          :  GBSA solvation                  false          :
          :  PC potential                    false          :
          :  electronic temp.          300.0000000     K    :
          :  accuracy                    1.0000000          :
          :  -> integral cutoff          0.2500000E+02      :
          :  -> integral neglect         0.1000000E-07      :
          :  -> SCF convergence          0.1000000E-05 Eh   :
          :  -> wf. convergence          0.1000000E-03 e    :
          :  Broyden damping             0.4000000          :
          ...................................................

 iter      E             dE          RMSdq      gap      omega  full diag
   1   -139.5668054 -0.139567E+03  0.486E+00    3.19       0.0  T
   2   -139.8123218 -0.245516E+00  0.277E+00    3.07       1.0  T
   3   -139.8186896 -0.636784E-02  0.142E+00    3.53       1.0  T
   4   -139.8367004 -0.180108E-01  0.318E-01    2.91       1.0  T
   5   -139.8418885 -0.518806E-02  0.104E-01    3.01       1.0  T
   6   -139.8421001 -0.211648E-03  0.561E-02    3.03       1.0  T
   7   -139.8421626 -0.625108E-04  0.330E-02    3.03       1.0  T
   8   -139.8421762 -0.135996E-04  0.218E-02    3.03       1.0  T
   9   -139.8421824 -0.622039E-05  0.163E-02    3.03       1.0  T
  10   -139.8421907 -0.820574E-05  0.842E-03    3.03       1.5  T
  11   -139.8421923 -0.164008E-05  0.450E-03    3.03       2.7  T
  12   -139.8421928 -0.497703E-06  0.194E-03    3.03       6.4  T
  13   -139.8421929 -0.721579E-07  0.133E-03    3.03       9.3  T
  14   -139.8421929 -0.328844E-07  0.902E-04    3.03      13.6  T
  15   -139.8421929 -0.168531E-07  0.579E-04    3.03      21.3  T

   *** convergence criteria satisfied after 15 iterations ***

         #    Occupation            Energy/Eh            Energy/eV
      -------------------------------------------------------------
         1        2.0000           -1.0658892             -29.0043
       ...           ...                  ...                  ...
       113        2.0000           -0.4261710             -11.5967
       114        2.0000           -0.4195325             -11.4161
       115        2.0000           -0.4181753             -11.3791
       116        2.0000           -0.4152267             -11.2989
       117        2.0000           -0.4100323             -11.1575
       118        2.0000           -0.4084387             -11.1142
       119        2.0000           -0.4021953             -10.9443 (HOMO)
       120                         -0.2907744              -7.9124 (LUMO)
       121                         -0.2741061              -7.4588
       122                         -0.2711695              -7.3789
       123                         -0.2691891              -7.3250
       124                         -0.2679807              -7.2921
       ...                                ...                  ...
       214                          0.6004387              16.3388
      -------------------------------------------------------------
                  HL-Gap            0.1114209 Eh            3.0319 eV
             Fermi-level           -0.3464848 Eh           -9.4283 eV

 SCC (total)                   0 d,  0 h,  0 min,  0.637 sec
 SCC setup                      ...        0 min,  0.012 sec (  1.942%)
 Dispersion                     ...        0 min,  0.016 sec (  2.500%)
 classical contributions        ...        0 min,  0.009 sec (  1.424%)
 integral evaluation            ...        0 min,  0.114 sec ( 17.907%)
 iterations                     ...        0 min,  0.345 sec ( 54.058%)
 molecular gradient             ...        0 min,  0.138 sec ( 21.656%)
 printout                       ...        0 min,  0.003 sec (  0.499%)

         :::::::::::::::::::::::::::::::::::::::::::::::::::::
         ::                     SUMMARY                     ::
         :::::::::::::::::::::::::::::::::::::::::::::::::::::
         :: total energy            -138.380939350333 Eh    ::
         :: gradient norm              0.104232056844 Eh/a0 ::
         :: HOMO-LUMO gap              3.031916626508 eV    ::
         ::.................................................::
         :: SCC energy              -139.842192912597 Eh    ::
         :: -> isotropic ES            0.213156020147 Eh    ::
         :: -> anisotropic ES         -0.003807780376 Eh    ::
         :: -> anisotropic XC          0.005374075700 Eh    ::
         :: -> dispersion             -0.099264486033 Eh    ::
         :: repulsion energy           1.457334611219 Eh    ::
         :: add. restraining           0.000000000000 Eh    ::
         :: total charge              -0.000000000000 e     ::
         :::::::::::::::::::::::::::::::::::::::::::::::::::::

      ----------------------------------------------------------- 
     |                   =====================                   |
     |                        A N C O P T                        |
     |                   =====================                   |
     |               Approximate Normal Coordinate               |
     |                Rational Function Optimizer                |
      ----------------------------------------------------------- 

          ...................................................
          :                      SETUP                      :
          :.................................................:
          :   optimization level            normal          :
          :   max. optcycles                   200          :
          :   ANC micro-cycles                  20          :
          :   degrees of freedom               192          :
          :.................................................:
          :   RF solver                   davidson          :
          :   write xtbopt.log                true          :
          :   linear?                        false          :
          :   energy convergence         0.5000000E-05 Eh   :
          :   grad. convergence          0.1000000E-02 Eh/α :
          :   maximium RF displ.         1.0000000          :
          :   Hlow (freq-cutoff)         0.1000000E-01      :
          :   Hmax (freq-cutoff)         5.0000000          :
          :   S6 in model hess.         20.0000000          :
          ...................................................

generating ANC from model Hessian ...
Using Lindh-Hessian (1995)
 Shifting diagonal of input Hessian by    9.8482787786626069E-003
 Lowest  eigenvalues of input Hessian
    0.000000    0.000000    0.000000    0.000000    0.000000    0.000000
    0.010000    0.010162    0.010283    0.010413    0.010437    0.010547
    0.010693    0.010881    0.010907    0.011399    0.011687    0.012088
 Highest eigenvalues
    1.947923    1.963988    1.973731    2.209053    2.225222    2.240655


........................................................................
.............................. CYCLE    1 ..............................
........................................................................
   1   -139.8421929 -0.139842E+03  0.313E-04    3.03       0.0  T
   2   -139.8421929 -0.921261E-09  0.246E-04    3.03      50.0  T
   3   -139.8421929 -0.464382E-09  0.195E-04    3.03      63.1  T
     SCC iter.                  ...        0 min,  0.074 sec
     gradient                   ...        0 min,  0.121 sec
 * total energy  :  -138.3809394 Eh     change       -0.9570584E-08 Eh
   gradient norm :     0.1042361 Eh/α   predicted     0.0000000E+00 (-100.00%)
   displ. norm   :     0.4051943 α      lambda       -0.2390766E-01
   maximum displ.:     0.1478553 α      in ANC's #21, #57, #52, ...

........................................................................
.............................. CYCLE    2 ..............................
........................................................................
   1   -139.9401986 -0.139940E+03  0.189E-01    3.29       0.0  T
   2   -139.9403243 -0.125654E-03  0.116E-01    3.24       1.0  T
   3   -139.9402399  0.843542E-04  0.517E-02    3.24       1.0  T
   4   -139.9403701 -0.130177E-03  0.120E-02    3.23       1.0  T
   5   -139.9403748 -0.475861E-05  0.730E-03    3.22       1.7  T
   6   -139.9403756 -0.741718E-06  0.532E-03    3.23       2.3  T
   7   -139.9403761 -0.528069E-06  0.353E-03    3.23       3.5  T
   8   -139.9403764 -0.281689E-06  0.216E-03    3.23       5.7  T
   9   -139.9403765 -0.148233E-06  0.914E-04    3.23      13.5  T
  10   -139.9403766 -0.202808E-07  0.454E-04    3.23      27.1  T
     SCC iter.                  ...        0 min,  0.232 sec
     gradient                   ...        0 min,  0.145 sec
 * total energy  :  -138.3978049 Eh     change       -0.1686552E-01 Eh
   gradient norm :     0.0408533 Eh/α   predicted    -0.1391644E-01 ( -17.49%)
   displ. norm   :     0.4118686 α      lambda       -0.8541388E-02
   maximum displ.:     0.2566192 α      in ANC's #21, #39, #37, ...

........................................................................
.............................. CYCLE    3 ..............................
........................................................................
   1   -139.9904290 -0.139990E+03  0.133E-01    3.36       0.0  T
   2   -139.9905063 -0.772512E-04  0.841E-02    3.33       1.0  T
   3   -139.9904626  0.436941E-04  0.386E-02    3.33       1.0  T
   4   -139.9905368 -0.742065E-04  0.998E-03    3.32       1.2  T
   5   -139.9905404 -0.363291E-05  0.626E-03    3.32       2.0  T
   6   -139.9905409 -0.544639E-06  0.445E-03    3.32       2.8  T
   7   -139.9905413 -0.394716E-06  0.288E-03    3.32       4.3  T
   8   -139.9905415 -0.204909E-06  0.150E-03    3.32       8.2  T
   9   -139.9905416 -0.735109E-07  0.688E-04    3.32      17.9  T
  10   -139.9905416 -0.937737E-08  0.354E-04    3.32      34.8  T
     SCC iter.                  ...        0 min,  0.242 sec
     gradient                   ...        0 min,  0.137 sec
 * total energy  :  -138.4031700 Eh     change       -0.5365129E-02 Eh
   gradient norm :     0.0135519 Eh/α   predicted    -0.4995160E-02 (  -6.90%)
   displ. norm   :     0.3298890 α      lambda       -0.2047956E-02
   maximum displ.:     0.2504696 α      in ANC's #21, #9, #39, ...

........................................................................
.............................. CYCLE    4 ..............................
........................................................................
   1   -139.9978943 -0.139998E+03  0.781E-02    3.35       0.0  T
   2   -139.9979145 -0.202700E-04  0.483E-02    3.34       1.0  T
   3   -139.9978991  0.154437E-04  0.199E-02    3.34       1.0  T
   4   -139.9979212 -0.221487E-04  0.540E-03    3.34       2.3  T
   5   -139.9979226 -0.131549E-05  0.322E-03    3.34       3.8  T
   6   -139.9979227 -0.134628E-06  0.216E-03    3.34       5.7  T
   7   -139.9979228 -0.948584E-07  0.129E-03    3.34       9.5  T
   8   -139.9979228 -0.319395E-07  0.690E-04    3.34      17.8  T
   9   -139.9979228 -0.173368E-07  0.328E-04    3.34      37.6  T
     SCC iter.                  ...        0 min,  0.211 sec
     gradient                   ...        0 min,  0.122 sec
 * total energy  :  -138.4046270 Eh     change       -0.1457020E-02 Eh
   gradient norm :     0.0100878 Eh/α   predicted    -0.1135441E-02 ( -22.07%)
   displ. norm   :     0.3526736 α      lambda       -0.1195782E-02
   maximum displ.:     0.2457042 α      in ANC's #21, #9, #3, ...

........................................................................
.............................. CYCLE    5 ..............................
........................................................................
   1   -139.9986211 -0.139999E+03  0.805E-02    3.37       0.0  T
   2   -139.9986316 -0.104911E-04  0.483E-02    3.36       1.0  T
   3   -139.9986176  0.139557E-04  0.167E-02    3.36       1.0  T
   4   -139.9986353 -0.176352E-04  0.392E-03    3.36       3.1  T
   5   -139.9986359 -0.605440E-06  0.230E-03    3.36       5.3  T
   6   -139.9986359 -0.611814E-07  0.146E-03    3.36       8.4  T
   7   -139.9986360 -0.365641E-07  0.939E-04    3.36      13.1  T
   8   -139.9986360 -0.162043E-07  0.519E-04    3.36      23.7  T
     SCC iter.                  ...        0 min,  0.186 sec
     gradient                   ...        0 min,  0.117 sec
 * total energy  :  -138.4054154 Eh     change       -0.7883397E-03 Eh
   gradient norm :     0.0071072 Eh/α   predicted    -0.6722562E-03 ( -14.73%)
   displ. norm   :     0.2732150 α      lambda       -0.5081393E-03
   maximum displ.:     0.1431860 α      in ANC's #9, #21, #3, ...

........................................................................
.............................. CYCLE    6 ..............................
........................................................................
   1   -139.9978167 -0.139998E+03  0.633E-02    3.37       0.0  T
   2   -139.9978196 -0.284839E-05  0.375E-02    3.37       1.0  T
   3   -139.9978153  0.426294E-05  0.942E-03    3.37       1.3  T
   4   -139.9978206 -0.535279E-05  0.207E-03    3.37       6.0  T
   5   -139.9978207 -0.103344E-06  0.132E-03    3.37       9.3  T
   6   -139.9978208 -0.199560E-07  0.802E-04    3.37      15.3  T
   7   -139.9978208 -0.104240E-07  0.521E-04    3.37      23.6  T
     SCC iter.                  ...        0 min,  0.168 sec
     gradient                   ...        0 min,  0.150 sec
 * total energy  :  -138.4057678 Eh     change       -0.3524169E-03 Eh
   gradient norm :     0.0052084 Eh/α   predicted    -0.2730384E-03 ( -22.52%)
   displ. norm   :     0.2954989 α      lambda       -0.4017898E-03
   maximum displ.:     0.1585157 α      in ANC's #9, #3, #1, ...

........................................................................
.............................. CYCLE    7 ..............................
........................................................................
   1   -139.9977807 -0.139998E+03  0.669E-02    3.37       0.0  T
   2   -139.9977832 -0.251736E-05  0.395E-02    3.37       1.0  T
   3   -139.9977803  0.285390E-05  0.778E-03    3.38       1.6  T
   4   -139.9977841 -0.372031E-05  0.208E-03    3.38       5.9  T
   5   -139.9977842 -0.950994E-07  0.137E-03    3.38       9.0  T
   6   -139.9977842 -0.223291E-07  0.862E-04    3.38      14.3  T
   7   -139.9977842 -0.124003E-07  0.535E-04    3.38      23.0  T
     SCC iter.                  ...        0 min,  0.163 sec
     gradient                   ...        0 min,  0.139 sec
 * total energy  :  -138.4060859 Eh     change       -0.3181363E-03 Eh
   gradient norm :     0.0058011 Eh/α   predicted    -0.2184468E-03 ( -31.34%)
   displ. norm   :     0.4315113 α      lambda       -0.5290162E-03
   maximum displ.:     0.2189212 α      in ANC's #9, #3, #1, ...

........................................................................
.............................. CYCLE    8 ..............................
........................................................................
   1   -139.9974772 -0.139997E+03  0.997E-02    3.37       0.0  T
   2   -139.9974813 -0.404380E-05  0.588E-02    3.37       1.0  T
   3   -139.9974758  0.547419E-05  0.103E-02    3.38       1.2  T
   4   -139.9974829 -0.713016E-05  0.285E-03    3.37       4.3  T
   5   -139.9974831 -0.152148E-06  0.196E-03    3.38       6.3  T
   6   -139.9974831 -0.465998E-07  0.123E-03    3.38      10.0  T
   7   -139.9974832 -0.263864E-07  0.765E-04    3.38      16.1  T
   8   -139.9974832 -0.120261E-07  0.429E-04    3.38      28.7  T
     SCC iter.                  ...        0 min,  0.185 sec
     gradient                   ...        0 min,  0.131 sec
 * total energy  :  -138.4065171 Eh     change       -0.4311964E-03 Eh
   gradient norm :     0.0077210 Eh/α   predicted    -0.3137660E-03 ( -27.23%)
   displ. norm   :     0.5373197 α      lambda       -0.5927257E-03
   maximum displ.:     0.2561427 α      in ANC's #9, #3, #1, ...

........................................................................
.............................. CYCLE    9 ..............................
........................................................................
   1   -139.9967201 -0.139997E+03  0.124E-01    3.37       0.0  T
   2   -139.9967253 -0.522546E-05  0.732E-02    3.36       1.0  T
   3   -139.9967158  0.951928E-05  0.128E-02    3.37       1.0  T
   4   -139.9967280 -0.121849E-04  0.333E-03    3.37       3.7  T
   5   -139.9967281 -0.158277E-06  0.230E-03    3.37       5.3  T
   6   -139.9967282 -0.674626E-07  0.145E-03    3.37       8.5  T
   7   -139.9967283 -0.373212E-07  0.898E-04    3.37      13.7  T
   8   -139.9967283 -0.154973E-07  0.507E-04    3.37      24.3  T
     SCC iter.                  ...        0 min,  0.185 sec
     gradient                   ...        0 min,  0.148 sec
 * total energy  :  -138.4069845 Eh     change       -0.4674077E-03 Eh
   gradient norm :     0.0080914 Eh/α   predicted    -0.3819478E-03 ( -18.28%)
   displ. norm   :     0.4985067 α      lambda       -0.4767515E-03
   maximum displ.:     0.2188143 α      in ANC's #3, #9, #1, ...

........................................................................
.............................. CYCLE   10 ..............................
........................................................................
   1   -139.9973062 -0.139997E+03  0.113E-01    3.35       0.0  T
   2   -139.9973112 -0.497285E-05  0.666E-02    3.35       1.0  T
   3   -139.9972992  0.120569E-04  0.136E-02    3.35       1.0  T
   4   -139.9973141 -0.149001E-04  0.310E-03    3.35       4.0  T
   5   -139.9973142 -0.132067E-06  0.219E-03    3.35       5.6  T
   6   -139.9973142 -0.607504E-07  0.136E-03    3.35       9.0  T
   7   -139.9973143 -0.336662E-07  0.878E-04    3.35      14.0  T
   8   -139.9973143 -0.156240E-07  0.489E-04    3.35      25.2  T
     SCC iter.                  ...        0 min,  0.184 sec
     gradient                   ...        0 min,  0.121 sec
 * total energy  :  -138.4073451 Eh     change       -0.3605683E-03 Eh
   gradient norm :     0.0060199 Eh/α   predicted    -0.2976148E-03 ( -17.46%)
   displ. norm   :     0.4485349 α      lambda       -0.3308330E-03
   maximum displ.:     0.2072655 α      in ANC's #3, #1, #9, ...

........................................................................
.............................. CYCLE   11 ..............................
........................................................................
   1   -139.9974140 -0.139997E+03  0.988E-02    3.34       0.0  T
   2   -139.9974216 -0.761447E-05  0.583E-02    3.34       1.0  T
   3   -139.9974081  0.135479E-04  0.146E-02    3.34       1.0  T
   4   -139.9974247 -0.166585E-04  0.334E-03    3.34       3.7  T
   5   -139.9974251 -0.325531E-06  0.229E-03    3.34       5.4  T
   6   -139.9974251 -0.620296E-07  0.148E-03    3.34       8.3  T
   7   -139.9974252 -0.424931E-07  0.932E-04    3.34      13.2  T
   8   -139.9974252 -0.184923E-07  0.546E-04    3.34      22.6  T
     SCC iter.                  ...        0 min,  0.189 sec
     gradient                   ...        0 min,  0.133 sec
 * total energy  :  -138.4075879 Eh     change       -0.2428284E-03 Eh
   gradient norm :     0.0063400 Eh/α   predicted    -0.1987005E-03 ( -18.17%)
   displ. norm   :     0.4014067 α      lambda       -0.3135793E-03
   maximum displ.:     0.1990995 α      in ANC's #1, #3, #8, ...

........................................................................
.............................. CYCLE   12 ..............................
........................................................................
   1   -140.0010763 -0.140001E+03  0.813E-02    3.33       0.0  T
   2   -140.0010841 -0.771638E-05  0.480E-02    3.33       1.0  T
   3   -140.0010744  0.960746E-05  0.135E-02    3.33       1.0  T
   4   -140.0010868 -0.123105E-04  0.340E-03    3.33       3.6  T
   5   -140.0010870 -0.274590E-06  0.235E-03    3.33       5.2  T
   6   -140.0010871 -0.762457E-07  0.160E-03    3.33       7.7  T
   7   -140.0010872 -0.457462E-07  0.997E-04    3.33      12.3  T
   8   -140.0010872 -0.238363E-07  0.584E-04    3.33      21.1  T
     SCC iter.                  ...        0 min,  0.186 sec
     gradient                   ...        0 min,  0.124 sec
 * total energy  :  -138.4077811 Eh     change       -0.1932202E-03 Eh
   gradient norm :     0.0093059 Eh/α   predicted    -0.1820529E-03 (  -5.78%)
   displ. norm   :     0.4039980 α      lambda       -0.2800736E-03
   maximum displ.:     0.1985398 α      in ANC's #1, #3, #8, ...

........................................................................
.............................. CYCLE   13 ..............................
........................................................................
   1   -139.9994624 -0.139999E+03  0.843E-02    3.31       0.0  T
   2   -139.9994687 -0.631870E-05  0.497E-02    3.31       1.0  T
   3   -139.9994589  0.974624E-05  0.128E-02    3.32       1.0  T
   4   -139.9994712 -0.122481E-04  0.311E-03    3.31       4.0  T
   5   -139.9994714 -0.241830E-06  0.217E-03    3.31       5.7  T
   6   -139.9994715 -0.570474E-07  0.137E-03    3.31       9.0  T
   7   -139.9994715 -0.366163E-07  0.845E-04    3.31      14.6  T
   8   -139.9994715 -0.149559E-07  0.516E-04    3.31      23.9  T
     SCC iter.                  ...        0 min,  0.197 sec
     gradient                   ...        0 min,  0.140 sec
 * total energy  :  -138.4080083 Eh     change       -0.2271885E-03 Eh
   gradient norm :     0.0082915 Eh/α   predicted    -0.1629225E-03 ( -28.29%)
   displ. norm   :     0.4651223 α      lambda       -0.4324949E-03
   maximum displ.:     0.2436921 α      in ANC's #1, #3, #8, ...

........................................................................
.............................. CYCLE   14 ..............................
........................................................................
   1   -140.0011426 -0.140001E+03  0.928E-02    3.33       0.0  T
   2   -140.0011526 -0.997316E-05  0.544E-02    3.32       1.0  T
   3   -140.0011426  0.998596E-05  0.142E-02    3.33       1.0  T
   4   -140.0011555 -0.129171E-04  0.381E-03    3.32       3.2  T
   5   -140.0011560 -0.479038E-06  0.248E-03    3.32       5.0  T
   6   -140.0011560 -0.698392E-07  0.152E-03    3.32       8.1  T
   7   -140.0011561 -0.442382E-07  0.931E-04    3.32      13.2  T
   8   -140.0011561 -0.160178E-07  0.555E-04    3.32      22.2  T
     SCC iter.                  ...        0 min,  0.188 sec
     gradient                   ...        0 min,  0.146 sec
 * total energy  :  -138.4083673 Eh     change       -0.3589441E-03 Eh
   gradient norm :     0.0095041 Eh/α   predicted    -0.2630330E-03 ( -26.72%)
   displ. norm   :     0.6345897 α      lambda       -0.6582564E-03
   maximum displ.:     0.3274333 α      in ANC's #1, #3, #8, ...

........................................................................
.............................. CYCLE   15 ..............................
........................................................................
   1   -139.9979074 -0.139998E+03  0.144E-01    3.23       0.0  T
   2   -139.9979238 -0.163849E-04  0.848E-02    3.25       1.0  T
   3   -139.9978894  0.343906E-04  0.241E-02    3.25       1.0  T
   4   -139.9979326 -0.431957E-04  0.556E-03    3.25       2.2  T
   5   -139.9979330 -0.457636E-06  0.403E-03    3.25       3.1  T
   6   -139.9979333 -0.220290E-06  0.250E-03    3.25       4.9  T
   7   -139.9979334 -0.111658E-06  0.144E-03    3.25       8.6  T
   8   -139.9979334 -0.316155E-07  0.942E-04    3.25      13.1  T
   9   -139.9979334 -0.222080E-07  0.332E-04    3.25      37.1  T
     SCC iter.                  ...        0 min,  0.213 sec
     gradient                   ...        0 min,  0.130 sec
 * total energy  :  -138.4088569 Eh     change       -0.4895935E-03 Eh
   gradient norm :     0.0197880 Eh/α   predicted    -0.4616699E-03 (  -5.70%)
   displ. norm   :     0.5435784 α      lambda       -0.1029519E-02
   maximum displ.:     0.2394163 α      in ANC's #1, #9, #16, ...

........................................................................
.............................. CYCLE   16 ..............................
........................................................................
   1   -140.0002770 -0.140000E+03  0.129E-01    3.35       0.0  T
   2   -140.0002942 -0.171808E-04  0.761E-02    3.33       1.0  T
   3   -140.0002698  0.243844E-04  0.215E-02    3.34       1.0  T
   4   -140.0003008 -0.309554E-04  0.524E-03    3.34       2.3  T
   5   -140.0003015 -0.718876E-06  0.366E-03    3.34       3.4  T
   6   -140.0003017 -0.195579E-06  0.231E-03    3.34       5.3  T
   7   -140.0003018 -0.103722E-06  0.141E-03    3.34       8.7  T
   8   -140.0003018 -0.337046E-07  0.913E-04    3.34      13.5  T
   9   -140.0003019 -0.244008E-07  0.389E-04    3.34      31.6  T
     SCC iter.                  ...        0 min,  0.204 sec
     gradient                   ...        0 min,  0.135 sec
 * total energy  :  -138.4095275 Eh     change       -0.6705859E-03 Eh
   gradient norm :     0.0130425 Eh/α   predicted    -0.6668604E-03 (  -0.56%)
   displ. norm   :     0.6143746 α      lambda       -0.8777132E-03
   maximum displ.:     0.3195130 α      in ANC's #1, #8, #3, ...

........................................................................
.............................. CYCLE   17 ..............................
........................................................................
   1   -139.9975706 -0.139998E+03  0.146E-01    3.24       0.0  T
   2   -139.9975888 -0.182671E-04  0.858E-02    3.26       1.0  T
   3   -139.9975478  0.410411E-04  0.267E-02    3.26       1.0  T
   4   -139.9975992 -0.513978E-04  0.582E-03    3.27       2.1  T
   5   -139.9975999 -0.697392E-06  0.418E-03    3.27       2.9  T
   6   -139.9976001 -0.262435E-06  0.241E-03    3.27       5.1  T
   7   -139.9976002 -0.969942E-07  0.154E-03    3.27       8.0  T
   8   -139.9976003 -0.474568E-07  0.935E-04    3.27      13.2  T
   9   -139.9976003 -0.200213E-07  0.450E-04    3.27      27.4  T
     SCC iter.                  ...        0 min,  0.208 sec
     gradient                   ...        0 min,  0.128 sec
 * total energy  :  -138.4102032 Eh     change       -0.6757814E-03 Eh
   gradient norm :     0.0219234 Eh/α   predicted    -0.6045072E-03 ( -10.55%)
   displ. norm   :     0.4769680 α      lambda       -0.1710628E-02
   maximum displ.:     0.2043409 α      in ANC's #1, #9, #21, ...

........................................................................
.............................. CYCLE   18 ..............................
........................................................................
   1   -140.0053594 -0.140005E+03  0.146E-01    3.36       0.0  T
   2   -140.0054136 -0.542053E-04  0.873E-02    3.34       1.0  T
   3   -140.0053900  0.235656E-04  0.306E-02    3.36       1.0  T
   4   -140.0054252 -0.352227E-04  0.726E-03    3.34       1.7  T
   5   -140.0054270 -0.178841E-05  0.442E-03    3.34       2.8  T
   6   -140.0054273 -0.249033E-06  0.324E-03    3.35       3.8  T
   7   -140.0054275 -0.221974E-06  0.177E-03    3.35       6.9  T
   8   -140.0054276 -0.602532E-07  0.112E-03    3.35      11.0  T
   9   -140.0054276 -0.300236E-07  0.573E-04    3.35      21.5  T
  10   -140.0054276 -0.927722E-08  0.268E-04    3.35      46.0  T
     SCC iter.                  ...        0 min,  0.246 sec
     gradient                   ...        0 min,  0.129 sec
 * total energy  :  -138.4110402 Eh     change       -0.8369227E-03 Eh
   gradient norm :     0.0155633 Eh/α   predicted    -0.1049897E-02 (  25.45%)
   displ. norm   :     0.6376731 α      lambda       -0.1058807E-02
   maximum displ.:     0.3565769 α      in ANC's #1, #8, #3, ...

........................................................................
.............................. CYCLE   19 ..............................
........................................................................
   1   -139.9963921 -0.139996E+03  0.138E-01    3.25       0.0  T
   2   -139.9964470 -0.549177E-04  0.813E-02    3.27       1.0  T
   3   -139.9964070  0.400188E-04  0.339E-02    3.26       1.0  T
   4   -139.9964636 -0.565303E-04  0.747E-03    3.27       1.6  T
   5   -139.9964664 -0.280653E-05  0.402E-03    3.27       3.1  T
   6   -139.9964666 -0.214865E-06  0.287E-03    3.27       4.3  T
   7   -139.9964667 -0.145809E-06  0.152E-03    3.27       8.1  T
   8   -139.9964668 -0.377182E-07  0.103E-03    3.27      11.9  T
   9   -139.9964668 -0.228877E-07  0.550E-04    3.27      22.4  T
  10   -139.9964668 -0.800674E-08  0.216E-04    3.27      57.0  T
     SCC iter.                  ...        0 min,  0.229 sec
     gradient                   ...        0 min,  0.119 sec
 * total energy  :  -138.4117010 Eh     change       -0.6608855E-03 Eh
   gradient norm :     0.0241235 Eh/α   predicted    -0.7446745E-03 (  12.68%)
   displ. norm   :     0.3192449 α      lambda       -0.9971347E-03
   maximum displ.:     0.1878827 α      in ANC's #1, #8, #3, ...

........................................................................
.............................. CYCLE   20 ..............................
........................................................................
   1   -139.9973348 -0.139997E+03  0.732E-02    3.39       0.0  T
   2   -139.9973609 -0.260837E-04  0.442E-02    3.37       1.0  T
   3   -139.9973548  0.606372E-05  0.217E-02    3.38       1.0  T
   4   -139.9973688 -0.139286E-04  0.500E-03    3.37       2.5  T
   5   -139.9973699 -0.109530E-05  0.276E-03    3.37       4.5  T
   6   -139.9973700 -0.946971E-07  0.195E-03    3.37       6.3  T
   7   -139.9973700 -0.766048E-07  0.114E-03    3.37      10.8  T
   8   -139.9973701 -0.286976E-07  0.686E-04    3.37      17.9  T
   9   -139.9973701 -0.117090E-07  0.385E-04    3.37      32.0  T
     SCC iter.                  ...        0 min,  0.209 sec
     gradient                   ...        0 min,  0.133 sec
 * total energy  :  -138.4122866 Eh     change       -0.5855551E-03 Eh
   gradient norm :     0.0160143 Eh/α   predicted    -0.5493809E-03 (  -6.18%)
   displ. norm   :     0.5614167 α      lambda       -0.9663400E-03
   maximum displ.:     0.3419523 α      in ANC's #1, #8, #3, ...
 * RMSD in coord.:     0.8257152 α      energy gain  -0.3134725E-01 Eh

generating ANC from model Hessian ...
Using Lindh-Hessian (1995)
 Shifting diagonal of input Hessian by    9.8463142751367069E-003
 Lowest  eigenvalues of input Hessian
    0.000000    0.000000    0.000000    0.000000    0.000000    0.000000
    0.010000    0.010209    0.010344    0.010410    0.010576    0.010657
    0.010771    0.010908    0.011060    0.011263    0.011895    0.012361
 Highest eigenvalues
    2.027801    2.031105    2.035557    2.324403    2.342826    2.371275


........................................................................
.............................. CYCLE   21 ..............................
........................................................................
   1   -139.9952786 -0.139995E+03  0.121E-01    3.33       0.0  T
   2   -139.9953477 -0.691003E-04  0.721E-02    3.34       1.0  T
   3   -139.9953312  0.165659E-04  0.272E-02    3.36       1.0  T
   4   -139.9953538 -0.225924E-04  0.876E-03    3.35       1.4  T
   5   -139.9953585 -0.477021E-05  0.390E-03    3.35       3.2  T
   6   -139.9953587 -0.174166E-06  0.294E-03    3.35       4.2  T
   7   -139.9953589 -0.173260E-06  0.154E-03    3.35       8.0  T
   8   -139.9953589 -0.450938E-07  0.940E-04    3.35      13.1  T
   9   -139.9953589 -0.159946E-07  0.493E-04    3.35      24.9  T
     SCC iter.                  ...        0 min,  0.206 sec
     gradient                   ...        0 min,  0.113 sec
 * total energy  :  -138.4129679 Eh     change       -0.6813126E-03 Eh
   gradient norm :     0.0242319 Eh/α   predicted     0.0000000E+00 (-100.00%)
   displ. norm   :     0.1377053 α      lambda       -0.8437857E-03
   maximum displ.:     0.0556939 α      in ANC's #29, #28, #13, ...

........................................................................
.............................. CYCLE   22 ..............................
........................................................................
   1   -140.0053687 -0.140005E+03  0.458E-02    3.43       0.0  T
   2   -140.0053823 -0.136628E-04  0.269E-02    3.42       1.0  T
   3   -140.0053819  0.414735E-06  0.101E-02    3.42       1.2  T
   4   -140.0053836 -0.166129E-05  0.298E-03    3.41       4.1  T
   5   -140.0053839 -0.315372E-06  0.182E-03    3.41       6.8  T
   6   -140.0053840 -0.467064E-07  0.130E-03    3.41       9.4  T
   7   -140.0053840 -0.336962E-07  0.730E-04    3.41      16.9  T
   8   -140.0053840 -0.984480E-08  0.456E-04    3.41      27.0  T
     SCC iter.                  ...        0 min,  0.184 sec
     gradient                   ...        0 min,  0.139 sec
 * total energy  :  -138.4135704 Eh     change       -0.6024682E-03 Eh
   gradient norm :     0.0062500 Eh/α   predicted    -0.4298937E-03 ( -28.64%)
   displ. norm   :     0.2615334 α      lambda       -0.6813383E-03
   maximum displ.:     0.1052911 α      in ANC's #29, #8, #28, ...

........................................................................
.............................. CYCLE   23 ..............................
........................................................................
   1   -140.0118667 -0.140012E+03  0.828E-02    3.44       0.0  T
   2   -140.0118789 -0.122517E-04  0.483E-02    3.43       1.0  T
   3   -140.0118705  0.845796E-05  0.145E-02    3.43       1.0  T
   4   -140.0118819 -0.114746E-04  0.467E-03    3.43       2.6  T
   5   -140.0118827 -0.815983E-06  0.299E-03    3.43       4.1  T
   6   -140.0118829 -0.114242E-06  0.179E-03    3.43       6.9  T
   7   -140.0118829 -0.649925E-07  0.113E-03    3.43      10.9  T
   8   -140.0118829 -0.224748E-07  0.749E-04    3.43      16.4  T
   9   -140.0118830 -0.144451E-07  0.299E-04    3.43      41.1  T
     SCC iter.                  ...        0 min,  0.208 sec
     gradient                   ...        0 min,  0.156 sec
 * total energy  :  -138.4141188 Eh     change       -0.5484180E-03 Eh
   gradient norm :     0.0068423 Eh/α   predicted    -0.3639728E-03 ( -33.63%)
   displ. norm   :     0.5237004 α      lambda       -0.9793034E-03
   maximum displ.:     0.2061218 α      in ANC's #29, #8, #28, ...

........................................................................
.............................. CYCLE   24 ..............................
........................................................................
   1   -140.0107616 -0.140011E+03  0.158E-01    3.31       0.0  T
   2   -140.0108061 -0.444608E-04  0.934E-02    3.33       1.0  T
   3   -140.0107505  0.556419E-04  0.358E-02    3.32       1.0  T
   4   -140.0108260 -0.755393E-04  0.781E-03    3.33       1.6  T
   5   -140.0108277 -0.174149E-05  0.529E-03    3.33       2.3  T
   6   -140.0108281 -0.382769E-06  0.311E-03    3.33       4.0  T
   7   -140.0108283 -0.181194E-06  0.200E-03    3.33       6.2  T
   8   -140.0108284 -0.665626E-07  0.136E-03    3.33       9.0  T
   9   -140.0108284 -0.518436E-07  0.643E-04    3.33      19.1  T
  10   -140.0108284 -0.117837E-07  0.287E-04    3.33      42.9  T
     SCC iter.                  ...        0 min,  0.229 sec
     gradient                   ...        0 min,  0.121 sec
 * total energy  :  -138.4146156 Eh     change       -0.4968483E-03 Eh
   gradient norm :     0.0233071 Eh/α   predicted    -0.6239447E-03 (  25.58%)
   displ. norm   :     0.1329030 α      lambda       -0.6172638E-03
   maximum displ.:     0.0683337 α      in ANC's #8, #10, #2, ...

........................................................................
.............................. CYCLE   25 ..............................
........................................................................
   1   -140.0109897 -0.140011E+03  0.372E-02    3.43       0.0  T
   2   -140.0109990 -0.931412E-05  0.225E-02    3.41       1.0  T
   3   -140.0109991 -0.169369E-06  0.110E-02    3.41       1.1  T
   4   -140.0110012 -0.203337E-05  0.196E-03    3.41       6.3  T
   5   -140.0110013 -0.146380E-06  0.121E-03    3.41      10.1  T
   6   -140.0110013 -0.200964E-07  0.738E-04    3.41      16.7  T
   7   -140.0110013 -0.918260E-08  0.439E-04    3.41      28.0  T
     SCC iter.                  ...        0 min,  0.162 sec
     gradient                   ...        0 min,  0.129 sec
 * total energy  :  -138.4150861 Eh     change       -0.4704531E-03 Eh
   gradient norm :     0.0123372 Eh/α   predicted    -0.3141798E-03 ( -33.22%)
   displ. norm   :     0.5290552 α      lambda       -0.9269352E-03
   maximum displ.:     0.2722118 α      in ANC's #8, #10, #2, ...

........................................................................
.............................. CYCLE   26 ..............................
........................................................................
   1   -140.0066070 -0.140007E+03  0.131E-01    3.44       0.0  T
   2   -140.0066338 -0.267340E-04  0.775E-02    3.44       1.0  T
   3   -140.0065959  0.378170E-04  0.278E-02    3.45       1.0  T
   4   -140.0066445 -0.485208E-04  0.593E-03    3.44       2.1  T
   5   -140.0066456 -0.114723E-05  0.390E-03    3.44       3.2  T
   6   -140.0066458 -0.193809E-06  0.262E-03    3.44       4.7  T
   7   -140.0066459 -0.133345E-06  0.138E-03    3.44       8.9  T
   8   -140.0066460 -0.316183E-07  0.851E-04    3.44      14.5  T
   9   -140.0066460 -0.158967E-07  0.404E-04    3.44      30.4  T
     SCC iter.                  ...        0 min,  0.209 sec
     gradient                   ...        0 min,  0.156 sec
 * total energy  :  -138.4157779 Eh     change       -0.6918417E-03 Eh
   gradient norm :     0.0086949 Eh/α   predicted    -0.5932535E-03 ( -14.25%)
   displ. norm   :     0.5220250 α      lambda       -0.6033415E-03
   maximum displ.:     0.2772016 α      in ANC's #8, #10, #2, ...

........................................................................
.............................. CYCLE   27 ..............................
........................................................................
   1   -140.0041374 -0.140004E+03  0.125E-01    3.43       0.0  T
   2   -140.0041466 -0.923654E-05  0.736E-02    3.44       1.0  T
   3   -140.0041182  0.283640E-04  0.208E-02    3.44       1.0  T
   4   -140.0041526 -0.343989E-04  0.415E-03    3.44       3.0  T
   5   -140.0041528 -0.219126E-06  0.297E-03    3.44       4.1  T
   6   -140.0041530 -0.112025E-06  0.180E-03    3.44       6.8  T
   7   -140.0041530 -0.603267E-07  0.115E-03    3.44      10.7  T
   8   -140.0041530 -0.277489E-07  0.631E-04    3.44      19.5  T
   9   -140.0041531 -0.756984E-08  0.347E-04    3.44      35.4  T
     SCC iter.                  ...        0 min,  0.204 sec
     gradient                   ...        0 min,  0.121 sec
 * total energy  :  -138.4162251 Eh     change       -0.4471430E-03 Eh
   gradient norm :     0.0106623 Eh/α   predicted    -0.3839237E-03 ( -14.14%)
   displ. norm   :     0.4576465 α      lambda       -0.5898474E-03
   maximum displ.:     0.2639967 α      in ANC's #8, #2, #10, ...

........................................................................
.............................. CYCLE   28 ..............................
........................................................................
   1   -140.0074797 -0.140007E+03  0.115E-01    3.52       0.0  T
   2   -140.0075154 -0.356736E-04  0.675E-02    3.52       1.0  T
   3   -140.0075064  0.900434E-05  0.222E-02    3.53       1.0  T
   4   -140.0075213 -0.148610E-04  0.451E-03    3.52       2.7  T
   5   -140.0075219 -0.685527E-06  0.304E-03    3.52       4.1  T
   6   -140.0075221 -0.176529E-06  0.223E-03    3.52       5.5  T
   7   -140.0075222 -0.101106E-06  0.109E-03    3.52      11.3  T
   8   -140.0075222 -0.209654E-07  0.676E-04    3.52      18.2  T
   9   -140.0075223 -0.100949E-07  0.343E-04    3.52      35.9  T
     SCC iter.                  ...        0 min,  0.229 sec
     gradient                   ...        0 min,  0.129 sec
 * total energy  :  -138.4165854 Eh     change       -0.3603229E-03 Eh
   gradient norm :     0.0097470 Eh/α   predicted    -0.3566949E-03 (  -1.01%)
   displ. norm   :     0.5307084 α      lambda       -0.5040528E-03
   maximum displ.:     0.2862313 α      in ANC's #8, #2, #10, ...

........................................................................
.............................. CYCLE   29 ..............................
........................................................................
   1   -140.0056727 -0.140006E+03  0.133E-01    3.43       0.0  T
   2   -140.0056854 -0.127070E-04  0.782E-02    3.45       1.0  T
   3   -140.0056627  0.227185E-04  0.203E-02    3.45       1.0  T
   4   -140.0056912 -0.285128E-04  0.446E-03    3.45       2.8  T
   5   -140.0056917 -0.440646E-06  0.317E-03    3.45       3.9  T
   6   -140.0056918 -0.160737E-06  0.177E-03    3.45       6.9  T
   7   -140.0056919 -0.505620E-07  0.116E-03    3.45      10.6  T
   8   -140.0056919 -0.305947E-07  0.737E-04    3.45      16.7  T
   9   -140.0056919 -0.132671E-07  0.350E-04    3.45      35.2  T
     SCC iter.                  ...        0 min,  0.213 sec
     gradient                   ...        0 min,  0.142 sec
 * total energy  :  -138.4168555 Eh     change       -0.2701207E-03 Eh
   gradient norm :     0.0131054 Eh/α   predicted    -0.3230169E-03 (  19.58%)
   displ. norm   :     0.2038212 α      lambda       -0.3867025E-03
   maximum displ.:     0.0967172 α      in ANC's #8, #2, #3, ...

........................................................................
.............................. CYCLE   30 ..............................
........................................................................
   1   -140.0128489 -0.140013E+03  0.584E-02    3.52       0.0  T
   2   -140.0128602 -0.113006E-04  0.346E-02    3.50       1.0  T
   3   -140.0128565  0.363722E-05  0.109E-02    3.50       1.1  T
   4   -140.0128611 -0.450337E-05  0.372E-03    3.49       3.3  T
   5   -140.0128618 -0.738942E-06  0.182E-03    3.49       6.8  T
   6   -140.0128618 -0.419562E-07  0.141E-03    3.50       8.8  T
   7   -140.0128619 -0.430402E-07  0.880E-04    3.50      14.0  T
   8   -140.0128619 -0.203840E-07  0.490E-04    3.50      25.1  T
     SCC iter.                  ...        0 min,  0.187 sec
     gradient                   ...        0 min,  0.150 sec
 * total energy  :  -138.4170671 Eh     change       -0.2115230E-03 Eh
   gradient norm :     0.0083316 Eh/α   predicted    -0.2013930E-03 (  -4.79%)
   displ. norm   :     0.2750086 α      lambda       -0.2791878E-03
   maximum displ.:     0.1459111 α      in ANC's #8, #2, #10, ...

........................................................................
.............................. CYCLE   31 ..............................
........................................................................
   1   -140.0146783 -0.140015E+03  0.783E-02    3.51       0.0  T
   2   -140.0147144 -0.360355E-04  0.452E-02    3.51       1.0  T
   3   -140.0147113  0.302171E-05  0.176E-02    3.51       1.0  T
   4   -140.0147163 -0.499467E-05  0.519E-03    3.51       2.4  T
   5   -140.0147181 -0.174465E-05  0.233E-03    3.51       5.3  T
   6   -140.0147182 -0.119438E-06  0.178E-03    3.51       6.9  T
   7   -140.0147183 -0.632880E-07  0.963E-04    3.51      12.8  T
   8   -140.0147183 -0.223819E-07  0.538E-04    3.51      22.9  T
     SCC iter.                  ...        0 min,  0.187 sec
     gradient                   ...        0 min,  0.137 sec
 * total energy  :  -138.4172204 Eh     change       -0.1533905E-03 Eh
   gradient norm :     0.0063856 Eh/α   predicted    -0.1501546E-03 (  -2.11%)
   displ. norm   :     0.3414695 α      lambda       -0.1595775E-03
   maximum displ.:     0.1772644 α      in ANC's #8, #2, #10, ...

........................................................................
.............................. CYCLE   32 ..............................
........................................................................
   1   -140.0112893 -0.140011E+03  0.858E-02    3.50       0.0  T
   2   -140.0112922 -0.290811E-05  0.507E-02    3.50       1.0  T
   3   -140.0112833  0.884849E-05  0.115E-02    3.50       1.1  T
   4   -140.0112938 -0.104750E-04  0.192E-03    3.50       6.4  T
   5   -140.0112939 -0.726264E-07  0.132E-03    3.50       9.3  T
   6   -140.0112939 -0.188049E-07  0.823E-04    3.50      15.0  T
   7   -140.0112939 -0.131416E-07  0.490E-04    3.50      25.1  T
     SCC iter.                  ...        0 min,  0.164 sec
     gradient                   ...        0 min,  0.116 sec
 * total energy  :  -138.4173163 Eh     change       -0.9582442E-04 Eh
   gradient norm :     0.0047307 Eh/α   predicted    -0.8910882E-04 (  -7.01%)
   displ. norm   :     0.1424416 α      lambda       -0.1227972E-03
   maximum displ.:     0.0631709 α      in ANC's #2, #10, #3, ...

........................................................................
.............................. CYCLE   33 ..............................
........................................................................
   1   -140.0128100 -0.140013E+03  0.377E-02    3.50       0.0  T
   2   -140.0128111 -0.101135E-05  0.222E-02    3.50       1.0  T
   3   -140.0128105  0.578108E-06  0.390E-03    3.50       3.2  T
   4   -140.0128113 -0.804691E-06  0.130E-03    3.50       9.5  T
   5   -140.0128113 -0.488631E-07  0.786E-04    3.50      15.7  T
   6   -140.0128113 -0.750265E-08  0.488E-04    3.50      25.2  T
     SCC iter.                  ...        0 min,  0.142 sec
     gradient                   ...        0 min,  0.138 sec
 * total energy  :  -138.4174001 Eh     change       -0.8386973E-04 Eh
   gradient norm :     0.0040920 Eh/α   predicted    -0.6264743E-04 ( -25.30%)
   displ. norm   :     0.1571930 α      lambda       -0.7128462E-04
   maximum displ.:     0.0730789 α      in ANC's #2, #10, #3, ...

........................................................................
.............................. CYCLE   34 ..............................
........................................................................
   1   -140.0130964 -0.140013E+03  0.383E-02    3.49       0.0  T
   2   -140.0130972 -0.775010E-06  0.224E-02    3.49       1.0  T
   3   -140.0130966  0.592789E-06  0.368E-03    3.49       3.3  T
   4   -140.0130974 -0.826446E-06  0.110E-03    3.49      11.2  T
   5   -140.0130974 -0.285395E-07  0.731E-04    3.49      16.8  T
   6   -140.0130975 -0.862792E-08  0.439E-04    3.49      28.0  T
     SCC iter.                  ...        0 min,  0.139 sec
     gradient                   ...        0 min,  0.131 sec
 * total energy  :  -138.4174504 Eh     change       -0.5026144E-04 Eh
   gradient norm :     0.0032645 Eh/α   predicted    -0.3652451E-04 ( -27.33%)
   displ. norm   :     0.1332828 α      lambda       -0.4925691E-04
   maximum displ.:     0.0598974 α      in ANC's #2, #10, #3, ...

........................................................................
.............................. CYCLE   35 ..............................
........................................................................
   1   -140.0132096 -0.140013E+03  0.285E-02    3.49       0.0  T
   2   -140.0132103 -0.735777E-06  0.167E-02    3.49       1.0  T
   3   -140.0132095  0.820186E-06  0.408E-03    3.49       3.0  T
   4   -140.0132105 -0.105101E-05  0.114E-03    3.49      10.8  T
   5   -140.0132106 -0.386918E-07  0.774E-04    3.49      15.9  T
   6   -140.0132106 -0.885271E-08  0.528E-04    3.49      23.3  T
     SCC iter.                  ...        0 min,  0.139 sec
     gradient                   ...        0 min,  0.042 sec
 * total energy  :  -138.4174861 Eh     change       -0.3568063E-04 Eh
   gradient norm :     0.0025506 Eh/α   predicted    -0.2506646E-04 ( -29.75%)
   displ. norm   :     0.1247570 α      lambda       -0.3857695E-04
   maximum displ.:     0.0563359 α      in ANC's #2, #10, #3, ...

........................................................................
.............................. CYCLE   36 ..............................
........................................................................
   1   -140.0130634 -0.140013E+03  0.228E-02    3.49       0.0  T
   2   -140.0130640 -0.629909E-06  0.134E-02    3.49       1.0  T
   3   -140.0130633  0.731081E-06  0.391E-03    3.49       3.2  T
   4   -140.0130642 -0.925188E-06  0.973E-04    3.49      12.6  T
   5   -140.0130643 -0.342806E-07  0.642E-04    3.49      19.2  T
     SCC iter.                  ...        0 min,  0.122 sec
     gradient                   ...        0 min,  0.135 sec
 * total energy  :  -138.4175137 Eh     change       -0.2765952E-04 Eh
   gradient norm :     0.0021535 Eh/α   predicted    -0.1959237E-04 ( -29.17%)
   displ. norm   :     0.1073900 α      lambda       -0.2829684E-04
   maximum displ.:     0.0482209 α      in ANC's #2, #7, #3, ...

........................................................................
.............................. CYCLE   37 ..............................
........................................................................
   1   -140.0129819 -0.140013E+03  0.173E-02    3.49       0.0  T
   2   -140.0129821 -0.259558E-06  0.101E-02    3.49       1.2  T
   3   -140.0129817  0.399979E-06  0.281E-03    3.49       4.4  T
   4   -140.0129823 -0.508882E-06  0.650E-04    3.49      18.9  T
   5   -140.0129823 -0.815521E-08  0.465E-04    3.49      26.4  T
     SCC iter.                  ...        0 min,  0.121 sec
     gradient                   ...        0 min,  0.139 sec
 * total energy  :  -138.4175341 Eh     change       -0.2031615E-04 Eh
   gradient norm :     0.0023825 Eh/α   predicted    -0.1431312E-04 ( -29.55%)
   displ. norm   :     0.0939995 α      lambda       -0.2175152E-04
   maximum displ.:     0.0424156 α      in ANC's #2, #7, #1, ...

........................................................................
.............................. CYCLE   38 ..............................
........................................................................
   1   -140.0129939 -0.140013E+03  0.150E-02    3.49       0.0  T
   2   -140.0129941 -0.161734E-06  0.879E-03    3.49       1.4  T
   3   -140.0129938  0.338567E-06  0.238E-03    3.49       5.2  T
   4   -140.0129942 -0.423299E-06  0.472E-04    3.49      26.1  T
   5   -140.0129942 -0.341569E-08  0.332E-04    3.49      37.1  T
     SCC iter.                  ...        0 min,  0.117 sec
     gradient                   ...        0 min,  0.127 sec
 * total energy  :  -138.4175497 Eh     change       -0.1566356E-04 Eh
   gradient norm :     0.0022434 Eh/α   predicted    -0.1097403E-04 ( -29.94%)
   displ. norm   :     0.0870472 α      lambda       -0.1810491E-04
   maximum displ.:     0.0412774 α      in ANC's #2, #1, #3, ...

........................................................................
.............................. CYCLE   39 ..............................
........................................................................
   1   -140.0130034 -0.140013E+03  0.147E-02    3.50       0.0  T
   2   -140.0130036 -0.268795E-06  0.857E-03    3.50       1.4  T
   3   -140.0130033  0.356608E-06  0.268E-03    3.50       4.6  T
   4   -140.0130037 -0.463042E-06  0.693E-04    3.50      17.8  T
   5   -140.0130037 -0.116863E-07  0.507E-04    3.50      24.3  T
     SCC iter.                  ...        0 min,  0.115 sec
     gradient                   ...        0 min,  0.115 sec
 * total energy  :  -138.4175629 Eh     change       -0.1316072E-04 Eh
   gradient norm :     0.0016681 Eh/α   predicted    -0.9121537E-05 ( -30.69%)
   displ. norm   :     0.1237249 α      lambda       -0.1539041E-04
   maximum displ.:     0.0626029 α      in ANC's #1, #2, #3, ...

........................................................................
.............................. CYCLE   40 ..............................
........................................................................
   1   -140.0129633 -0.140013E+03  0.220E-02    3.50       0.0  T
   2   -140.0129640 -0.755360E-06  0.129E-02    3.50       1.0  T
   3   -140.0129632  0.857947E-06  0.439E-03    3.50       2.8  T
   4   -140.0129643 -0.113193E-05  0.121E-03    3.50      10.2  T
   5   -140.0129643 -0.381128E-07  0.876E-04    3.50      14.0  T
   6   -140.0129644 -0.114224E-07  0.594E-04    3.50      20.7  T
     SCC iter.                  ...        0 min,  0.139 sec
     gradient                   ...        0 min,  0.111 sec
 * total energy  :  -138.4175769 Eh     change       -0.1399773E-04 Eh
   gradient norm :     0.0014831 Eh/α   predicted    -0.7750153E-05 ( -44.63%)
   displ. norm   :     0.0641898 α      lambda       -0.8770243E-05
   maximum displ.:     0.0379869 α      in ANC's #1, #2, #3, ...

........................................................................
.............................. CYCLE   41 ..............................
........................................................................
   1   -140.0129941 -0.140013E+03  0.113E-02    3.49       0.0  T
   2   -140.0129942 -0.112231E-06  0.660E-03    3.49       1.9  T
   3   -140.0129940  0.207937E-06  0.189E-03    3.50       6.5  T
   4   -140.0129943 -0.259687E-06  0.490E-04    3.50      25.1  T
   5   -140.0129943 -0.457231E-08  0.361E-04    3.50      34.1  T
     SCC iter.                  ...        0 min,  0.115 sec
     gradient                   ...        0 min,  0.133 sec
 * total energy  :  -138.4175869 Eh     change       -0.1000748E-04 Eh
   gradient norm :     0.0014899 Eh/α   predicted    -0.4396297E-05 ( -56.07%)
   displ. norm   :     0.0935181 α      lambda       -0.1135533E-04
   maximum displ.:     0.0558448 α      in ANC's #1, #2, #3, ...

........................................................................
.............................. CYCLE   42 ..............................
........................................................................
   1   -140.0130004 -0.140013E+03  0.151E-02    3.49       0.0  T
   2   -140.0130007 -0.210626E-06  0.883E-03    3.49       1.4  T
   3   -140.0130003  0.343986E-06  0.246E-03    3.50       5.0  T
   4   -140.0130007 -0.427854E-06  0.531E-04    3.50      23.2  T
   5   -140.0130008 -0.780221E-08  0.344E-04    3.50      35.8  T
     SCC iter.                  ...        0 min,  0.117 sec
     gradient                   ...        0 min,  0.133 sec
 * total energy  :  -138.4175984 Eh     change       -0.1154534E-04 Eh
   gradient norm :     0.0015877 Eh/α   predicted    -0.5703284E-05 ( -50.60%)
   displ. norm   :     0.1003968 α      lambda       -0.8610738E-05
   maximum displ.:     0.0623163 α      in ANC's #1, #2, #3, ...
 * RMSD in coord.:     0.5131539 α      energy gain  -0.5311829E-02 Eh

generating ANC from model Hessian ...
Using Lindh-Hessian (1995)
 Shifting diagonal of input Hessian by    9.8402963916349000E-003
 Lowest  eigenvalues of input Hessian
    0.000000    0.000000    0.000000    0.000000    0.000000    0.000000
    0.010000    0.010224    0.010361    0.010482    0.010559    0.010688
    0.010756    0.011000    0.011084    0.011431    0.011910    0.012606
 Highest eigenvalues
    2.030202    2.043000    2.044511    2.344803    2.349168    2.411639


........................................................................
.............................. CYCLE   43 ..............................
........................................................................
   1   -140.0129943 -0.140013E+03  0.145E-02    3.49       0.0  T
   2   -140.0129945 -0.197075E-06  0.850E-03    3.49       1.4  T
   3   -140.0129940  0.465190E-06  0.279E-03    3.49       4.4  T
   4   -140.0129946 -0.571581E-06  0.505E-04    3.49      24.4  T
   5   -140.0129946 -0.536411E-08  0.348E-04    3.49      35.4  T
     SCC iter.                  ...        0 min,  0.117 sec
     gradient                   ...        0 min,  0.114 sec
 * total energy  :  -138.4176087 Eh     change       -0.1024656E-04 Eh
   gradient norm :     0.0014765 Eh/α   predicted     0.0000000E+00 (-100.00%)
   displ. norm   :     0.0208153 α      lambda       -0.5360228E-05
   maximum displ.:     0.0131358 α      in ANC's #1, #2, #3, ...

........................................................................
.............................. CYCLE   44 ..............................
........................................................................
   1   -140.0131225 -0.140013E+03  0.583E-03    3.50       0.0  T
   2   -140.0131226 -0.906660E-07  0.344E-03    3.50       3.6  T
   3   -140.0131226  0.378021E-07  0.121E-03    3.50      10.2  T
   4   -140.0131226 -0.559164E-07  0.409E-04    3.50      30.1  T
   5   -140.0131226 -0.501907E-08  0.281E-04    3.50      43.8  T
     SCC iter.                  ...        0 min,  0.118 sec
     gradient                   ...        0 min,  0.138 sec
 * total energy  :  -138.4176139 Eh     change       -0.5261730E-05 Eh
   gradient norm :     0.0006069 Eh/α   predicted    -0.2682871E-05 ( -49.01%)
   displ. norm   :     0.0349464 α      lambda       -0.4243154E-05
   maximum displ.:     0.0236947 α      in ANC's #1, #2, #3, ...

........................................................................
.............................. CYCLE   45 ..............................
........................................................................
   1   -140.0131429 -0.140013E+03  0.620E-03    3.50       0.0  T
   2   -140.0131430 -0.883708E-07  0.365E-03    3.50       3.4  T
   3   -140.0131429  0.468959E-07  0.124E-03    3.50       9.9  T
   4   -140.0131430 -0.671624E-07  0.409E-04    3.50      30.1  T
   5   -140.0131430 -0.440838E-08  0.269E-04    3.50      45.8  T
     SCC iter.                  ...        0 min,  0.121 sec
     gradient                   ...        0 min,  0.129 sec
 * total energy  :  -138.4176181 Eh     change       -0.4196907E-05 Eh
   gradient norm :     0.0006660 Eh/α   predicted    -0.2124560E-05 ( -49.38%)
   displ. norm   :     0.0396841 α      lambda       -0.2917651E-05
   maximum displ.:     0.0269570 α      in ANC's #1, #2, #3, ...

   *** GEOMETRY OPTIMIZATION CONVERGED AFTER 45 ITERATIONS ***

------------------------------------------------------------------------
 total energy gain   :        -0.0366788 Eh      -23.0163 kcal/mol
 total RMSD          :         1.2430142 a0        0.6578 Å
 total power (kW/mol):        -2.1400029 (step)   -4.4825 (real)
------------------------------------------------------------------------

 ANCopt (total)                0 d,  0 h,  0 min, 21.483 sec
 optimizer setup                ...        0 min,  0.000 sec (  0.002%)
 model hessian                  ...        0 min,  0.120 sec (  0.558%)
 ANC generation                 ...        0 min,  0.033 sec (  0.155%)
 coordinate transformation      ...        0 min,  0.004 sec (  0.017%)
 single point calculation       ...        0 min, 20.839 sec ( 97.000%)
 optimization log               ...        0 min,  0.038 sec (  0.177%)
 hessian update                 ...        0 min,  0.396 sec (  1.841%)
 rational function              ...        0 min,  0.032 sec (  0.148%)

================
 final structure:
================
66
 xtb: 6.3.3 (4ae9cef)
C         2.74936803631635   -2.64286853060813   -0.80579137719739
C         1.94079340262356   -3.41098895079988   -1.81379851365812
F         2.57816958328729   -4.48852883271949   -2.28613072581280
F         1.58828607064142   -2.69007486346432   -2.89182875752100
F         0.77984414542001   -3.87419565647412   -1.29415469118979
C         4.02272829962562   -3.09936617030060   -0.48818089044028
C         4.78633457632251   -2.43709551323351    0.45338140334745
C         4.27567728081068   -1.31877423637387    1.08837344194492
C         3.00926745425744   -0.86701800089295    0.77444505804638
C         2.22974182794675   -1.51073823038105   -0.17966997988249
C         0.85099663589089   -0.97102761602080   -0.46296917008577
C        -0.10945004405615   -1.18587140893006    0.72370927935993
C        -1.04429776421910   -2.34986534123009    0.51331424317834
C        -0.96453927773840   -3.53003922320634    1.25257702337324
C         0.10068275942502   -3.72390727479500    2.29451556931764
F         0.05937605290778   -4.92966847892316    2.87198824824873
F         1.34903049234052   -3.61084304660260    1.77947459186378
F         0.05169233661317   -2.83292890050314    3.30127095294837
C        -1.85860906181381   -4.56707253615713    1.01712852259653
C        -2.83373985558661   -4.43974557454237    0.04658273080891
C        -2.90994527942609   -3.27886729626751   -0.70217156489183
C        -2.01970555588332   -2.24826898192337   -0.47111818842403
N        -0.84402286509447    0.07378106236352    0.80122263750248
C        -1.91494623512092    0.20619243508452    1.62848342142814
C        -2.52842568192711    1.57495932247203    1.62701833091357
C        -3.67849901798524    1.82166144950876    0.88704520612042
Cl       -4.33742345702585    0.55343397597155   -0.08438086060138
C        -4.28559210395580    3.06560005902632    0.90555973169562
C        -3.73988063838174    4.07271395894960    1.68110876276533
C        -2.60210732002791    3.83816211950057    2.43463721758885
C        -2.00016006607996    2.59328754732960    2.40952735066825
O        -2.33143296539018   -0.70732713863108    2.30148604590751
C        -0.22962760772746    1.12788450068475    0.03293784074300
C        -1.20683893011717    1.72986688197075   -1.00572929231252
O        -1.64878180217979    0.80877565819301   -1.84361187774327
O        -1.50094943463377    2.89121769677929   -1.04389569015591
N         0.88680720467613    0.48066761230081   -0.61104316514539
C         1.76796892291329    1.07172611038500   -1.46408181543686
C         1.61482483215622    2.55965320783609   -1.57552849273068
C         2.10032250665225    3.40095562764296   -0.58302964866221
C         1.99732047048882    4.77356616511264   -0.71888367907384
C         1.40988817745592    5.31540111687945   -1.85011198375641
C         0.92976586166172    4.49154158496086   -2.85198812304395
C         1.03976886649518    3.11868232436496   -2.71077147884237
Cl        0.43437960826636    2.07337837994883   -3.94493797224550
O         2.62004548434687    0.44685055303606   -2.05058574737415
H         4.41266808611086   -3.97592614181319   -0.98116446474762
H         5.77492983104508   -2.79661635444173    0.69171347297661
H         4.86296418072005   -0.79914788041124    1.83014305953124
H         2.61403761826283    0.00730032067975    1.27088635875417
H         0.42716843465037   -1.40687231281869   -1.37342052420428
H         0.46343079855639   -1.30441430510313    1.64974078188273
H        -1.78817054699832   -5.47351920088290    1.59765223707466
H        -3.52750376403475   -5.24778695066768   -0.12517028751645
H        -3.66372093123815   -3.17355041471451   -1.46754558603785
H        -2.08388652082326   -1.34373753494306   -1.05595980387438
H        -5.17253968290066    3.23783749753334    0.31694116229477
H        -4.20866288041122    5.04429260626495    1.69677553748854
H        -2.18338665142121    4.62452256864694    3.04334860683313
H        -1.12171286453444    2.39812699387838    3.00711168594392
H         0.10430738056256    1.96469547651583    0.67058497836151
H        -2.23803700775963    1.18966979898834   -2.51694282553365
H         2.57065791968835    2.97135951820394    0.28940970830453
H         2.37680305698888    5.41984990938131    0.05733688703244
H         1.32568108815780    6.38588207091965   -1.95635022129863
H         0.47086553019323    4.90315578746074   -3.73648468741157

 Bond Distances (Angstroems)
 ---------------------------
C1-C2=1.5033         C1-C6=1.3895         C1-C10=1.3942        C2-C1=1.5033         C2-F3=1.3381         C2-F4=1.3439         
C2-F5=1.3537         F3-C2=1.3381         F4-C2=1.3439         F5-C2=1.3537         C6-C1=1.3895         C6-C7=1.3814         
C6-H47=1.0786        C7-C6=1.3814         C7-C8=1.3837         C7-H48=1.0786        C8-C7=1.3837         C8-C9=1.3807         
C8-H49=1.0794        C9-C8=1.3807         C9-C10=1.3901        C9-H50=1.0803        C10-C1=1.3942        C10-C9=1.3901        
C10-C11=1.5075       C11-C10=1.5075       C11-C12=1.5417       C11-N37=1.4597       C11-H51=1.0948       C12-C11=1.5417       
C12-C13=1.5077       C12-N23=1.4602       C12-H52=1.0953       C13-C12=1.5077       C13-C14=1.3949       C13-C22=1.3896       
C14-C13=1.3949       C14-C15=1.5026       C14-C19=1.3893       C15-C14=1.5026       C15-F16=1.3376       C15-F17=1.3551       
C15-F18=1.3453       F16-C15=1.3376       F17-C15=1.3551       F18-C15=1.3453       C19-C14=1.3893       C19-C20=1.3817       
C19-H53=1.0787       C20-C19=1.3817       C20-C21=1.3835       C20-H54=1.0788       C21-C20=1.3835       C21-C22=1.3813       
C21-H55=1.0794       C22-C13=1.3896       C22-C21=1.3813       C22-H56=1.0790       N23-C12=1.4602       N23-C24=1.3597       
N23-C33=1.4418       C24-N23=1.3597       C24-C25=1.5000       C24-O32=1.2087       C25-C24=1.5000       C25-C26=1.3896       
C25-C31=1.3887       C26-C25=1.3896       C26-Cl27=1.7281      C26-C28=1.3843       Cl27-C26=1.7281      C28-C26=1.3843       
C28-C29=1.3833       C28-H57=1.0783       C29-C28=1.3833       C29-C30=1.3847       C29-H58=1.0789       C30-C29=1.3847       
C30-C31=1.3830       C30-H59=1.0790       C31-C25=1.3887       C31-C30=1.3830       C31-H60=1.0802       O32-C24=1.2087       
C33-N23=1.4418       C33-C34=1.5480       C33-N37=1.4422       C33-H61=1.1038       C34-C33=1.5480       C34-O35=1.3213       
C34-O36=1.1986       O35-C34=1.3213       O35-H62=0.9725       O36-C34=1.1986       N37-C11=1.4597       N37-C33=1.4422       
N37-C38=1.3614       C38-N37=1.3614       C38-C39=1.4999       C38-O46=1.2085       C39-C38=1.4999       C39-C40=1.3887       
C39-C44=1.3900       C40-C39=1.3887       C40-C41=1.3832       C40-H63=1.0802       C41-C40=1.3832       C41-C42=1.3850       
C41-H64=1.0790       C42-C41=1.3850       C42-C43=1.3831       C42-H65=1.0790       C43-C42=1.3831       C43-C44=1.3845       
C43-H66=1.0781       C44-C39=1.3900       C44-C43=1.3845       C44-Cl45=1.7269      Cl45-C44=1.7269      O46-C38=1.2085       
H47-C6=1.0786        H48-C7=1.0786        H49-C8=1.0794        H50-C9=1.0803        H51-C11=1.0948       H52-C12=1.0953       
H53-C19=1.0787       H54-C20=1.0788       H55-C21=1.0794       H56-C22=1.0790       H57-C28=1.0783       H58-C29=1.0789       
H59-C30=1.0790       H60-C31=1.0802       H61-C33=1.1038       H62-O35=0.9725       H63-C40=1.0802       H64-C41=1.0790       
H65-C42=1.0790       H66-C43=1.0781       
 C  H  Rav=1.0821 sigma=0.0071  Rmin=1.0781  Rmax=1.1038    19
 C  C  Rav=1.4181 sigma=0.0561  Rmin=1.3807  Rmax=1.5480    32
 N  C  Rav=1.4208 sigma=0.0433  Rmin=1.3597  Rmax=1.4602     6
 O  H  Rav=0.9725 sigma=0.0000  Rmin=0.9725  Rmax=0.9725     1
 O  C  Rav=1.2343 sigma=0.0504  Rmin=1.1986  Rmax=1.3213     4
 F  C  Rav=1.3456 sigma=0.0068  Rmin=1.3376  Rmax=1.3551     6
 Cl C  Rav=1.7275 sigma=0.0006  Rmin=1.7269  Rmax=1.7281     2

 selected bond angles (degree)
 --------------------
C6-C1-C2=118.58                C10-C1-C2=121.04               C10-C1-C6=120.38               F3-C2-C1=113.08                
F4-C2-C1=113.88                F4-C2-F3=105.89                F5-C2-C1=112.26                F5-C2-F3=105.57                
F5-C2-F4=105.46                C7-C6-C1=120.32                H47-C6-C1=119.59               H47-C6-C7=120.09               
C8-C7-C6=119.75                H48-C7-C6=119.83               H48-C7-C8=120.41               C9-C8-C7=119.91                
H49-C8-C7=120.24               H49-C8-C9=119.85               C10-C9-C8=121.26               H50-C9-C8=119.73               
H50-C9-C10=119.01              C9-C10-C1=118.38               C11-C10-C1=123.18              C11-C10-C9=118.43              

 selected dihedral angles (degree)
 ---------------------------------
F3-C2-C1-C6=  0.54            F3-C2-C1-C10=181.77           F4-C2-C1-C6=239.60            F4-C2-C1-C10= 60.83           
F5-C2-C1-C6=119.86            F5-C2-C1-C10=301.09           C7-C6-C1-C2=181.33            C7-C6-C1-C10=  0.11           
H47-C6-C1-C2=  1.29           H47-C6-C1-C10=180.07          C8-C7-C6-C1=  0.41            C8-C7-C6-H47=180.45           
H48-C7-C6-C1=180.18           H48-C7-C6-H47=  0.23          C9-C8-C7-C6=359.72            C9-C8-C7-H48=179.95           
H49-C8-C7-C6=179.59           H49-C8-C7-H48=359.82          C10-C9-C8-C7=359.62           C10-C9-C8-H49=179.75          
H50-C9-C8-C7=180.09           H50-C9-C8-H49=  0.23          C9-C10-C1-C2=178.00           C9-C10-C1-C6=359.26           
C11-C10-C1-C2=359.54          C11-C10-C1-C6=180.80          C1-C10-C9-C8=  0.88           C1-C10-C9-H50=180.41          
C11-C10-C9-C8=179.42          C11-C10-C9-H50=358.95         
           -------------------------------------------------
          |                Final Singlepoint                |
           -------------------------------------------------

          ...................................................
          :                      SETUP                      :
          :.................................................:
          :  # basis functions                 216          :
          :  # atomic orbitals                 214          :
          :  # shells                          114          :
          :  # electrons                       238          :
          :  max. iterations                   250          :
          :  Hamiltonian                  GFN2-xTB          :
          :  restarted?                      false          :
          :  GBSA solvation                  false          :
          :  PC potential                    false          :
          :  electronic temp.          300.0000000     K    :
          :  accuracy                    1.0000000          :
          :  -> integral cutoff          0.2500000E+02      :
          :  -> integral neglect         0.1000000E-07      :
          :  -> SCF convergence          0.1000000E-05 Eh   :
          :  -> wf. convergence          0.1000000E-03 e    :
          :  Broyden damping             0.4000000          :
          ...................................................

 iter      E             dE          RMSdq      gap      omega  full diag
   1   -140.0131430 -0.140013E+03  0.194E-04    3.50       0.0  T
   2   -140.0131430 -0.396000E-09  0.164E-04    3.50      75.2  T
   3   -140.0131430 -0.246445E-09  0.135E-04    3.50      91.1  T

   *** convergence criteria satisfied after 3 iterations ***

         #    Occupation            Energy/Eh            Energy/eV
      -------------------------------------------------------------
         1        2.0000           -1.0703844             -29.1266
       ...           ...                  ...                  ...
       113        2.0000           -0.4301790             -11.7058
       114        2.0000           -0.4272798             -11.6269
       115        2.0000           -0.4164407             -11.3319
       116        2.0000           -0.4156540             -11.3105
       117        2.0000           -0.4142684             -11.2728
       118        2.0000           -0.4116925             -11.2027
       119        2.0000           -0.4104928             -11.1701 (HOMO)
       120                         -0.2820388              -7.6747 (LUMO)
       121                         -0.2648491              -7.2069
       122                         -0.2618404              -7.1250
       123                         -0.2592532              -7.0546
       124                         -0.2582863              -7.0283
       ...                                ...                  ...
       214                          0.6406286              17.4324
      -------------------------------------------------------------
                  HL-Gap            0.1284540 Eh            3.4954 eV
             Fermi-level           -0.3462658 Eh           -9.4224 eV

 SCC (total)                   0 d,  0 h,  0 min,  0.385 sec
 SCC setup                      ...        0 min,  0.014 sec (  3.624%)
 Dispersion                     ...        0 min,  0.013 sec (  3.321%)
 classical contributions        ...        0 min,  0.020 sec (  5.175%)
 integral evaluation            ...        0 min,  0.137 sec ( 35.470%)
 iterations                     ...        0 min,  0.070 sec ( 18.245%)
 molecular gradient             ...        0 min,  0.128 sec ( 33.333%)
 printout                       ...        0 min,  0.003 sec (  0.809%)

         :::::::::::::::::::::::::::::::::::::::::::::::::::::
         ::                     SUMMARY                     ::
         :::::::::::::::::::::::::::::::::::::::::::::::::::::
         :: total energy            -138.417618134543 Eh    ::
         :: gradient norm              0.000663166374 Eh/a0 ::
         :: HOMO-LUMO gap              3.495411039257 eV    ::
         ::.................................................::
         :: SCC energy              -140.013143001523 Eh    ::
         :: -> isotropic ES            0.209208534974 Eh    ::
         :: -> anisotropic ES         -0.006613705818 Eh    ::
         :: -> anisotropic XC         -0.001104981682 Eh    ::
         :: -> dispersion             -0.106380946492 Eh    ::
         :: repulsion energy           1.591266637666 Eh    ::
         :: add. restraining           0.000000000000 Eh    ::
         :: total charge              -0.000000000000 e     ::
         :::::::::::::::::::::::::::::::::::::::::::::::::::::

           -------------------------------------------------
          |                Property Printout                |
           -------------------------------------------------

    * Orbital Energies and Occupations

         #    Occupation            Energy/Eh            Energy/eV
      -------------------------------------------------------------
         1        2.0000           -1.0703844             -29.1266
       ...           ...                  ...                  ...
       107        2.0000           -0.4383300             -11.9276
       108        2.0000           -0.4375791             -11.9071
       109        2.0000           -0.4364282             -11.8758
       110        2.0000           -0.4351655             -11.8415
       111        2.0000           -0.4329978             -11.7825
       112        2.0000           -0.4322742             -11.7628
       113        2.0000           -0.4301790             -11.7058
       114        2.0000           -0.4272798             -11.6269
       115        2.0000           -0.4164407             -11.3319
       116        2.0000           -0.4156540             -11.3105
       117        2.0000           -0.4142684             -11.2728
       118        2.0000           -0.4116925             -11.2027
       119        2.0000           -0.4104928             -11.1701 (HOMO)
       120                         -0.2820388              -7.6747 (LUMO)
       121                         -0.2648491              -7.2069
       122                         -0.2618404              -7.1250
       123                         -0.2592532              -7.0546
       124                         -0.2582863              -7.0283
       125                         -0.2557952              -6.9605
       126                         -0.2553578              -6.9486
       127                         -0.2544779              -6.9247
       128                         -0.2491684              -6.7802
       129                         -0.2362549              -6.4288
       130                         -0.2322324              -6.3194
       ...                                ...                  ...
       214                          0.6406286              17.4324
      -------------------------------------------------------------
                  HL-Gap            0.1284540 Eh            3.4954 eV
             Fermi-level           -0.3462658 Eh           -9.4224 eV

     #   Z          covCN         q      C6AA      α(0)
     1   6 C        2.977    -0.021    28.515     8.759
     2   6 C        3.335     0.486    17.291     6.586
     3   9 F        0.792    -0.199    11.225     3.958
     4   9 F        0.791    -0.203    11.269     3.965
     5   9 F        0.791    -0.223    11.474     4.001
     6   6 C        2.923    -0.017    28.438     8.745
     7   6 C        2.921    -0.020    28.495     8.754
     8   6 C        2.919    -0.016    28.405     8.740
     9   6 C        2.928    -0.022    28.560     8.764
    10   6 C        2.973     0.026    27.420     8.589
    11   6 C        3.822     0.048    19.762     6.326
    12   6 C        3.822     0.048    19.754     6.325
    13   6 C        2.972     0.025    27.445     8.593
    14   6 C        2.976    -0.022    28.550     8.765
    15   6 C        3.335     0.486    17.296     6.587
    16   9 F        0.792    -0.199    11.224     3.957
    17   9 F        0.791    -0.225    11.500     4.006
    18   9 F        0.791    -0.206    11.294     3.970
    19   6 C        2.923    -0.018    28.460     8.749
    20   6 C        2.920    -0.020    28.498     8.754
    21   6 C        2.919    -0.014    28.374     8.735
    22   6 C        2.927    -0.025    28.618     8.773
    23   7 N        2.766    -0.112    23.451     7.192
    24   6 C        2.762     0.279    22.275     7.729
    25   6 C        3.013    -0.029    28.714     8.790
    26   6 C        2.893     0.100    25.793     8.327
    27  17 Cl       0.968    -0.169   104.446    15.635
    28   6 C        2.953    -0.032    28.801     8.802
    29   6 C        2.923    -0.020    28.507     8.756
    30   6 C        2.918    -0.026    28.661     8.779
    31   6 C        2.925    -0.025    28.632     8.775
    32   8 O        0.859    -0.399    21.667     6.241
    33   6 C        3.748     0.088    19.191     6.248
    34   6 C        2.687     0.352    21.017     7.503
    35   8 O        1.659    -0.340    19.714     5.994
    36   8 O        0.856    -0.390    21.482     6.214
    37   7 N        2.767    -0.113    23.465     7.194
    38   6 C        2.762     0.279    22.273     7.729
    39   6 C        3.013    -0.030    28.727     8.792
    40   6 C        2.925    -0.027    28.670     8.781
    41   6 C        2.918    -0.028    28.704     8.786
    42   6 C        2.923    -0.021    28.528     8.759
    43   6 C        2.953    -0.032    28.785     8.800
    44   6 C        2.892     0.102    25.741     8.318
    45  17 Cl       0.969    -0.164   104.292    15.624
    46   8 O        0.859    -0.398    21.643     6.237
    47   1 H        0.926     0.071     2.078     2.254
    48   1 H        0.926     0.060     2.201     2.320
    49   1 H        0.926     0.056     2.242     2.342
    50   1 H        0.926     0.044     2.394     2.420
    51   1 H        0.924     0.072     2.058     2.244
    52   1 H        0.924     0.066     2.131     2.283
    53   1 H        0.926     0.068     2.102     2.267
    54   1 H        0.926     0.058     2.220     2.330
    55   1 H        0.926     0.056     2.243     2.342
    56   1 H        0.926     0.064     2.157     2.296
    57   1 H        0.926     0.068     2.110     2.271
    58   1 H        0.926     0.058     2.217     2.329
    59   1 H        0.926     0.055     2.259     2.350
    60   1 H        0.926     0.047     2.354     2.399
    61   1 H        0.923     0.063     2.165     2.301
    62   1 H        0.804     0.353     0.581     1.197
    63   1 H        0.926     0.045     2.386     2.416
    64   1 H        0.926     0.054     2.271     2.357
    65   1 H        0.926     0.058     2.222     2.331
    66   1 H        0.926     0.069     2.096     2.264

 Mol. C6AA /au·bohr⁶  :      67531.428165
 Mol. C8AA /au·bohr⁸  :    1736005.724293
 Mol. α(0) /au        :        403.719278


Wiberg/Mayer (AO) data.
largest (>0.10) Wiberg bond orders for each atom

 ---------------------------------------------------------------------------
     #   Z sym  total        # sym  WBO       # sym  WBO       # sym  WBO
 ---------------------------------------------------------------------------
     1   6 C    3.971 --     6 C    1.412    10 C    1.388     2 C    0.952
                             8 C    0.105
     2   6 C    3.822 --     3 F    0.957     1 C    0.952     4 F    0.946
                             5 F    0.929
     3   9 F    1.080 --     2 C    0.957
     4   9 F    1.077 --     2 C    0.946
     5   9 F    1.056 --     2 C    0.929
     6   6 C    3.986 --     7 C    1.444     1 C    1.412    47 H    0.965
                             9 C    0.109
     7   6 C    3.988 --     6 C    1.444     8 C    1.432    48 H    0.969
                            10 C    0.109
     8   6 C    3.990 --     9 C    1.450     7 C    1.432    49 H    0.969
                             1 C    0.105
     9   6 C    3.990 --     8 C    1.450    10 C    1.408    50 H    0.967
                             6 C    0.109
    10   6 C    3.986 --     9 C    1.408     1 C    1.388    11 C    0.994
                             7 C    0.109
    11   6 C    3.964 --    10 C    0.994    12 C    0.953    37 N    0.953
                            51 H    0.951
    12   6 C    3.964 --    13 C    0.993    11 C    0.953    23 N    0.952
                            52 H    0.952
    13   6 C    3.986 --    22 C    1.411    14 C    1.385    12 C    0.993
                            20 C    0.108
    14   6 C    3.970 --    19 C    1.413    13 C    1.385    15 C    0.952
                            21 C    0.105
    15   6 C    3.820 --    16 F    0.958    14 C    0.952    18 F    0.944
                            17 F    0.927
    16   9 F    1.081 --    15 C    0.958
    17   9 F    1.053 --    15 C    0.927
    18   9 F    1.075 --    15 C    0.944
    19   6 C    3.987 --    20 C    1.443    14 C    1.413    53 H    0.965
                            22 C    0.109
    20   6 C    3.989 --    19 C    1.443    21 C    1.434    54 H    0.969
                            13 C    0.108
    21   6 C    3.990 --    22 C    1.447    20 C    1.434    55 H    0.969
                            14 C    0.105
    22   6 C    3.988 --    21 C    1.447    13 C    1.411    56 H    0.961
                            19 C    0.109
    23   7 N    3.458 --    24 C    1.201    33 C    0.987    12 C    0.952
                            32 O    0.195
    24   6 C    3.948 --    32 O    1.714    23 N    1.201    25 C    0.950
    25   6 C    3.985 --    31 C    1.405    26 C    1.376    24 C    0.950
                            29 C    0.108
    26   6 C    3.921 --    28 C    1.405    25 C    1.376    27 Cl   0.976
                            30 C    0.100
    27  17 Cl   1.118 --    26 C    0.976
    28   6 C    3.987 --    29 C    1.441    26 C    1.405    57 H    0.965
                            31 C    0.109
    29   6 C    3.990 --    28 C    1.441    30 C    1.433    58 H    0.968
                            25 C    0.108
    30   6 C    3.991 --    31 C    1.442    29 C    1.433    59 H    0.968
                            26 C    0.100
    31   6 C    3.989 --    30 C    1.442    25 C    1.405    60 H    0.968
                            28 C    0.109
    32   8 O    2.049 --    24 C    1.714    23 N    0.195
    33   6 C    3.970 --    37 N    0.987    23 N    0.987    61 H    0.944
                            34 C    0.902
    34   6 C    3.924 --    36 O    1.774    35 O    1.180    33 C    0.902
    35   8 O    2.249 --    34 C    1.180    62 H    0.847    36 O    0.189
    36   8 O    2.060 --    34 C    1.774    35 O    0.189
    37   7 N    3.456 --    38 C    1.197    33 C    0.987    11 C    0.953
                            46 O    0.192
    38   6 C    3.948 --    46 O    1.716    37 N    1.197    39 C    0.952
    39   6 C    3.985 --    40 C    1.404    44 C    1.376    38 C    0.952
                            42 C    0.108
    40   6 C    3.990 --    41 C    1.442    39 C    1.404    63 H    0.968
                            43 C    0.109
    41   6 C    3.991 --    40 C    1.442    42 C    1.432    64 H    0.969
                            44 C    0.100
    42   6 C    3.990 --    43 C    1.442    41 C    1.432    65 H    0.968
                            39 C    0.108
    43   6 C    3.987 --    42 C    1.442    44 C    1.404    66 H    0.965
                            40 C    0.109
    44   6 C    3.922 --    43 C    1.404    39 C    1.376    45 Cl   0.980
                            41 C    0.100
    45  17 Cl   1.123 --    44 C    0.980
    46   8 O    2.050 --    38 C    1.716    37 N    0.192
    47   1 H    0.995 --     6 C    0.965
    48   1 H    0.996 --     7 C    0.969
    49   1 H    0.996 --     8 C    0.969
    50   1 H    0.998 --     9 C    0.967
    51   1 H    0.994 --    11 C    0.951
    52   1 H    0.995 --    12 C    0.952
    53   1 H    0.995 --    19 C    0.965
    54   1 H    0.996 --    20 C    0.969
    55   1 H    0.996 --    21 C    0.969
    56   1 H    0.996 --    22 C    0.961
    57   1 H    0.995 --    28 C    0.965
    58   1 H    0.996 --    29 C    0.968
    59   1 H    0.996 --    30 C    0.968
    60   1 H    0.998 --    31 C    0.968
    61   1 H    0.996 --    33 C    0.944
    62   1 H    0.875 --    35 O    0.847
    63   1 H    0.998 --    40 C    0.968
    64   1 H    0.996 --    41 C    0.969
    65   1 H    0.996 --    42 C    0.968
    66   1 H    0.995 --    43 C    0.965
 ---------------------------------------------------------------------------

Topologies differ in total number of bonds
Writing topology from bond orders to xtbtopo.mol

molecular dipole:
                 x           y           z       tot (Debye)
 q only:       -0.111       2.489       0.497
   full:       -0.241       2.446       0.322       6.300
molecular quadrupole (traceless):
                xx          xy          yy          xz          yz          zz
 q only:       10.038       1.538      17.289      19.999       8.621     -27.327
  q+dip:        9.869       2.222      14.280      29.382      10.008     -24.149
   full:       11.086       3.740      11.284      23.343       9.519     -22.371

           -------------------------------------------------
          |                Geometry Summary                 |
           -------------------------------------------------

      molecular mass/u    :      681.4096840
   center of mass at/Å    :       -0.0757694      -0.3217077      -0.1852774
  moments of inertia/u·Å² :        0.5578204E+04   0.7605149E+04   0.1014465E+05
rotational constants/cm⁻¹ :        0.3022054E-02   0.2216608E-02   0.1661726E-02

 * 63 selected distances

     #   Z          #   Z                                           value/Å
     2   6 C        3   9 F                                       1.3380726
     2   6 C        4   9 F                                       1.3439225
     2   6 C        5   9 F                                       1.3536592
     1   6 C        6   6 C                                       1.3895009
     6   6 C        7   6 C                                       1.3813893
     7   6 C        8   6 C                                       1.3837009
     8   6 C        9   6 C                                       1.3807348
     1   6 C       10   6 C                                       1.3941874
     9   6 C       10   6 C                                       1.3900976
    11   6 C       12   6 C                                       1.5416943
    13   6 C       14   6 C                                       1.3948768
    15   6 C       16   9 F                                       1.3375504
    15   6 C       17   9 F                                       1.3551468
    15   6 C       18   9 F                                       1.3452877
    14   6 C       19   6 C                                       1.3893289
    19   6 C       20   6 C                                       1.3816842
    20   6 C       21   6 C                                       1.3835023
    13   6 C       22   6 C                                       1.3895501
    21   6 C       22   6 C                                       1.3813201
    12   6 C       23   7 N                                       1.4602499
    23   7 N       24   6 C                                       1.3596948
    25   6 C       26   6 C                                       1.3896369
    26   6 C       27  17 Cl                                      1.7280772 (max)
    26   6 C       28   6 C                                       1.3843006
    28   6 C       29   6 C                                       1.3833133
    29   6 C       30   6 C                                       1.3846833
    25   6 C       31   6 C                                       1.3886603
    30   6 C       31   6 C                                       1.3829981
    24   6 C       32   8 O                                       1.2086818
    23   7 N       33   6 C                                       1.4418312
    34   6 C       35   8 O                                       1.3212758
    34   6 C       36   8 O                                       1.1986214
    11   6 C       37   7 N                                       1.4596669
    33   6 C       37   7 N                                       1.4422302
    37   7 N       38   6 C                                       1.3614224
    39   6 C       40   6 C                                       1.3887230
    40   6 C       41   6 C                                       1.3831578
    41   6 C       42   6 C                                       1.3850413
    42   6 C       43   6 C                                       1.3831189
    39   6 C       44   6 C                                       1.3899567
    43   6 C       44   6 C                                       1.3844802
    44   6 C       45  17 Cl                                      1.7269405
    38   6 C       46   8 O                                       1.2085077
     6   6 C       47   1 H                                       1.0786303
     7   6 C       48   1 H                                       1.0786000
     8   6 C       49   1 H                                       1.0794163
     9   6 C       50   1 H                                       1.0803208
    11   6 C       51   1 H                                       1.0947660
    12   6 C       52   1 H                                       1.0953443
    19   6 C       53   1 H                                       1.0787098
    20   6 C       54   1 H                                       1.0787670
    21   6 C       55   1 H                                       1.0793826
    22   6 C       56   1 H                                       1.0790440
    28   6 C       57   1 H                                       1.0783383
    29   6 C       58   1 H                                       1.0788732
    30   6 C       59   1 H                                       1.0789899
    31   6 C       60   1 H                                       1.0802149
    33   6 C       61   1 H                                       1.1037930
    35   8 O       62   1 H                                       0.9724591 (min)
    40   6 C       63   1 H                                       1.0802401
    41   6 C       64   1 H                                       1.0789847
    42   6 C       65   1 H                                       1.0790305
    43   6 C       66   1 H                                       1.0781233

 * 7 distinct bonds (by element types)

   Z      Z             #   av. dist./Å        max./Å        min./Å
   1 H    6 C          19     1.0820826     1.1037930     1.0781233
   6 C    6 C          25     1.3923855     1.5416943     1.3807348
   6 C    7 N           6     1.4208492     1.4602499     1.3596948
   1 H    8 O           1     0.9724591     0.9724591     0.9724591
   6 C    8 O           4     1.2342717     1.3212758     1.1986214
   6 C    9 F           6     1.3456065     1.3551468     1.3375504
   6 C   17 Cl          2     1.7275089     1.7280772     1.7269405


optimized geometry written to: xtbopt.xyz


           -------------------------------------------------
          | TOTAL ENERGY             -138.417618134543 Eh   |
          | GRADIENT NORM               0.000663166374 Eh/α |
          | HOMO-LUMO GAP               3.495411039257 eV   |
           -------------------------------------------------

------------------------------------------------------------------------
 * finished run on 2022/03/17 at 00:37:02.488     
------------------------------------------------------------------------
 total:
 * wall-time:     0 d,  0 h,  0 min, 22.660 sec
 *  cpu-time:     0 d,  0 h,  7 min, 29.788 sec
 * ratio c/w:    19.849 speedup
 SCF:
 * wall-time:     0 d,  0 h,  0 min,  0.638 sec
 *  cpu-time:     0 d,  0 h,  0 min,  9.163 sec
 * ratio c/w:    14.360 speedup
 ANC optimizer:
 * wall-time:     0 d,  0 h,  0 min, 21.870 sec
 *  cpu-time:     0 d,  0 h,  7 min, 16.428 sec
 * ratio c/w:    19.955 speedup

