66
 energy: -159.485061434931 gnorm: 0.134513246215 xtb: 6.3.3 (4ae9cef)
C        -1.45342000000000    2.61780300000000    2.14879400000000
C        -1.77575500000000    3.75370800000000    1.19899900000000
F        -0.79190200000000    3.93097300000000    0.27109000000000
F        -2.91761200000000    3.54251600000000    0.49307100000000
F        -1.92657900000000    4.96136400000000    1.80863300000000
C        -1.57745300000000    2.84713400000000    3.53350500000000
C        -1.27505500000000    1.84985700000000    4.45727800000000
C        -0.84671900000000    0.60672300000000    4.01330700000000
C        -0.72823100000000    0.35356700000000    2.64623500000000
C        -1.03446100000000    1.34031200000000    1.68802100000000
C        -0.88491300000000    1.05313300000000    0.18429800000000
C         0.57922600000000    1.27361100000000   -0.30482900000000
C         0.73805100000000    1.93338700000000   -1.68534900000000
C         1.94260600000000    2.59736600000000   -2.05239800000000
C         3.15116400000000    2.68903900000000   -1.13699200000000
F         4.15647900000000    3.46175700000000   -1.63566600000000
F         2.86088800000000    3.20640100000000    0.08362500000000
F         3.70385200000000    1.46199500000000   -0.93073600000000
C         2.05313900000000    3.17291900000000   -3.33648600000000
C         1.00997500000000    3.10095200000000   -4.25402400000000
C        -0.16151500000000    2.44604500000000   -3.90855200000000
C        -0.29610100000000    1.86845700000000   -2.64494900000000
N         1.14129500000000   -0.09841600000000   -0.33811000000000
C         2.13408100000000   -0.42032300000000    0.59367300000000
C         2.66149800000000   -1.77825900000000    0.59679500000000
C         3.12110800000000   -2.40905000000000    1.74702800000000
C         3.18061500000000   -1.98154400000000    3.17221300000000
F         3.43752000000000   -3.01856100000000    4.01283300000000
F         4.13586900000000   -1.04844000000000    3.39849500000000
F         1.99132900000000   -1.45800700000000    3.57415600000000
O         3.55843700000000   -3.66919100000000    1.44768200000000
C         3.41555900000000   -3.83918300000000    0.11240900000000
C         2.87885100000000   -2.71052600000000   -0.46023900000000
O         2.55698400000000    0.40055500000000    1.39789500000000
C         0.04451400000000   -1.04804600000000   -0.57481900000000
C         0.01487500000000   -1.47276600000000   -2.07762500000000
O         1.09812800000000   -1.07649500000000   -2.79169800000000
O        -0.87694600000000   -2.13516400000000   -2.58870200000000
N        -1.15969500000000   -0.34683400000000   -0.15449600000000
C        -2.44749900000000   -0.84041600000000   -0.09677800000000
C        -2.64294100000000   -2.27569200000000   -0.15023700000000
C        -3.57641800000000   -2.88876900000000   -0.97211100000000
C        -4.52219500000000   -2.35136500000000   -1.98409600000000
F        -4.02441000000000   -1.26087100000000   -2.62558500000000
F        -4.82348700000000   -3.26004600000000   -2.94947800000000
F        -5.70154900000000   -1.97583600000000   -1.42484200000000
O        -3.56221500000000   -4.24156900000000   -0.76594100000000
C        -2.63619100000000   -4.49227600000000    0.19191200000000
C        -2.04958100000000   -3.32238300000000    0.61285400000000
O        -3.41415800000000   -0.09181300000000    0.00711800000000
H        -1.90641300000000    3.81859000000000    3.90261800000000
H        -1.36888300000000    2.04571500000000    5.52281500000000
H        -0.59856400000000   -0.17036500000000    4.73300300000000
H        -0.38741500000000   -0.63400200000000    2.35156900000000
H        -1.61556700000000    1.67061100000000   -0.34453400000000
H         1.09546300000000    1.90641400000000    0.42131000000000
H         2.96879900000000    3.68581000000000   -3.63321100000000
H         1.11360600000000    3.55076000000000   -5.23872500000000
H        -0.97796500000000    2.37842300000000   -4.62520500000000
H        -1.23817400000000    1.35802600000000   -2.45018200000000
H         3.74641600000000   -4.79339500000000   -0.27731000000000
H         2.70403900000000   -2.59069800000000   -1.51994300000000
H         0.17279000000000   -1.95014200000000    0.02516500000000
H         1.66946900000000   -0.46223500000000   -2.28420000000000
H        -2.52536500000000   -5.53164900000000    0.47163000000000
H        -1.31127700000000   -3.23959500000000    1.39801800000000
66
 energy: -159.501479726654 gnorm: 0.054275967655 xtb: 6.3.3 (4ae9cef)
C        -1.44395021818071    2.60395867761033    2.14839554544726
C        -1.76465758625332    3.73194914411952    1.19918914589887
F        -0.78982137316463    3.92459960332523    0.27436179386143
F        -2.90110233563458    3.53086729297188    0.49729239341985
F        -1.91825785559905    4.92198661628566    1.81622431076090
C        -1.57132332673616    2.84073109382364    3.51768690007644
C        -1.27356481203259    1.84972020327819    4.43715636199124
C        -0.84748490833827    0.61186090625563    3.99065826396080
C        -0.73005470885857    0.36545185402196    2.63000089523032
C        -1.02574846426022    1.34402669628393    1.68141773651575
C        -0.88396508258981    1.06264617921023    0.18258835417452
C         0.57359691235086    1.27369641458935   -0.30894501777705
C         0.73406275548891    1.92511711744245   -1.68729558757674
C         1.92311381837189    2.59073265961086   -2.05515961907685
C         3.12588132964744    2.68034139584665   -1.14217198492751
F         4.11750121107867    3.44564803754667   -1.64778022175401
F         2.85238140666868    3.19625115193748    0.07209893334754
F         3.68217640071547    1.46021643448519   -0.94127134804376
C         2.04571374253509    3.16390651782317   -3.32313919084436
C         1.01022306766724    3.09403383091666   -4.23803531354412
C        -0.15700416064303    2.43827562990580   -3.89260402866331
C        -0.28765349214611    1.86002506048275   -2.63740883486589
N         1.13385472131737   -0.09390215906678   -0.31792504952808
C         2.11947589436798   -0.40913074030215    0.61833061092549
C         2.65010230185167   -1.78279311806461    0.60451549655003
C         3.11775333079948   -2.41541186619541    1.74094953436846
C         3.17492003740472   -1.97941829053868    3.16683183050277
F         3.43296555815582   -3.01175905631462    3.99419659631842
F         4.12089008673166   -1.05463189671223    3.39814905597978
F         1.99387124198560   -1.46054151274853    3.57144020167049
O         3.56237616113744   -3.65528056274923    1.44073661929279
C         3.41734779794097   -3.82213963086521    0.11552116123422
C         2.86320026718963   -2.71259691736152   -0.45339877457479
O         2.55929098513706    0.41457206707332    1.38863977116371
C         0.04887859838414   -1.03625821700191   -0.57015389729475
C         0.00744252053962   -1.45013711693140   -2.07076118681896
O         1.08032993363423   -1.07555404373713   -2.78041303443520
O        -0.86557303502144   -2.11636817242390   -2.54625697484001
N        -1.15150807716057   -0.33884497901781   -0.14287618255609
C        -2.43406900440561   -0.82510502729244   -0.09949892152639
C        -2.62795324911480   -2.28040997987146   -0.17023976479306
C        -3.56181573812184   -2.89584601231113   -0.97469325613206
C        -4.51369338532417   -2.34936201926688   -1.98148908520498
F        -4.02185436819157   -1.26759505612795   -2.61733957951894
F        -4.81556098292008   -3.25298719254840   -2.93522530719781
F        -5.68756428920784   -1.97680012214240   -1.42959325650905
O        -3.55544221366223   -4.23242521626196   -0.76495246962000
C        -2.64268355868902   -4.48119854340983    0.18848379448433
C        -2.04173293739617   -3.32598015763190    0.59350470390327
O        -3.38263358100161   -0.07749894121753    0.02945690158288
H        -1.90050454589620    3.80887636365916    3.87391767778740
H        -1.36978837903729    2.04623775668331    5.49673112945162
H        -0.59867401218973   -0.16396377415956    4.70284275228912
H        -0.39530607090019   -0.61561383742317    2.32468473350496
H        -1.60673932087064    1.68224771050818   -0.35328929987430
H         1.11008323339132    1.87592458422008    0.42846856147480
H         2.95935165039535    3.67325005632659   -3.60396253704672
H         1.11717058408983    3.54533502016914   -5.21535435610452
H        -0.97144471469073    2.37171629774049   -4.60169505132612
H        -1.21979888211278    1.35333468016765   -2.42711619184343
H         3.74252461134617   -4.76757659068256   -0.27928924289435
H         2.68190412236364   -2.58597363159848   -1.50365176973595
H         0.18801650044796   -1.95700941219139    0.00996109860700
H         1.65591432288205   -0.46799768501950   -2.27475967204104
H        -2.52950189169973   -5.51077316720183    0.47491905008707
H        -1.31388354396667   -3.23865140793175    1.37839309262676
66
 energy: -159.506169229188 gnorm: 0.015960272965 xtb: 6.3.3 (4ae9cef)
C        -1.43268592640826    2.59611849248595    2.13862492975475
C        -1.75159827364880    3.71933216427346    1.19024092490914
F        -0.78115119095484    3.91844774858472    0.26997651317104
F        -2.88118435059198    3.51908455217755    0.49011822402748
F        -1.90837839882374    4.89581439446632    1.81059427457775
C        -1.56352154339433    2.83663178015738    3.49917308034962
C        -1.26851060613534    1.84517728963473    4.41520592171927
C        -0.84238830640827    0.60998983230260    3.96458429742023
C        -0.72644662949295    0.36863095208177    2.60669280595162
C        -1.01867968364407    1.34598815930040    1.66707651001563
C        -0.87934082228282    1.06795455569901    0.17668794308328
C         0.57545418201291    1.27315273904200   -0.30386625606347
C         0.72756498512764    1.91449864572766   -1.67927887146174
C         1.90536048927696    2.58269060817176   -2.04967816153012
C         3.10548733447791    2.66869867234402   -1.13988790918512
F         4.08788560050673    3.42540458185245   -1.64962879932665
F         2.84333847811796    3.17946099039917    0.06924011452766
F         3.65636457236854    1.44886620658923   -0.94831018171044
C         2.03389784413242    3.15506860058155   -3.30829692508089
C         1.00069546080713    3.08333597988235   -4.22213919132973
C        -0.16238833835765    2.42261974907765   -3.87560178482030
C        -0.28945883301649    1.84427450314117   -2.62349970837999
N         1.13284049771816   -0.09101923549858   -0.29605521677197
C         2.11843139038673   -0.39078047275793    0.63954061498406
C         2.63281310375067   -1.78271041324781    0.61654364408667
C         3.11142516660393   -2.42003420661221    1.73984046080918
C         3.16661473592551   -1.97721723990361    3.16765618035336
F         3.42427682529179   -3.00703364120849    3.98307240694652
F         4.10328357942464   -1.05791126721238    3.40027346737581
F         1.99048573950305   -1.46179448770482    3.56777873597359
O         3.56777981728110   -3.64079610000819    1.43649668019510
C         3.41311080369743   -3.80514407337947    0.11915183644024
C         2.84159716397633   -2.70732546373813   -0.44610945304577
O         2.56932762503248    0.43375275050180    1.39038264352403
C         0.05826110770775   -1.02687170386053   -0.56179373159358
C         0.00702443836582   -1.44437579577658   -2.06082879754196
O         1.05551348368641   -1.04945590339643   -2.77513880956700
O        -0.88129735990089   -2.09042971514370   -2.51658721852951
N        -1.14111507179020   -0.33619351303355   -0.12835394512296
C        -2.42129355867628   -0.81014344428511   -0.09228831278074
C        -2.61098098841572   -2.27943434820443   -0.18942248590878
C        -3.54623017118115   -2.89852662062615   -0.98043414042660
C        -4.50197363752212   -2.34303294786331   -1.98487948813514
F        -4.01234579092939   -1.26730750416293   -2.61046920107162
F        -4.80418126234001   -3.24265193194200   -2.92922012639796
F        -5.66936249118448   -1.97396804273801   -1.43429724024321
O        -3.55264403937309   -4.22145378318806   -0.76374322001687
C        -2.64279099927948   -4.47084967181794    0.17976429144619
C        -2.02843200278024   -3.32422993979702    0.57626310200728
O        -3.35813678031881   -0.06165618810686    0.06211126763365
H        -1.89378699160628    3.80366129599660    3.84463250799946
H        -1.36852443349650    2.04056976461247    5.47119709175516
H        -0.59595588243461   -0.16836843318783    4.66920156564498
H        -0.39892786740583   -0.60848848898489    2.28784066878841
H        -1.59674354072696    1.68673043804818   -0.36664990587383
H         1.12759071080205    1.85591564429838    0.43905408505653
H         2.94689921893419    3.66315810255531   -3.57612958634205
H         1.10907943145727    3.53727922409800   -5.19424019210485
H        -0.97664601758879    2.35478799198524   -4.57875741165387
H        -1.21129777469077    1.33156706342445   -2.40032536940591
H         3.73897334735668   -4.74116379385013   -0.28805971417122
H         2.64492718097169   -2.57200482591479   -1.48883258364219
H         0.20398870147483   -1.96308588472751   -0.00097871651559
H         1.64666529229032   -0.46780081063713   -2.25917038359207
H        -2.52783738884272   -5.49350177899266    0.47809702621070
H        -1.30072035482318   -3.23190080198438    1.35583822260545
66
 energy: -159.507188608323 gnorm: 0.010098966510 xtb: 6.3.3 (4ae9cef)
C        -1.42450757389043    2.59653864164294    2.12898526125570
C        -1.73992121232905    3.71805586612501    1.17760244028322
F        -0.76593488091836    3.91579763817850    0.26210111141034
F        -2.86426054149159    3.51323330883959    0.47289829374088
F        -1.90040754971090    4.89222869680574    1.79586839221451
C        -1.55629491448825    2.83473196336727    3.48932271089997
C        -1.26288223290854    1.83868797046986    4.40223047124212
C        -0.83775844487556    0.60350545329758    3.94924473306995
C        -0.72292327023944    0.36461424398473    2.59170158863299
C        -1.01576665873187    1.34660377505218    1.65773067256691
C        -0.87648383291631    1.06835227102544    0.17373392146751
C         0.57760174024499    1.27273611156228   -0.29727793192012
C         0.72276913410021    1.90667859721662   -1.67116468393970
C         1.89577628601588    2.57898985692349   -2.04316567606502
C         3.09746144390077    2.65807310941093   -1.13542447075936
F         4.08069948110980    3.40857693748300   -1.64555512080252
F         2.84211342784669    3.16345101282795    0.07480856133609
F         3.63879936397251    1.43222318876746   -0.95306532172261
C         2.02036947837642    3.15198687841794   -3.30116595524513
C         0.98450568035028    3.07488865947050   -4.21262447613441
C        -0.17387276269584    2.40602766806260   -3.86483519986547
C        -0.29608648895425    1.82642611410912   -2.61325014250136
N         1.13368002178161   -0.09022927474680   -0.28240387652443
C         2.11659207987389   -0.38134952300919    0.65560093495433
C         2.62053655876914   -1.77857919705082    0.62996762591381
C         3.10980851203486   -2.41958976712081    1.74552430183486
C         3.16039765894014   -1.97742861621275    3.17555832175994
F         3.41571730257358   -3.00881381905999    3.98671667341286
F         4.09218879902269   -1.05765464338304    3.41128332739479
F         1.98227184096545   -1.46459937433501    3.56828854970556
O         3.57119541304362   -3.63387668380454    1.43480181169310
C         3.40858722365567   -3.79319522816356    0.11870843100419
C         2.82412688095343   -2.69736623699566   -0.43875317490499
O         2.58055078088181    0.44753696302118    1.39362207587940
C         0.06379671089344   -1.02319976955694   -0.55558902140330
C        -0.00523317159253   -1.41453785795778   -2.06264107998236
O         1.05135600856256   -1.03942735229881   -2.77122803614625
O        -0.89269017673922   -2.07765833989834   -2.50297402594974
N        -1.13515089379239   -0.33737905754281   -0.11976972584707
C        -2.41511139858712   -0.80381708061518   -0.08454409814465
C        -2.60166524255653   -2.27483811249631   -0.19782097181234
C        -3.53808354785999   -2.89496434083205   -0.98526292003114
C        -4.49179036582234   -2.33400108375599   -1.99119823472141
F        -3.99982203977700   -1.25718092285802   -2.60731650956467
F        -4.79133617064225   -3.23055632710693   -2.93681345751416
F        -5.65849508817206   -1.96797493235704   -1.44029975825307
O        -3.54685539732199   -4.21522365687245   -0.76785147649491
C        -2.63709427124274   -4.46512349214432    0.17387344369876
C        -2.01557980422763   -3.31962224134997    0.56586958419911
O        -3.34819146725398   -0.05512485527850    0.09365752740939
H        -1.88599350517596    3.80231410509863    3.83222658246498
H        -1.36460614923069    2.03169934446234    5.45789993076623
H        -0.59123636086311   -0.17795884065365    4.64961024003799
H        -0.39884150584871   -0.61079414671542    2.26364307955649
H        -1.59126335283467    1.68476790132896   -0.37538058686339
H         1.13016139833285    1.85356780756101    0.44617057628373
H         2.93207048758162    3.66281026369313   -3.56597908389469
H         1.09013804389290    3.53027936640710   -5.18377367578101
H        -0.98927992908889    2.33213425902079   -4.56558977584010
H        -1.21153930093989    1.30410825352963   -2.38506758748178
H         3.73704850801064   -4.72285435935962   -0.30161927833626
H         2.60860801083726   -2.55708351408513   -1.47731503715793
H         0.21176583322810   -1.96633260633229   -0.00537018441280
H         1.64676608897331   -0.46274651651876   -2.25503367215509
H        -2.52069482625760   -5.48544204779993    0.48044240307369
H        -1.27980486874850   -3.22510140889556    1.33742964901016
66
 energy: -159.507808722802 gnorm: 0.008437441274 xtb: 6.3.3 (4ae9cef)
C        -1.41640129107798    2.59896520075716    2.12078520176835
C        -1.72504528524599    3.71892013516709    1.16386855977224
F        -0.74293165965085    3.91267809121684    0.25543540308448
F        -2.84254689980473    3.50899895738831    0.44935192446111
F        -1.89052344473197    4.89414780056522    1.77721851872077
C        -1.54712994308521    2.83405201766353    3.48261841133081
C        -1.25573542672360    1.83284277430596    4.39197418829982
C        -0.83275176489977    0.59692463540052    3.93782023196765
C        -0.72020445223823    0.35955020367027    2.58048151890977
C        -1.01489829657357    1.34677374620395    1.65131232567873
C        -0.87560713425096    1.06677226737100    0.17263727154676
C         0.57798193789512    1.27073552066401   -0.29195951408049
C         0.71814011087483    1.89713555151299   -1.66514628005973
C         1.88618046774022    2.57613997111359   -2.03881947863309
C         3.09155912192727    2.64581384095210   -1.13416299615352
F         4.07854909728536    3.38918472602571   -1.64511518855745
F         2.84559789018149    3.14533384510684    0.07964800177448
F         3.62088584987333    1.41115844852091   -0.96294304561573
C         2.00242628578669    3.15130386004710   -3.29750487012864
C         0.96259968963239    3.06615887580884   -4.20502822624129
C        -0.18859162354074    2.38469920347329   -3.85640353844674
C        -0.30366471190655    1.80347294680423   -2.60525294618589
N         1.13448248330895   -0.09129083788122   -0.26918110685533
C         2.11330065952595   -0.37496297923954    0.67250399405287
C         2.60806565805077   -1.77406969718100    0.64835098600960
C         3.11006975475944   -2.41887446741888    1.75600829573663
C         3.15357408621922   -1.98044427420761    3.18868793307833
F         3.40440594055664   -3.01420420406627    3.99835096266819
F         4.08082018242385   -1.05858660959386    3.43092392328058
F         1.97083779398080   -1.47020130052295    3.57159816537206
O         3.57535187341575   -3.62902153583457    1.43445109429767
C         3.40196932300439   -3.78158474810867    0.11837348444318
C         2.80789109829657   -2.68443755801483   -0.42817841546366
O         2.58630933652054    0.45803692307269    1.40058710812038
C         0.06835226774803   -1.02213558206209   -0.55105687956469
C         0.00019979633255   -1.40486553572391   -2.06130101311527
O         1.04212850218082   -1.00526690283623   -2.77727789023063
O        -0.90625449233928   -2.04414216133852   -2.50311005752888
N        -1.13113325668619   -0.33993511441054   -0.11369057224607
C        -2.41052357235258   -0.80087527218174   -0.07262144250376
C        -2.59427815294660   -2.26986127704723   -0.20277638081786
C        -3.53107784172699   -2.88975876230852   -0.98963868874530
C        -4.47922140333692   -2.32237843846422   -1.99880368921745
F        -3.98237130819432   -1.24098667013529   -2.60202447170617
F        -4.77300844967649   -3.21304563545754   -2.95200174269911
F        -5.64855760798635   -1.96018219901083   -1.45014353978500
O        -3.53836046039570   -4.21036424355247   -0.77438214831502
C        -2.62548194145086   -4.46104735403329    0.16475648367534
C        -2.00435720168103   -3.31479743351056    0.55844161762643
O        -3.34084581283188   -0.05311418063686    0.12718246864118
H        -1.87387965263610    3.80296505290074    3.82522318417082
H        -1.35810656879186    2.02323854286289    5.44802776680822
H        -0.58591596371646   -0.18772707324657    4.63479551617905
H        -0.39963414745876   -0.61443186097402    2.24412476240458
H        -1.58874695365656    1.68008609865099   -0.38158128772382
H         1.12696241765390    1.85467346793845    0.45068085575749
H         2.91115138515543    3.66795087367231   -3.56211961997374
H         1.06211511790183    3.52398434951885   -5.17576624825085
H        -1.00541927540486    2.30121236298816   -4.55521193708135
H        -1.21218230357477    1.26899126811035   -2.37394837834742
H         3.73312263791067   -4.70404749630092   -0.31734004787892
H         2.57200375010166   -2.53874528602640   -1.46231354259209
H         0.21478150524454   -1.96890273658530   -0.00937432237709
H         1.64910530323061   -0.44983883017337   -2.24919078332581
H        -2.50570612565128   -5.47977177948159    0.47707040534678
H        -1.25982589849381   -3.21900052188823    1.32207872546406
66
 energy: -159.508165198633 gnorm: 0.005624590302 xtb: 6.3.3 (4ae9cef)
C        -1.41099305418422    2.60124123052889    2.11912622104322
C        -1.71092240684544    3.72017959327270    1.15696539697093
F        -0.71874323994479    3.90971208748883    0.25666073918685
F        -2.82154273440805    3.50850953387674    0.43024694441043
F        -1.88107669168675    4.89814045289568    1.76504504869483
C        -1.53830063192656    2.83581337765045    3.48226771653460
C        -1.24917382256578    1.83220590195258    4.38979997960587
C        -0.82976083191052    0.59464369128836    3.93665594236518
C        -0.72043871483500    0.35661329837229    2.57953035318878
C        -1.01618485389508    1.34606440868420    1.65183863649722
C        -0.87740554706812    1.06475748256857    0.17454098212288
C         0.57610644737034    1.27021165378481   -0.28941579193964
C         0.71365224122950    1.89111650682947   -1.66418255368580
C         1.87783374668876    2.57535120166286   -2.04042043068721
C         3.08813131467472    2.63626464420535   -1.14062584134816
F         4.07955809052932    3.37277668758159   -1.65432976516125
F         2.85304005981501    3.13261742323253    0.07713811043338
F         3.60742895557168    1.39407288270323   -0.97738960895270
C         1.98512958601874    3.15362850612343   -3.29946144087849
C         0.94232330701604    3.06091403383656   -4.20301631253874
C        -0.20147179371105    2.36694238966662   -3.85413763481467
C        -0.31002656491608    1.78634552601852   -2.60257821661794
N         1.13423137093798   -0.09103527602986   -0.26117651478116
C         2.10964993897063   -0.37269257972913    0.68346879991097
C         2.59956102564029   -1.77135258861463    0.66476531506697
C         3.11009666541798   -2.41909570053867    1.76707182455430
C         3.14694488820346   -1.98632065711665    3.20181344360036
F         3.39188403395540   -3.02202570562508    4.01255415591120
F         4.07202093513248   -1.06340040896656    3.45268208274040
F         1.95998847690629   -1.47696688917134    3.57681037267727
O         3.57638081318340   -3.62797940902087    1.43644441050768
C         3.39596672077378   -3.77446201995703    0.11986608631267
C         2.79866248171864   -2.67469712750223   -0.41757564382811
O         2.58175385847824    0.46100806127293    1.41036570090782
C         0.06929666820235   -1.02050071953762   -0.55223328001106
C         0.00082746668817   -1.38359390733415   -2.06812138068150
O         1.04721474222666   -0.98488306454422   -2.77811386078738
O        -0.90653536283872   -2.01733155920244   -2.51544862817570
N        -1.13107681895195   -0.34191527804712   -0.11195892374464
C        -2.40943037118438   -0.80286091089658   -0.06064421702308
C        -2.59135135596719   -2.26813287246094   -0.20282120246194
C        -3.52633833237747   -2.88652051266044   -0.99281733807123
C        -4.46744933975122   -2.31274045052819   -2.00487498129978
F        -3.96588857562005   -1.22401353266252   -2.59363327776316
F        -4.75267449207547   -3.19448330670794   -2.97059470456702
F        -5.64241444830844   -1.95591714414811   -1.46186901653015
O        -3.52803764884550   -4.20967714248305   -0.78419245639896
C        -2.61270734760620   -4.46144993488723    0.15371448950989
C        -1.99893771743765   -3.31393134064784    0.55533903821847
O        -3.33843298247211   -0.05760122955157    0.15239437421762
H        -1.85989532063563    3.80651945108860    3.82599172686747
H        -1.35007072997158    2.02181489753038    5.44640014085836
H        -0.58297607120249   -0.19119629790019    4.63287795198457
H        -0.40287277127638   -0.61701806510250    2.23990090875285
H        -1.59087010584594    1.67574264048884   -0.38141843195296
H         1.12184761513784    1.85927781528368    0.45142481039245
H         2.88977259642728    3.67722256860828   -3.56629006591939
H         1.03432620972663    3.52139821341906   -5.17362361993677
H        -1.01841717570192    2.27273438512679   -4.55232568072780
H        -1.21230806621978    1.24084923933611   -2.37117274262313
H         3.72910933632299   -4.69131206412030   -0.32624603078875
H         2.55379088105430   -2.52449006474019   -1.44862797634930
H         0.21332361662479   -1.97088019133853   -0.01839359879345
H         1.65492825093353   -0.43572822890146   -2.24548145089275
H        -2.48854579697231   -5.47998073441299    0.46500198212300
H        -1.25150962241765   -3.21850187129185    1.31650793456615
66
 energy: -159.508498986524 gnorm: 0.005448906289 xtb: 6.3.3 (4ae9cef)
C        -1.40398890267893    2.60360164972644    2.12122730355435
C        -1.69230540280576    3.72178108465492    1.15459045908427
F        -0.68693593435468    3.90811351324298    0.26601005939209
F        -2.79366079219674    3.51115366778587    0.41152141857100
F        -1.86877206357833    4.90196724735813    1.75787923750765
C        -1.52586443564519    2.84065525019685    3.48484111928017
C        -1.24078832624519    1.83635323809288    4.39205014126993
C        -0.82866389639230    0.59551056931537    3.94113319258658
C        -0.72383390334210    0.35496584001888    2.58422305419819
C        -1.01715690004988    1.34509167503864    1.65595752528056
C        -0.88054121860309    1.06355809090874    0.17774961532227
C         0.57324095907576    1.26998731470798   -0.28808353286942
C         0.70671832714026    1.88457781544194   -1.66662215821583
C         1.86600481089327    2.57413122388168   -2.04747507040827
C         3.08297904081187    2.62576051273661   -1.15610490141256
F         4.07900878020931    3.35235188552150   -1.67687176270872
F         2.86336825985599    3.12189534804328    0.06502727685572
F         3.59092664259554    1.37612301946222   -0.99830505408962
C         1.96247730214036    3.15731099533556   -3.30560314820466
C         0.91684255433823    3.05655518506751   -4.20438289104669
C        -0.21752616010330    2.34723781619360   -3.85519493391934
C        -0.31820828269225    1.76841040491073   -2.60253735200591
N         1.13273285556938   -0.09048343227449   -0.25319973166514
C         2.10168612307043   -0.37235109279892    0.69778120449978
C         2.59110662112290   -1.76951792509497    0.68496686258810
C         3.10866000217675   -2.42062036955046    1.78186551045457
C         3.13735218412582   -1.99608027338672    3.21871046688990
F         3.37369880315163   -3.03425684418961    4.03045991585098
F         4.06165826706877   -1.07436645325665    3.48177505704102
F         1.94684543111170   -1.48611518140259    3.58599032502558
O         3.57491112776021   -3.62839992150184    1.44239681529086
C         3.39117206241405   -3.76755383772708    0.12517741950598
C         2.78975327159580   -2.66606799250575   -0.40307052747948
O         2.57162909720294    0.46373517115743    1.42380479324005
C         0.06835332150116   -1.01750560056296   -0.55751481828071
C         0.00465228492500   -1.36060467251272   -2.07858124974861
O         1.05909661398970   -0.96303030935634   -2.77826556521288
O        -0.90381163667169   -1.98207695411192   -2.53943797416241
N        -1.13301068834160   -0.34247542619625   -0.11278646505948
C        -2.40945357815033   -0.80746898109567   -0.04523156085380
C        -2.58846228904972   -2.26918714641912   -0.20103564162862
C        -3.51863437752654   -2.88485175703979   -0.99833628666294
C        -4.45069825977747   -2.30184777326187   -2.01241665535038
F        -3.94465492104243   -1.20142616551934   -2.57931233891157