      -----------------------------------------------------------      
     |                   =====================                   |     
     |                           x T B                           |     
     |                   =====================                   |     
     |                         S. Grimme                         |     
     |          Mulliken Center for Theoretical Chemistry        |     
     |                    University of Bonn                     |     
      -----------------------------------------------------------      

   * xtb version 6.3.3 (4ae9cef) compiled by 'conda@95abc7406d43' on 2020-10-14

   xtb is free software: you can redistribute it and/or modify it under
   the terms of the GNU Lesser General Public License as published by
   the Free Software Foundation, either version 3 of the License, or
   (at your option) any later version.
   
   xtb is distributed in the hope that it will be useful,
   but WITHOUT ANY WARRANTY; without even the implied warranty of
   MERCHANTABILITY or FITNESS FOR A PARTICULAR PURPOSE.  See the
   GNU Lesser General Public License for more details.
   
   Cite this work as:
   * C. Bannwarth, E. Caldeweyher, S. Ehlert, A. Hansen, P. Pracht,
     J. Seibert, S. Spicher, S. Grimme, WIREs Comput. Mol. Sci., 2020,
     e01493. DOI: 10.1002/wcms.1493
   
   for GFN2-xTB:
   * S. Grimme, C. Bannwarth, P. Shushkov, J. Chem. Theory Comput., 2017,
     13, 1989-2009. DOI: 10.1021/acs.jctc.7b00118
   for GFN1-xTB:
   * C. Bannwarth, S. Ehlert and S. Grimme., J. Chem. Theory Comput., 2019,
     15, 1652-1671. DOI: 10.1021/acs.jctc.8b01176
   for GFN0-xTB:
   * P. Pracht, E. Caldeweyher, S. Ehlert, S. Grimme, ChemRxiv, 2019, preprint.
     DOI: 10.26434/chemrxiv.8326202.v1
   for GFN-FF:
   * S. Spicher and S. Grimme, Angew. Chem. Int. Ed., 2020, 59, 15665-15673.
     DOI: 10.1002/anie.202004239
   
   for DFT-D4:
   * E. Caldeweyher, C. Bannwarth and S. Grimme, J. Chem. Phys., 2017,
     147, 034112. DOI: 10.1063/1.4993215
   * E. Caldeweyher, S. Ehlert, A. Hansen, H. Neugebauer, S. Spicher,
     C. Bannwarth and S. Grimme, J. Chem. Phys., 2019, 150, 154122.
     DOI: 10.1063/1.5090222
   * E. Caldeweyher, J.-M. Mewes, S. Ehlert and S. Grimme, Phys. Chem. Chem. Phys.
     2020, 22, 8499-8512. DOI: 10.1039/D0CP00502A
   
   for sTDA-xTB:
   * S. Grimme and C. Bannwarth, J. Chem. Phys., 2016, 145, 054103.
     DOI: 10.1063/1.4959605
   
   in the mass-spec context:
   * V. Asgeirsson, C. Bauer and S. Grimme, Chem. Sci., 2017, 8, 4879.
     DOI: 10.1039/c7sc00601b
   * J. Koopman and S. Grimme, ACS Omega 2019, 4, 12, 15120-15133.
     DOI: 10.1021/acsomega.9b02011
   
   for metadynamics refer to:
   * S. Grimme, J. Chem. Theory Comput., 2019, 155, 2847-2862
     DOI: 10.1021/acs.jctc.9b00143
   
   with help from (in alphabetical order)
   C. Bannwarth, F. Bohle, G. Brandenburg, E. Caldeweyher, M. Checinski,
   S. Dohm, S. Ehlert, S. Ehrlich, F. März, H. Neugebauer, J. Pisarek,
   P. Pracht, P. Shushkov, and S. Spicher.
   
 * started run on 2022/03/16 at 22:03:32.145     

           -------------------------------------------------
          |                Calculation Setup                |
           -------------------------------------------------

          program call               : xtb acid_172.xyz --opt --chrg 0 --uhf 0 --gfn 2
          coordinate file            : acid_172.xyz
          omp threads                :                    64
          number of atoms            :                    70
          number of electrons        :                   218
          charge                     :                     0
          spin                       :                   0.0
          first test random number   :      0.80043314787512

   ID    Z sym.   atoms
    1    6 C      1, 3-16, 18, 20-23, 25-28, 30, 31, 35-42
    2    8 O      2, 17, 29, 32, 33, 44
    3    7 N      19, 24, 34, 43
    4    1 H      45-70

           -------------------------------------------------
          |                 G F N 2 - x T B                 |
           -------------------------------------------------

        Reference                      10.1021/acs.jctc.8b01176
      * Hamiltonian:
        H0-scaling (s, p, d)           1.850000    2.230000    2.230000
        zeta-weighting                 0.500000
      * Dispersion:
        s8                             2.700000
        a1                             0.520000
        a2                             5.000000
        s9                             5.000000
      * Repulsion:
        kExp                           1.500000    1.000000
        rExp                           1.000000
      * Coulomb:
        alpha                          2.000000
        third order                    shell-resolved
        anisotropic                    true
        a3                             3.000000
        a5                             4.000000
        cn-shift                       1.200000
        cn-exp                         4.000000
        max-rad                        5.000000


          ...................................................
          :                      SETUP                      :
          :.................................................:
          :  # basis functions                 202          :
          :  # atomic orbitals                 202          :
          :  # shells                          114          :
          :  # electrons                       218          :
          :  max. iterations                   250          :
          :  Hamiltonian                  GFN2-xTB          :
          :  restarted?                      false          :
          :  GBSA solvation                  false          :
          :  PC potential                    false          :
          :  electronic temp.          300.0000000     K    :
          :  accuracy                    1.0000000          :
          :  -> integral cutoff          0.2500000E+02      :
          :  -> integral neglect         0.1000000E-07      :
          :  -> SCF convergence          0.1000000E-05 Eh   :
          :  -> wf. convergence          0.1000000E-03 e    :
          :  Broyden damping             0.4000000          :
          ...................................................

 iter      E             dE          RMSdq      gap      omega  full diag
   1   -123.5967010 -0.123597E+03  0.512E+00    2.95       0.0  T
   2   -123.7400565 -0.143355E+00  0.308E+00    2.93       1.0  T
   3   -123.6622269  0.778296E-01  0.200E+00    2.56       1.0  T
   4   -123.7921194 -0.129893E+00  0.749E-01    2.43       1.0  T
   5   -123.8212051 -0.290857E-01  0.154E-01    2.32       1.0  T
   6   -123.8217167 -0.511557E-03  0.778E-02    2.36       1.0  T
   7   -123.8218612 -0.144488E-03  0.308E-02    2.39       1.0  T
   8   -123.8218771 -0.158915E-04  0.143E-02    2.39       1.0  T
   9   -123.8218813 -0.421884E-05  0.573E-03    2.40       2.1  T
  10   -123.8218819 -0.563725E-06  0.334E-03    2.39       3.6  T
  11   -123.8218824 -0.558038E-06  0.117E-03    2.39      10.2  T
  12   -123.8218824 -0.189627E-07  0.567E-04    2.39      21.1  T
  13   -123.8218824 -0.682540E-08  0.207E-04    2.39      57.6  T

   *** convergence criteria satisfied after 13 iterations ***

         #    Occupation            Energy/Eh            Energy/eV
      -------------------------------------------------------------
         1        2.0000           -0.7797136             -21.2171
       ...           ...                  ...                  ...
       103        2.0000           -0.4138858             -11.2624
       104        2.0000           -0.4101902             -11.1618
       105        2.0000           -0.4082708             -11.1096
       106        2.0000           -0.4037978             -10.9879
       107        2.0000           -0.4014666             -10.9245
       108        2.0000           -0.3933661             -10.7040
       109        2.0000           -0.3858267             -10.4989 (HOMO)
       110                         -0.2978829              -8.1058 (LUMO)
       111                         -0.2911271              -7.9220
       112                         -0.2895487              -7.8790
       113                         -0.2735573              -7.4439
       114                         -0.2722106              -7.4072
       ...                                ...                  ...
       202                          1.0779216              29.3317
      -------------------------------------------------------------
                  HL-Gap            0.0879439 Eh            2.3931 eV
             Fermi-level           -0.3418548 Eh           -9.3023 eV

 SCC (total)                   0 d,  0 h,  0 min,  0.547 sec
 SCC setup                      ...        0 min,  0.016 sec (  2.893%)
 Dispersion                     ...        0 min,  0.021 sec (  3.858%)
 classical contributions        ...        0 min,  0.010 sec (  1.851%)
 integral evaluation            ...        0 min,  0.097 sec ( 17.734%)
 iterations                     ...        0 min,  0.272 sec ( 49.808%)
 molecular gradient             ...        0 min,  0.128 sec ( 23.334%)
 printout                       ...        0 min,  0.003 sec (  0.505%)

         :::::::::::::::::::::::::::::::::::::::::::::::::::::
         ::                     SUMMARY                     ::
         :::::::::::::::::::::::::::::::::::::::::::::::::::::
         :: total energy            -122.078690901740 Eh    ::
         :: gradient norm              0.117296051837 Eh/a0 ::
         :: HOMO-LUMO gap              2.393074487538 eV    ::
         ::.................................................::
         :: SCC energy              -123.821882447911 Eh    ::
         :: -> isotropic ES            0.163146336314 Eh    ::
         :: -> anisotropic ES          0.006373192395 Eh    ::
         :: -> anisotropic XC          0.073852921280 Eh    ::
         :: -> dispersion             -0.099652207919 Eh    ::
         :: repulsion energy           1.738951659976 Eh    ::
         :: add. restraining           0.000000000000 Eh    ::
         :: total charge               0.000000000000 e     ::
         :::::::::::::::::::::::::::::::::::::::::::::::::::::

      ----------------------------------------------------------- 
     |                   =====================                   |
     |                        A N C O P T                        |
     |                   =====================                   |
     |               Approximate Normal Coordinate               |
     |                Rational Function Optimizer                |
      ----------------------------------------------------------- 

          ...................................................
          :                      SETUP                      :
          :.................................................:
          :   optimization level            normal          :
          :   max. optcycles                   210          :
          :   ANC micro-cycles                  20          :
          :   degrees of freedom               204          :
          :.................................................:
          :   RF solver                   davidson          :
          :   write xtbopt.log                true          :
          :   linear?                        false          :
          :   energy convergence         0.5000000E-05 Eh   :
          :   grad. convergence          0.1000000E-02 Eh/α :
          :   maximium RF displ.         1.0000000          :
          :   Hlow (freq-cutoff)         0.1000000E-01      :
          :   Hmax (freq-cutoff)         5.0000000          :
          :   S6 in model hess.         20.0000000          :
          ...................................................

generating ANC from model Hessian ...
Using Lindh-Hessian (1995)
 Shifting diagonal of input Hessian by    9.8153824240305131E-003
 Lowest  eigenvalues of input Hessian
    0.000000    0.000000    0.000000    0.000000    0.000000    0.000000
    0.010000    0.010108    0.010132    0.010158    0.010171    0.010267
    0.010363    0.010399    0.010540    0.010744    0.011283    0.011573
 Highest eigenvalues
    2.009300    2.193596    2.239846    2.261589    2.529599    2.535311


........................................................................
.............................. CYCLE    1 ..............................
........................................................................
   1   -123.8218824 -0.123822E+03  0.918E-05    2.39       0.0  T
   2   -123.8218824 -0.105217E-09  0.589E-05    2.39     203.0  T
   3   -123.8218824 -0.842988E-10  0.394E-05    2.39     303.5  T
     SCC iter.                  ...        0 min,  0.062 sec
     gradient                   ...        0 min,  0.144 sec
 * total energy  :  -122.0786909 Eh     change       -0.1418286E-08 Eh
   gradient norm :     0.1172995 Eh/α   predicted     0.0000000E+00 (-100.00%)
   displ. norm   :     0.3842808 α      lambda       -0.2430395E-01
   maximum displ.:     0.1556237 α      in ANC's #68, #71, #63, ...

........................................................................
.............................. CYCLE    2 ..............................
........................................................................
   1   -123.9313320 -0.123931E+03  0.205E-01    2.42       0.0  T
   2   -123.9314893 -0.157368E-03  0.126E-01    2.44       1.0  T
   3   -123.9313771  0.112265E-03  0.592E-02    2.44       1.0  T
   4   -123.9315525 -0.175442E-03  0.117E-02    2.44       1.0  T
   5   -123.9315582 -0.569829E-05  0.447E-03    2.44       2.7  T
   6   -123.9315585 -0.262574E-06  0.294E-03    2.44       4.1  T
   7   -123.9315588 -0.316979E-06  0.105E-03    2.44      11.4  T
   8   -123.9315588 -0.342099E-07  0.377E-04    2.44      31.7  T
   9   -123.9315588 -0.144355E-08  0.161E-04    2.44      74.2  T
     SCC iter.                  ...        0 min,  0.185 sec
     gradient                   ...        0 min,  0.130 sec
 * total energy  :  -122.0947052 Eh     change       -0.1601429E-01 Eh
   gradient norm :     0.0361892 Eh/α   predicted    -0.1394648E-01 ( -12.91%)
   displ. norm   :     0.3929501 α      lambda       -0.6740688E-02
   maximum displ.:     0.1279137 α      in ANC's #18, #20, #68, ...

........................................................................
.............................. CYCLE    3 ..............................
........................................................................
   1   -123.9676784 -0.123968E+03  0.144E-01    2.39       0.0  T
   2   -123.9677558 -0.774030E-04  0.878E-02    2.40       1.0  T
   3   -123.9676944  0.613981E-04  0.382E-02    2.40       1.0  T
   4   -123.9677855 -0.911398E-04  0.768E-03    2.40       1.6  T
   5   -123.9677889 -0.340366E-05  0.323E-03    2.40       3.7  T
   6   -123.9677891 -0.158486E-06  0.183E-03    2.40       6.5  T
   7   -123.9677892 -0.139694E-06  0.631E-04    2.40      18.9  T
   8   -123.9677892 -0.704324E-08  0.272E-04    2.40      43.9  T
     SCC iter.                  ...        0 min,  0.169 sec
     gradient                   ...        0 min,  0.137 sec
 * total energy  :  -122.0990204 Eh     change       -0.4315208E-02 Eh
   gradient norm :     0.0148305 Eh/α   predicted    -0.3890763E-02 (  -9.84%)
   displ. norm   :     0.3855478 α      lambda       -0.2299567E-02
   maximum displ.:     0.1616768 α      in ANC's #18, #20, #11, ...

........................................................................
.............................. CYCLE    4 ..............................
........................................................................
   1   -123.9757390 -0.123976E+03  0.110E-01    2.37       0.0  T
   2   -123.9757777 -0.387222E-04  0.656E-02    2.38       1.0  T
   3   -123.9757472  0.305814E-04  0.247E-02    2.38       1.0  T
   4   -123.9757881 -0.409519E-04  0.537E-03    2.38       2.2  T
   5   -123.9757902 -0.208505E-05  0.198E-03    2.38       6.0  T
   6   -123.9757903 -0.821604E-07  0.104E-03    2.38      11.5  T
   7   -123.9757903 -0.188184E-07  0.542E-04    2.38      22.1  T
   8   -123.9757903 -0.108070E-07  0.171E-04    2.38      70.0  T
     SCC iter.                  ...        0 min,  0.166 sec
     gradient                   ...        0 min,  0.152 sec
 * total energy  :  -122.1007160 Eh     change       -0.1695631E-02 Eh
   gradient norm :     0.0101293 Eh/α   predicted    -0.1320783E-02 ( -22.11%)
   displ. norm   :     0.5103539 α      lambda       -0.1973549E-02
   maximum displ.:     0.2264190 α      in ANC's #18, #20, #11, ...

........................................................................
.............................. CYCLE    5 ..............................
........................................................................
   1   -123.9730891 -0.123973E+03  0.169E-01    2.34       0.0  T
   2   -123.9731284 -0.392786E-04  0.970E-02    2.34       1.0  T
   3   -123.9730777  0.506563E-04  0.290E-02    2.33       1.0  T
   4   -123.9731425 -0.648200E-04  0.663E-03    2.33       1.8  T
   5   -123.9731443 -0.173330E-05  0.331E-03    2.33       3.6  T
   6   -123.9731445 -0.196095E-06  0.165E-03    2.33       7.2  T
   7   -123.9731446 -0.117350E-06  0.525E-04    2.33      22.8  T
   8   -123.9731446 -0.102939E-07  0.206E-04    2.33      58.1  T
     SCC iter.                  ...        0 min,  0.163 sec
     gradient                   ...        0 min,  0.137 sec
 * total energy  :  -122.1019556 Eh     change       -0.1239609E-02 Eh
   gradient norm :     0.0133038 Eh/α   predicted    -0.1243887E-02 (   0.35%)
   displ. norm   :     0.5787609 α      lambda       -0.2053506E-02
   maximum displ.:     0.2379879 α      in ANC's #11, #18, #20, ...

........................................................................
.............................. CYCLE    6 ..............................
........................................................................
   1   -123.9669947 -0.123967E+03  0.302E-01    2.31       0.0  T
   2   -123.9670855 -0.907388E-04  0.168E-01    2.31       1.0  T
   3   -123.9670381  0.473476E-04  0.316E-02    2.30       1.0  T
   4   -123.9671235 -0.853733E-04  0.796E-03    2.30       1.5  T
   5   -123.9671244 -0.874707E-06  0.480E-03    2.30       2.5  T
   6   -123.9671251 -0.705741E-06  0.170E-03    2.30       7.0  T
   7   -123.9671252 -0.146089E-06  0.579E-04    2.30      20.7  T
   8   -123.9671252 -0.878045E-08  0.265E-04    2.30      45.1  T
     SCC iter.                  ...        0 min,  0.161 sec
     gradient                   ...        0 min,  0.115 sec
 * total energy  :  -122.1024283 Eh     change       -0.4726365E-03 Eh
   gradient norm :     0.0216414 Eh/α   predicted    -0.1370715E-02 ( 190.01%)
   displ. norm   :     0.2250300 α      lambda       -0.1667039E-02
   maximum displ.:     0.0850869 α      in ANC's #11, #13, #14, ...

........................................................................
.............................. CYCLE    7 ..............................
........................................................................
   1   -123.9761161 -0.123976E+03  0.131E-01    2.32       0.0  T
   2   -123.9761326 -0.164284E-04  0.736E-02    2.32       1.0  T
   3   -123.9761212  0.113654E-04  0.159E-02    2.32       1.0  T
   4   -123.9761393 -0.181108E-04  0.391E-03    2.32       3.1  T
   5   -123.9761396 -0.302458E-06  0.219E-03    2.32       5.5  T
   6   -123.9761398 -0.151799E-06  0.688E-04    2.32      17.4  T
   7   -123.9761398 -0.168638E-07  0.271E-04    2.32      44.2  T
     SCC iter.                  ...        0 min,  0.141 sec
     gradient                   ...        0 min,  0.139 sec
 * total energy  :  -122.1033811 Eh     change       -0.9527714E-03 Eh
   gradient norm :     0.0155828 Eh/α   predicted    -0.8757276E-03 (  -8.09%)
   displ. norm   :     0.3044744 α      lambda       -0.9657032E-03
   maximum displ.:     0.1328013 α      in ANC's #11, #13, #14, ...

........................................................................
.............................. CYCLE    8 ..............................
........................................................................
   1   -123.9739833 -0.123974E+03  0.148E-01    2.29       0.0  T
   2   -123.9740113 -0.280191E-04  0.833E-02    2.28       1.0  T
   3   -123.9739583  0.529802E-04  0.297E-02    2.28       1.0  T
   4   -123.9740244 -0.661200E-04  0.520E-03    2.28       2.3  T
   5   -123.9740255 -0.103009E-05  0.278E-03    2.28       4.3  T
   6   -123.9740258 -0.285845E-06  0.116E-03    2.28      10.3  T
   7   -123.9740258 -0.373200E-07  0.314E-04    2.28      38.1  T
   8   -123.9740258 -0.308930E-08  0.138E-04    2.28      86.4  T
     SCC iter.                  ...        0 min,  0.160 sec
     gradient                   ...        0 min,  0.147 sec
 * total energy  :  -122.1038831 Eh     change       -0.5020403E-03 Eh
   gradient norm :     0.0210225 Eh/α   predicted    -0.5276198E-03 (   5.10%)
   displ. norm   :     0.4378767 α      lambda       -0.1214041E-02
   maximum displ.:     0.1967092 α      in ANC's #11, #14, #13, ...

........................................................................
.............................. CYCLE    9 ..............................
........................................................................
   1   -123.9796011 -0.123980E+03  0.117E-01    2.30       0.0  T
   2   -123.9796220 -0.208697E-04  0.666E-02    2.31       1.0  T
   3   -123.9796054  0.166291E-04  0.191E-02    2.30       1.0  T
   4   -123.9796274 -0.220363E-04  0.388E-03    2.31       3.1  T
   5   -123.9796281 -0.721826E-06  0.173E-03    2.31       6.9  T
   6   -123.9796282 -0.471013E-07  0.766E-04    2.31      15.6  T
   7   -123.9796282 -0.137140E-07  0.279E-04    2.31      42.9  T
     SCC iter.                  ...        0 min,  0.145 sec
     gradient                   ...        0 min,  0.140 sec
 * total energy  :  -122.1045423 Eh     change       -0.6591598E-03 Eh
   gradient norm :     0.0177900 Eh/α   predicted    -0.7234307E-03 (   9.75%)
   displ. norm   :     0.4539296 α      lambda       -0.8454245E-03
   maximum displ.:     0.2058720 α      in ANC's #11, #13, #14, ...

........................................................................
.............................. CYCLE   10 ..............................
........................................................................
   1   -123.9768129 -0.123977E+03  0.110E-01    2.29       0.0  T
   2   -123.9768261 -0.132159E-04  0.634E-02    2.29       1.0  T
   3   -123.9767954  0.307185E-04  0.216E-02    2.29       1.0  T
   4   -123.9768328 -0.374677E-04  0.418E-03    2.29       2.9  T
   5   -123.9768334 -0.596654E-06  0.219E-03    2.29       5.4  T
   6   -123.9768335 -0.111727E-06  0.979E-04    2.29      12.2  T
   7   -123.9768336 -0.325634E-07  0.303E-04    2.29      39.5  T
     SCC iter.                  ...        0 min,  0.142 sec
     gradient                   ...        0 min,  0.121 sec
 * total energy  :  -122.1052151 Eh     change       -0.6728917E-03 Eh
   gradient norm :     0.0126198 Eh/α   predicted    -0.5098204E-03 ( -24.23%)
   displ. norm   :     0.5365034 α      lambda       -0.9437532E-03
   maximum displ.:     0.2196574 α      in ANC's #13, #7, #11, ...

........................................................................
.............................. CYCLE   11 ..............................
........................................................................
   1   -123.9780738 -0.123978E+03  0.128E-01    2.27       0.0  T
   2   -123.9780896 -0.157514E-04  0.745E-02    2.27       1.0  T
   3   -123.9780497  0.398958E-04  0.252E-02    2.27       1.0  T
   4   -123.9780972 -0.475658E-04  0.443E-03    2.28       2.7  T
   5   -123.9780979 -0.701191E-06  0.232E-03    2.28       5.2  T
   6   -123.9780981 -0.169205E-06  0.103E-03    2.28      11.6  T
   7   -123.9780981 -0.263032E-07  0.384E-04    2.28      31.2  T
   8   -123.9780981 -0.403000E-08  0.154E-04    2.28      77.6  T
     SCC iter.                  ...        0 min,  0.161 sec
     gradient                   ...        0 min,  0.144 sec
 * total energy  :  -122.1058812 Eh     change       -0.6660089E-03 Eh
   gradient norm :     0.0074968 Eh/α   predicted    -0.6077006E-03 (  -8.75%)
   displ. norm   :     0.5893915 α      lambda       -0.6725218E-03
   maximum displ.:     0.2388441 α      in ANC's #7, #13, #11, ...

........................................................................
.............................. CYCLE   12 ..............................
........................................................................
   1   -123.9727041 -0.123973E+03  0.130E-01    2.25       0.0  T
   2   -123.9727385 -0.344132E-04  0.762E-02    2.25       1.0  T
   3   -123.9726973  0.412503E-04  0.279E-02    2.25       1.0  T
   4   -123.9727479 -0.506128E-04  0.629E-03    2.25       1.9  T
   5   -123.9727506 -0.269116E-05  0.235E-03    2.25       5.1  T
   6   -123.9727507 -0.144204E-06  0.126E-03    2.25       9.5  T
   7   -123.9727508 -0.352879E-07  0.464E-04    2.25      25.7  T
   8   -123.9727508 -0.534250E-08  0.198E-04    2.25      60.5  T
     SCC iter.                  ...        0 min,  0.162 sec
     gradient                   ...        0 min,  0.120 sec
 * total energy  :  -122.1063003 Eh     change       -0.4191191E-03 Eh
   gradient norm :     0.0163297 Eh/α   predicted    -0.4530771E-03 (   8.10%)
   displ. norm   :     0.4503665 α      lambda       -0.6843132E-03
   maximum displ.:     0.2259063 α      in ANC's #7, #13, #11, ...

........................................................................
.............................. CYCLE   13 ..............................
........................................................................
   1   -123.9763837 -0.123976E+03  0.106E-01    2.24       0.0  T
   2   -123.9764039 -0.201504E-04  0.622E-02    2.25       1.0  T
   3   -123.9763819  0.219634E-04  0.208E-02    2.25       1.0  T
   4   -123.9764082 -0.263142E-04  0.529E-03    2.25       2.3  T
   5   -123.9764098 -0.157436E-05  0.220E-03    2.25       5.4  T
   6   -123.9764100 -0.164735E-06  0.981E-04    2.25      12.2  T
   7   -123.9764100 -0.222179E-07  0.391E-04    2.25      30.6  T
     SCC iter.                  ...        0 min,  0.148 sec
     gradient                   ...        0 min,  0.138 sec
 * total energy  :  -122.1067815 Eh     change       -0.4812312E-03 Eh
   gradient norm :     0.0079957 Eh/α   predicted    -0.4115611E-03 ( -14.48%)
   displ. norm   :     0.4221305 α      lambda       -0.5152117E-03
   maximum displ.:     0.2210111 α      in ANC's #7, #6, #13, ...

........................................................................
.............................. CYCLE   14 ..............................
........................................................................
   1   -123.9816056 -0.123982E+03  0.105E-01    2.24       0.0  T
   2   -123.9816163 -0.106358E-04  0.608E-02    2.24       1.0  T
   3   -123.9815882  0.280285E-04  0.213E-02    2.24       1.0  T
   4   -123.9816207 -0.324316E-04  0.472E-03    2.24       2.5  T
   5   -123.9816217 -0.102193E-05  0.205E-03    2.24       5.8  T
   6   -123.9816218 -0.925137E-07  0.903E-04    2.24      13.2  T
   7   -123.9816218 -0.153837E-07  0.278E-04    2.24      43.0  T
     SCC iter.                  ...        0 min,  0.142 sec
     gradient                   ...        0 min,  0.153 sec
 * total energy  :  -122.1071499 Eh     change       -0.3684203E-03 Eh
   gradient norm :     0.0073415 Eh/α   predicted    -0.3035112E-03 ( -17.62%)
   displ. norm   :     0.5117354 α      lambda       -0.4356752E-03
   maximum displ.:     0.2814238 α      in ANC's #7, #6, #14, ...

........................................................................
.............................. CYCLE   15 ..............................
........................................................................
   1   -123.9796184 -0.123980E+03  0.117E-01    2.21       0.0  T
   2   -123.9796307 -0.123634E-04  0.686E-02    2.22       1.0  T
   3   -123.9795899  0.408469E-04  0.254E-02    2.21       1.0  T
   4   -123.9796374 -0.475131E-04  0.488E-03    2.22       2.5  T
   5   -123.9796385 -0.107388E-05  0.215E-03    2.22       5.6  T
   6   -123.9796386 -0.106026E-06  0.855E-04    2.22      14.0  T
   7   -123.9796386 -0.133347E-07  0.343E-04    2.21      34.9  T
     SCC iter.                  ...        0 min,  0.142 sec
     gradient                   ...        0 min,  0.132 sec
 * total energy  :  -122.1074632 Eh     change       -0.3132440E-03 Eh
   gradient norm :     0.0056367 Eh/α   predicted    -0.2748837E-03 ( -12.25%)
   displ. norm   :     0.3882848 α      lambda       -0.3350458E-03
   maximum displ.:     0.2309465 α      in ANC's #7, #6, #14, ...

........................................................................
.............................. CYCLE   16 ..............................
........................................................................
   1   -123.9826540 -0.123983E+03  0.886E-02    2.20       0.0  T
   2   -123.9826601 -0.606486E-05  0.519E-02    2.20       1.0  T
   3   -123.9826372  0.228758E-04  0.189E-02    2.20       1.0  T
   4   -123.9826633 -0.260512E-04  0.359E-03    2.20       3.3  T
   5   -123.9826638 -0.568542E-06  0.163E-03    2.20       7.3  T
   6   -123.9826639 -0.689194E-07  0.685E-04    2.20      17.5  T
   7   -123.9826639 -0.629433E-08  0.259E-04    2.20      46.1  T
     SCC iter.                  ...        0 min,  0.142 sec
     gradient                   ...        0 min,  0.130 sec
 * total energy  :  -122.1077361 Eh     change       -0.2728816E-03 Eh
   gradient norm :     0.0060822 Eh/α   predicted    -0.1927821E-03 ( -29.35%)
   displ. norm   :     0.5106305 α      lambda       -0.4374805E-03
   maximum displ.:     0.3016405 α      in ANC's #7, #6, #14, ...

........................................................................
.............................. CYCLE   17 ..............................
........................................................................
   1   -123.9812351 -0.123981E+03  0.110E-01    2.17       0.0  T
   2   -123.9812435 -0.846658E-05  0.647E-02    2.18       1.0  T
   3   -123.9812071  0.364270E-04  0.231E-02    2.17       1.0  T
   4   -123.9812481 -0.410146E-04  0.435E-03    2.18       2.7  T
   5   -123.9812490 -0.922627E-06  0.178E-03    2.17       6.7  T
   6   -123.9812491 -0.858881E-07  0.811E-04    2.17      14.7  T
   7   -123.9812491 -0.526013E-08  0.325E-04    2.17      36.8  T
     SCC iter.                  ...        0 min,  0.142 sec
     gradient                   ...        0 min,  0.143 sec
 * total energy  :  -122.1080918 Eh     change       -0.3557065E-03 Eh
   gradient norm :     0.0064434 Eh/α   predicted    -0.2757764E-03 ( -22.47%)
   displ. norm   :     0.5504136 α      lambda       -0.5146179E-03
   maximum displ.:     0.3036038 α      in ANC's #7, #6, #9, ...

........................................................................
.............................. CYCLE   18 ..............................
........................................................................
   1   -123.9826859 -0.123983E+03  0.112E-01    2.15       0.0  T
   2   -123.9826956 -0.973884E-05  0.663E-02    2.16       1.0  T
   3   -123.9826633  0.323184E-04  0.220E-02    2.16       1.0  T
   4   -123.9827001 -0.367894E-04  0.426E-03    2.16       2.8  T
   5   -123.9827009 -0.770274E-06  0.203E-03    2.16       5.9  T
   6   -123.9827010 -0.119566E-06  0.921E-04    2.16      13.0  T
   7   -123.9827010 -0.120794E-07  0.351E-04    2.16      34.1  T
     SCC iter.                  ...        0 min,  0.144 sec
     gradient                   ...        0 min,  0.149 sec
 * total energy  :  -122.1084530 Eh     change       -0.3612200E-03 Eh
   gradient norm :     0.0086348 Eh/α   predicted    -0.3352636E-03 (  -7.19%)
   displ. norm   :     0.4559041 α      lambda       -0.3957440E-03
   maximum displ.:     0.2618125 α      in ANC's #7, #6, #14, ...

........................................................................
.............................. CYCLE   19 ..............................
........................................................................
   1   -123.9779683 -0.123978E+03  0.913E-02    2.13       0.0  T
   2   -123.9779757 -0.740860E-05  0.537E-02    2.14       1.0  T
   3   -123.9779616  0.141473E-04  0.149E-02    2.13       1.0  T
   4   -123.9779784 -0.167953E-04  0.295E-03    2.14       4.0  T
   5   -123.9779787 -0.314149E-06  0.166E-03    2.14       7.2  T
   6   -123.9779788 -0.811412E-07  0.763E-04    2.14      15.7  T
   7   -123.9779788 -0.108434E-07  0.276E-04    2.14      43.4  T
     SCC iter.                  ...        0 min,  0.141 sec
     gradient                   ...        0 min,  0.149 sec
 * total energy  :  -122.1087416 Eh     change       -0.2886178E-03 Eh
   gradient norm :     0.0082183 Eh/α   predicted    -0.2390008E-03 ( -17.19%)
   displ. norm   :     0.3444176 α      lambda       -0.4266565E-03
   maximum displ.:     0.1574542 α      in ANC's #7, #6, #22, ...

........................................................................
.............................. CYCLE   20 ..............................
........................................................................
   1   -123.9796559 -0.123980E+03  0.701E-02    2.13       0.0  T
   2   -123.9796613 -0.533426E-05  0.407E-02    2.13       1.0  T
   3   -123.9796566  0.469914E-05  0.105E-02    2.14       1.1  T
   4   -123.9796625 -0.595105E-05  0.277E-03    2.13       4.3  T
   5   -123.9796628 -0.247616E-06  0.148E-03    2.13       8.1  T
   6   -123.9796628 -0.597877E-07  0.675E-04    2.13      17.7  T
   7   -123.9796628 -0.136414E-07  0.208E-04    2.13      57.5  T
     SCC iter.                  ...        0 min,  0.147 sec
     gradient                   ...        0 min,  0.126 sec
 * total energy  :  -122.1090436 Eh     change       -0.3020365E-03 Eh
   gradient norm :     0.0079815 Eh/α   predicted    -0.2386363E-03 ( -20.99%)
   displ. norm   :     0.4523614 α      lambda       -0.4513282E-03
   maximum displ.:     0.2300443 α      in ANC's #7, #14, #6, ...
 * RMSD in coord.:     0.7640081 α      energy gain  -0.3035273E-01 Eh

generating ANC from model Hessian ...
Using Lindh-Hessian (1995)
 Shifting diagonal of input Hessian by    1.0118296260874793E-002
 Lowest  eigenvalues of input Hessian
    0.010000    0.000000    0.000000    0.000000    0.000000    0.000000
    0.000000    0.010345    0.010442    0.010541    0.010601    0.010657
    0.010733    0.010809    0.010937    0.011278    0.011870    0.012035
 Highest eigenvalues
    2.104683    2.342600    2.349320    2.353883    2.624495    2.629393


........................................................................
.............................. CYCLE   21 ..............................
........................................................................
   1   -123.9771392 -0.123977E+03  0.916E-02    2.13       0.0  T
   2   -123.9771462 -0.695860E-05  0.540E-02    2.13       1.0  T
   3   -123.9771342  0.120366E-04  0.155E-02    2.13       1.0  T
   4   -123.9771489 -0.147276E-04  0.335E-03    2.13       3.6  T
   5   -123.9771492 -0.264197E-06  0.205E-03    2.13       5.8  T
   6   -123.9771493 -0.119851E-06  0.859E-04    2.13      13.9  T
   7   -123.9771493 -0.181303E-07  0.292E-04    2.13      40.9  T
     SCC iter.                  ...        0 min,  0.146 sec
     gradient                   ...        0 min,  0.119 sec
 * total energy  :  -122.1092735 Eh     change       -0.2298784E-03 Eh
   gradient norm :     0.0123640 Eh/α   predicted     0.0000000E+00 (-100.00%)
   displ. norm   :     0.1034256 α      lambda       -0.4863209E-03
   maximum displ.:     0.0472688 α      in ANC's #14, #18, #21, ...

........................................................................
.............................. CYCLE   22 ..............................
........................................................................
   1   -123.9814774 -0.123981E+03  0.403E-02    2.13       0.0  T
   2   -123.9814802 -0.278871E-05  0.236E-02    2.13       1.0  T
   3   -123.9814779  0.232412E-05  0.733E-03    2.13       1.6  T
   4   -123.9814810 -0.310962E-05  0.166E-03    2.13       7.2  T
   5   -123.9814811 -0.657531E-07  0.835E-04    2.13      14.3  T
   6   -123.9814811 -0.311994E-08  0.484E-04    2.13      24.7  T
     SCC iter.                  ...        0 min,  0.121 sec
     gradient                   ...        0 min,  0.127 sec
 * total energy  :  -122.1096246 Eh     change       -0.3510635E-03 Eh
   gradient norm :     0.0042462 Eh/α   predicted    -0.2458633E-03 ( -29.97%)
   displ. norm   :     0.1905352 α      lambda       -0.3526715E-03
   maximum displ.:     0.1086262 α      in ANC's #14, #18, #21, ...

........................................................................
.............................. CYCLE   23 ..............................
........................................................................
   1   -123.9841174 -0.123984E+03  0.599E-02    2.13       0.0  T
   2   -123.9841234 -0.605723E-05  0.352E-02    2.13       1.0  T
   3   -123.9841155  0.790878E-05  0.128E-02    2.14       1.0  T
   4   -123.9841252 -0.966268E-05  0.287E-03    2.14       4.2  T
   5   -123.9841254 -0.244456E-06  0.170E-03    2.14       7.0  T
   6   -123.9841255 -0.115031E-06  0.694E-04    2.14      17.2  T
   7   -123.9841255 -0.620605E-08  0.237E-04    2.14      50.5  T
     SCC iter.                  ...        0 min,  0.145 sec
     gradient                   ...        0 min,  0.142 sec
 * total energy  :  -122.1098810 Eh     change       -0.2564326E-03 Eh
   gradient norm :     0.0038786 Eh/α   predicted    -0.1828219E-03 ( -28.71%)
   displ. norm   :     0.4429902 α      lambda       -0.5931501E-03
   maximum displ.:     0.2510750 α      in ANC's #14, #18, #21, ...

........................................................................
.............................. CYCLE   24 ..............................
........................................................................
   1   -123.9837927 -0.123984E+03  0.151E-01    2.14       0.0  T
   2   -123.9838220 -0.292508E-04  0.871E-02    2.14       1.0  T
   3   -123.9837870  0.349823E-04  0.269E-02    2.14       1.0  T
   4   -123.9838316 -0.446045E-04  0.653E-03    2.14       1.8  T
   5   -123.9838324 -0.778947E-06  0.401E-03    2.14       3.0  T
   6   -123.9838330 -0.593981E-06  0.155E-03    2.14       7.7  T
   7   -123.9838330 -0.409130E-07  0.427E-04    2.14      28.0  T
   8   -123.9838330 -0.622887E-08  0.179E-04    2.14      66.9  T
     SCC iter.                  ...        0 min,  0.163 sec
     gradient                   ...        0 min,  0.118 sec
 * total energy  :  -122.1101253 Eh     change       -0.2442806E-03 Eh
   gradient norm :     0.0095608 Eh/α   predicted    -0.3547761E-03 (  45.23%)
   displ. norm   :     0.2917712 α      lambda       -0.5135605E-03
   maximum displ.:     0.1853153 α      in ANC's #14, #18, #3, ...

........................................................................
.............................. CYCLE   25 ..............................
........................................................................
   1   -123.9819062 -0.123982E+03  0.125E-01    2.15       0.0  T
   2   -123.9819224 -0.161584E-04  0.707E-02    2.15       1.0  T
   3   -123.9819134  0.899732E-05  0.152E-02    2.15       1.0  T
   4   -123.9819287 -0.153429E-04  0.402E-03    2.15       3.0  T
   5   -123.9819288 -0.262564E-07  0.238E-03    2.15       5.0  T
   6   -123.9819290 -0.182782E-06  0.101E-03    2.15      11.9  T
   7   -123.9819290 -0.400685E-07  0.310E-04    2.15      38.5  T
   8   -123.9819290 -0.285077E-08  0.148E-04    2.15      80.8  T
     SCC iter.                  ...        0 min,  0.162 sec
     gradient                   ...        0 min,  0.140 sec
 * total energy  :  -122.1103021 Eh     change       -0.1768544E-03 Eh
   gradient norm :     0.0116539 Eh/α   predicted    -0.2786403E-03 (  57.55%)
   displ. norm   :     0.1476639 α      lambda       -0.4488876E-03
   maximum displ.:     0.0805412 α      in ANC's #18, #21, #14, ...

........................................................................
.............................. CYCLE   26 ..............................
........................................................................
   1   -123.9845244 -0.123985E+03  0.771E-02    2.14       0.0  T
   2   -123.9845320 -0.769862E-05  0.439E-02    2.14       1.0  T
   3   -123.9845263  0.578777E-05  0.120E-02    2.14       1.0  T
   4   -123.9845342 -0.792635E-05  0.355E-03    2.14       3.4  T
   5   -123.9845346 -0.413967E-06  0.178E-03    2.14       6.7  T
   6   -123.9845347 -0.605325E-07  0.795E-04    2.14      15.0  T
   7   -123.9845347 -0.294860E-07  0.205E-04    2.14      58.4  T
     SCC iter.                  ...        0 min,  0.141 sec
     gradient                   ...        0 min,  0.137 sec
 * total energy  :  -122.1104407 Eh     change       -0.1385215E-03 Eh
   gradient norm :     0.0051721 Eh/α   predicted    -0.2293627E-03 (  65.58%)
   displ. norm   :     0.1743157 α      lambda       -0.2220896E-03
   maximum displ.:     0.1021133 α      in ANC's #14, #3, #21, ...

........................................................................
.............................. CYCLE   27 ..............................
........................................................................
   1   -123.9840051 -0.123984E+03  0.618E-02    2.14       0.0  T
   2   -123.9840088 -0.368195E-05  0.354E-02    2.14       1.0  T
   3   -123.9840034  0.541543E-05  0.103E-02    2.14       1.2  T
   4   -123.9840102 -0.687904E-05  0.254E-03    2.14       4.7  T
   5   -123.9840104 -0.145313E-06  0.148E-03    2.14       8.1  T
   6   -123.9840104 -0.662881E-07  0.475E-04    2.14      25.2  T
   7   -123.9840104 -0.344841E-08  0.141E-04    2.14      84.6  T
     SCC iter.                  ...        0 min,  0.139 sec
     gradient                   ...        0 min,  0.123 sec
 * total energy  :  -122.1105907 Eh     change       -0.1500419E-03 Eh
   gradient norm :     0.0039579 Eh/α   predicted    -0.1144201E-03 ( -23.74%)
   displ. norm   :     0.2303448 α      lambda       -0.1599493E-03
   maximum displ.:     0.1294875 α      in ANC's #14, #3, #17, ...

........................................................................
.............................. CYCLE   28 ..............................
........................................................................
   1   -123.9818493 -0.123982E+03  0.598E-02    2.14       0.0  T
   2   -123.9818527 -0.336868E-05  0.352E-02    2.14       1.0  T
   3   -123.9818450  0.764809E-05  0.117E-02    2.14       1.0  T
   4   -123.9818540 -0.904389E-05  0.241E-03    2.14       5.0  T
   5   -123.9818542 -0.163739E-06  0.142E-03    2.14       8.4  T
   6   -123.9818543 -0.729887E-07  0.527E-04    2.14      22.7  T
   7   -123.9818543 -0.422467E-08  0.171E-04    2.14      70.0  T
     SCC iter.                  ...        0 min,  0.142 sec
     gradient                   ...        0 min,  0.132 sec
 * total energy  :  -122.1106796 Eh     change       -0.8892483E-04 Eh
   gradient norm :     0.0051934 Eh/α   predicted    -0.8421920E-04 (  -5.29%)
   displ. norm   :     0.1265675 α      lambda       -0.7962385E-04
   maximum displ.:     0.0648603 α      in ANC's #3, #14, #17, ...

........................................................................
.............................. CYCLE   29 ..............................
........................................................................
   1   -123.9823707 -0.123982E+03  0.341E-02    2.14       0.0  T
   2   -123.9823714 -0.742011E-06  0.198E-02    2.14       1.0  T
   3   -123.9823691  0.230330E-05  0.640E-03    2.14       1.9  T
   4   -123.9823718 -0.268854E-05  0.125E-03    2.14       9.6  T
   5   -123.9823718 -0.379564E-07  0.711E-04    2.14      16.8  T
   6   -123.9823718 -0.135979E-07  0.221E-04    2.14      54.1  T
     SCC iter.                  ...        0 min,  0.121 sec
     gradient                   ...        0 min,  0.138 sec
 * total energy  :  -122.1107414 Eh     change       -0.6179653E-04 Eh
   gradient norm :     0.0040214 Eh/α   predicted    -0.4046091E-04 ( -34.53%)
   displ. norm   :     0.1836237 α      lambda       -0.1133253E-03
   maximum displ.:     0.1087165 α      in ANC's #3, #17, #2, ...

........................................................................
.............................. CYCLE   30 ..............................
........................................................................
   1   -123.9842140 -0.123984E+03  0.386E-02    2.14       0.0  T
   2   -123.9842149 -0.867888E-06  0.227E-02    2.14       1.0  T
   3   -123.9842140  0.835413E-06  0.394E-03    2.14       3.0  T
   4   -123.9842151 -0.112209E-05  0.116E-03    2.14      10.3  T
   5   -123.9842152 -0.252048E-07  0.640E-04    2.14      18.7  T
   6   -123.9842152 -0.691696E-08  0.317E-04    2.14      37.7  T
     SCC iter.                  ...        0 min,  0.115 sec
     gradient                   ...        0 min,  0.124 sec
 * total energy  :  -122.1108044 Eh     change       -0.6300543E-04 Eh
   gradient norm :     0.0028133 Eh/α   predicted    -0.5857344E-04 (  -7.03%)
   displ. norm   :     0.2311924 α      lambda       -0.7560902E-04
   maximum displ.:     0.1343956 α      in ANC's #3, #14, #2, ...

........................................................................
.............................. CYCLE   31 ..............................
........................................................................
   1   -123.9837445 -0.123984E+03  0.524E-02    2.14       0.0  T
   2   -123.9837458 -0.128132E-05  0.310E-02    2.14       1.0  T
   3   -123.9837431  0.271901E-05  0.675E-03    2.14       1.8  T
   4   -123.9837463 -0.327659E-05  0.181E-03    2.14       6.6  T
   5   -123.9837464 -0.536252E-07  0.110E-03    2.14      10.9  T
   6   -123.9837464 -0.376537E-07  0.338E-04    2.14      35.3  T
   7   -123.9837464 -0.366994E-08  0.116E-04    2.14     102.8  T
     SCC iter.                  ...        0 min,  0.145 sec
     gradient                   ...        0 min,  0.130 sec
 * total energy  :  -122.1108420 Eh     change       -0.3761227E-04 Eh
   gradient norm :     0.0031724 Eh/α   predicted    -0.3982683E-04 (   5.89%)
   displ. norm   :     0.0736043 α      lambda       -0.4497101E-04
   maximum displ.:     0.0480236 α      in ANC's #3, #2, #4, ...

........................................................................
.............................. CYCLE   32 ..............................
........................................................................
   1   -123.9845786 -0.123985E+03  0.170E-02    2.14       0.0  T
   2   -123.9845788 -0.174747E-06  0.100E-02    2.14       1.2  T
   3   -123.9845780  0.856688E-06  0.379E-03    2.14       3.2  T
   4   -123.9845789 -0.965347E-06  0.667E-04    2.14      17.9  T
   5   -123.9845789 -0.172119E-07  0.316E-04    2.14      37.8  T
     SCC iter.                  ...        0 min,  0.102 sec
     gradient                   ...        0 min,  0.112 sec
 * total energy  :  -122.1108807 Eh     change       -0.3868117E-04 Eh
   gradient norm :     0.0022798 Eh/α   predicted    -0.2261012E-04 ( -41.55%)
   displ. norm   :     0.3200857 α      lambda       -0.1275220E-03
   maximum displ.:     0.2224256 α      in ANC's #3, #2, #4, ...

........................................................................
.............................. CYCLE   33 ..............................
........................................................................
   1   -123.9852294 -0.123985E+03  0.696E-02    2.14       0.0  T
   2   -123.9852311 -0.162563E-05  0.410E-02    2.14       1.0  T
   3   -123.9852185  0.125140E-04  0.142E-02    2.14       1.0  T
   4   -123.9852326 -0.140185E-04  0.210E-03    2.14       5.7  T
   5   -123.9852326 -0.645545E-07  0.118E-03    2.14      10.1  T
   6   -123.9852327 -0.339412E-07  0.376E-04    2.14      31.8  T
   7   -123.9852327 -0.531909E-08  0.130E-04    2.14      92.3  T
     SCC iter.                  ...        0 min,  0.142 sec
     gradient                   ...        0 min,  0.135 sec
 * total energy  :  -122.1109676 Eh     change       -0.8691741E-04 Eh
   gradient norm :     0.0026477 Eh/α   predicted    -0.7029485E-04 ( -19.12%)
   displ. norm   :     0.2634199 α      lambda       -0.5908667E-04
   maximum displ.:     0.1889618 α      in ANC's #3, #2, #4, ...

........................................................................
.............................. CYCLE   34 ..............................
........................................................................
   1   -123.9848957 -0.123985E+03  0.499E-02    2.13       0.0  T
   2   -123.9848963 -0.599594E-06  0.296E-02    2.13       1.0  T
   3   -123.9848925  0.381563E-05  0.753E-03    2.13       1.6  T
   4   -123.9848968 -0.427262E-05  0.132E-03    2.13       9.1  T
   5   -123.9848968 -0.297031E-07  0.743E-04    2.13      16.1  T
   6   -123.9848968 -0.136583E-07  0.229E-04    2.13      52.2  T
     SCC iter.                  ...        0 min,  0.125 sec
     gradient                   ...        0 min,  0.126 sec
 * total energy  :  -122.1110150 Eh     change       -0.4737080E-04 Eh
   gradient norm :     0.0025852 Eh/α   predicted    -0.3159399E-04 ( -33.30%)
   displ. norm   :     0.1827247 α      lambda       -0.5223750E-04
   maximum displ.:     0.1289032 α      in ANC's #3, #2, #4, ...

........................................................................
.............................. CYCLE   35 ..............................
........................................................................
   1   -123.9848349 -0.123985E+03  0.342E-02    2.13       0.0  T
   2   -123.9848354 -0.468563E-06  0.201E-02    2.13       1.0  T
   3   -123.9848340  0.140482E-05  0.450E-03    2.13       2.7  T
   4   -123.9848355 -0.154229E-05  0.116E-03    2.13      10.3  T
   5   -123.9848356 -0.711715E-07  0.436E-04    2.13      27.4  T
   6   -123.9848356 -0.272202E-08  0.210E-04    2.13      56.9  T
     SCC iter.                  ...        0 min,  0.121 sec
     gradient                   ...        0 min,  0.133 sec
 * total energy  :  -122.1110592 Eh     change       -0.4421677E-04 Eh
   gradient norm :     0.0021092 Eh/α   predicted    -0.2699426E-04 ( -38.95%)
   displ. norm   :     0.2718834 α      lambda       -0.7307238E-04
   maximum displ.:     0.1956919 α      in ANC's #3, #2, #4, ...

........................................................................
.............................. CYCLE   36 ..............................
........................................................................
   1   -123.9843963 -0.123984E+03  0.472E-02    2.13       0.0  T
   2   -123.9843971 -0.807710E-06  0.278E-02    2.13       1.0  T
   3   -123.9843959  0.116879E-05  0.432E-03    2.12       2.8  T
   4   -123.9843973 -0.137548E-05  0.127E-03    2.12       9.4  T
   5   -123.9843974 -0.728863E-07  0.620E-04    2.12      19.3  T
   6   -123.9843974 -0.530440E-08  0.307E-04    2.12      38.9  T
     SCC iter.                  ...        0 min,  0.128 sec
     gradient                   ...        0 min,  0.129 sec
 * total energy  :  -122.1111192 Eh     change       -0.6000839E-04 Eh
   gradient norm :     0.0019397 Eh/α   predicted    -0.3924077E-04 ( -34.61%)
   displ. norm   :     0.3246069 α      lambda       -0.5528842E-04
   maximum displ.:     0.2274884 α      in ANC's #3, #2, #4, ...

........................................................................
.............................. CYCLE   37 ..............................
........................................................................
   1   -123.9838425 -0.123984E+03  0.559E-02    2.12       0.0  T
   2   -123.9838437 -0.115307E-05  0.327E-02    2.12       1.0  T
   3   -123.9838413  0.235426E-05  0.592E-03    2.12       2.0  T
   4   -123.9838442 -0.286717E-05  0.106E-03    2.12      11.3  T
   5   -123.9838442 -0.224478E-07  0.610E-04    2.12      19.6  T
   6   -123.9838442 -0.439751E-08  0.333E-04    2.12      35.9  T
     SCC iter.                  ...        0 min,  0.121 sec
     gradient                   ...        0 min,  0.133 sec
 * total energy  :  -122.1111826 Eh     change       -0.6333067E-04 Eh
   gradient norm :     0.0031016 Eh/α   predicted    -0.2894116E-04 ( -54.30%)
   displ. norm   :     0.1958670 α      lambda       -0.4543047E-04
   maximum displ.:     0.1428352 α      in ANC's #3, #2, #4, ...

........................................................................
.............................. CYCLE   38 ..............................
........................................................................
   1   -123.9839122 -0.123984E+03  0.297E-02    2.12       0.0  T
   2   -123.9839126 -0.398785E-06  0.175E-02    2.12       1.0  T
   3   -123.9839115  0.116747E-05  0.416E-03    2.12       2.9  T
   4   -123.9839128 -0.135758E-05  0.746E-04    2.12      16.0  T
   5   -123.9839129 -0.156840E-07  0.455E-04    2.12      26.3  T
   6   -123.9839129 -0.716949E-08  0.176E-04    2.12      68.0  T
     SCC iter.                  ...        0 min,  0.122 sec
     gradient                   ...        0 min,  0.150 sec
 * total energy  :  -122.1112220 Eh     change       -0.3944011E-04 Eh
   gradient norm :     0.0023844 Eh/α   predicted    -0.2358885E-04 ( -40.19%)
   displ. norm   :     0.2055367 α      lambda       -0.5191629E-04
   maximum displ.:     0.1478267 α      in ANC's #3, #2, #4, ...

........................................................................
.............................. CYCLE   39 ..............................
........................................................................
   1   -123.9841868 -0.123984E+03  0.310E-02    2.13       0.0  T
   2   -123.9841877 -0.877789E-06  0.181E-02    2.13       1.0  T
   3   -123.9841851  0.255900E-05  0.655E-03    2.13       1.8  T
   4   -123.9841881 -0.297119E-05  0.119E-03    2.13      10.1  T
   5   -123.9841882 -0.733376E-07  0.510E-04    2.13      23.4  T
   6   -123.9841882 -0.860938E-08  0.209E-04    2.13      57.2  T
     SCC iter.                  ...        0 min,  0.118 sec
     gradient                   ...        0 min,  0.087 sec
 * total energy  :  -122.1112665 Eh     change       -0.4453755E-04 Eh
   gradient norm :     0.0013711 Eh/α   predicted    -0.2705575E-04 ( -39.25%)
   displ. norm   :     0.3832257 α      lambda       -0.5503336E-04
   maximum displ.:     0.2818402 α      in ANC's #3, #2, #4, ...

........................................................................
.............................. CYCLE   40 ..............................
........................................................................
   1   -123.9840350 -0.123984E+03  0.571E-02    2.14       0.0  T
   2   -123.9840382 -0.315850E-05  0.334E-02    2.13       1.0  T
   3   -123.9840279  0.102937E-04  0.132E-02    2.13       1.0  T
   4   -123.9840398 -0.118906E-04  0.245E-03    2.13       4.9  T
   5   -123.9840401 -0.321069E-06  0.975E-04    2.13      12.3  T
   6   -123.9840401 -0.277462E-07  0.403E-04    2.13      29.6  T
     SCC iter.                  ...        0 min,  0.122 sec
     gradient                   ...        0 min,  0.121 sec
 * total energy  :  -122.1113272 Eh     change       -0.6064516E-04 Eh
   gradient norm :     0.0019069 Eh/α   predicted    -0.2931737E-04 ( -51.66%)
   displ. norm   :     0.3833719 α      lambda        0.1467493E-05
   maximum displ.:     0.2818404 α      in ANC's #3, #2, #4, ...

........................................................................
.............................. CYCLE   41 ..............................
........................................................................
   1   -123.9830211 -0.123983E+03  0.572E-02    2.14       0.0  T
   2   -123.9830246 -0.351352E-05  0.335E-02    2.14       1.0  T
   3   -123.9830140  0.106761E-04  0.136E-02    2.14       1.0  T
   4   -123.9830264 -0.124285E-04  0.252E-03    2.14       4.7  T
   5   -123.9830267 -0.336286E-06  0.102E-03    2.14      11.7  T
   6   -123.9830268 -0.333627E-07  0.410E-04    2.14      29.1  T
   7   -123.9830268 -0.194865E-08  0.157E-04    2.14      76.1  T
     SCC iter.                  ...        0 min,  0.140 sec
     gradient                   ...        0 min,  0.135 sec
 * total energy  :  -122.1113407 Eh     change       -0.1347053E-04 Eh
   gradient norm :     0.0044319 Eh/α   predicted     0.7792079E-06 (-105.78%)
   displ. norm   :     0.0370424 α      lambda       -0.2671595E-04
   maximum displ.:     0.0225733 α      in ANC's #3, #2, #21, ...

........................................................................
.............................. CYCLE   42 ..............................
........................................................................
   1   -123.9838296 -0.123984E+03  0.862E-03    2.14       0.0  T
   2   -123.9838298 -0.177202E-06  0.504E-03    2.14       2.4  T
   3   -123.9838297  0.139037E-06  0.192E-03    2.14       6.2  T
   4   -123.9838298 -0.184683E-06  0.383E-04    2.14      31.2  T
   5   -123.9838298 -0.629292E-08  0.163E-04    2.14      73.3  T
     SCC iter.                  ...        0 min,  0.102 sec
     gradient                   ...        0 min,  0.083 sec
 * total energy  :  -122.1113640 Eh     change       -0.2330371E-04 Eh
   gradient norm :     0.0032085 Eh/α   predicted    -0.1338036E-04 ( -42.58%)
   displ. norm   :     0.2352824 α      lambda       -0.9929570E-04
   maximum displ.:     0.1644848 α      in ANC's #3, #2, #4, ...
 * RMSD in coord.:     0.4547518 α      energy gain  -0.2320334E-02 Eh

generating ANC from model Hessian ...
Using Lindh-Hessian (1995)
 Shifting diagonal of input Hessian by    1.0224461114232664E-002
 Lowest  eigenvalues of input Hessian
    0.010000    0.000000    0.000000    0.000000    0.000000    0.000000
    0.000000    0.010444    0.010533    0.010663    0.010704    0.010761
    0.010834    0.010929    0.011095    0.011367    0.011983    0.012143
 Highest eigenvalues
    2.106384    2.345675    2.350957    2.357449    2.626609    2.632567


........................................................................
.............................. CYCLE   43 ..............................
........................................................................
   1   -123.9854138 -0.123985E+03  0.463E-02    2.14       0.0  T
   2   -123.9854162 -0.244183E-05  0.270E-02    2.14       1.0  T
   3   -123.9854133  0.298021E-05  0.775E-03    2.14       1.5  T
   4   -123.9854170 -0.370415E-05  0.167E-03    2.14       7.2  T
   5   -123.9854171 -0.100489E-06  0.792E-04    2.14      15.1  T
   6   -123.9854171 -0.138424E-07  0.426E-04    2.14      28.1  T
     SCC iter.                  ...        0 min,  0.123 sec
     gradient                   ...        0 min,  0.151 sec
 * total energy  :  -122.1114263 Eh     change       -0.6232558E-04 Eh
   gradient norm :     0.0023051 Eh/α   predicted     0.0000000E+00 (-100.00%)
   displ. norm   :     0.0242226 α      lambda       -0.1456892E-04
   maximum displ.:     0.0144571 α      in ANC's #3, #9, #7, ...

........................................................................
.............................. CYCLE   44 ..............................
........................................................................
   1   -123.9845287 -0.123985E+03  0.759E-03    2.14       0.0  T
   2   -123.9845288 -0.103951E-06  0.445E-03    2.14       2.7  T
   3   -123.9845287  0.119389E-06  0.158E-03    2.14       7.5  T
   4   -123.9845289 -0.156354E-06  0.317E-04    2.14      37.7  T
   5   -123.9845289 -0.437350E-08  0.165E-04    2.14      72.4  T
     SCC iter.                  ...        0 min,  0.108 sec
     gradient                   ...        0 min,  0.127 sec
 * total energy  :  -122.1114373 Eh     change       -0.1099432E-04 Eh
   gradient norm :     0.0008651 Eh/α   predicted    -0.7293827E-05 ( -33.66%)
   displ. norm   :     0.0837579 α      lambda       -0.1737717E-04
   maximum displ.:     0.0521441 α      in ANC's #3, #9, #7, ...

........................................................................
.............................. CYCLE   45 ..............................
........................................................................
   1   -123.9836417 -0.123984E+03  0.194E-02    2.14       0.0  T
   2   -123.9836421 -0.421997E-06  0.114E-02    2.14       1.0  T
   3   -123.9836413  0.884111E-06  0.433E-03    2.14       2.8  T
   4   -123.9836423 -0.103633E-05  0.943E-04    2.14      12.7  T
   5   -123.9836423 -0.465917E-07  0.371E-04    2.14      32.2  T
   6   -123.9836423 -0.253785E-08  0.182E-04    2.14      65.5  T
     SCC iter.                  ...        0 min,  0.123 sec
     gradient                   ...        0 min,  0.138 sec
 * total energy  :  -122.1114506 Eh     change       -0.1328035E-04 Eh
   gradient norm :     0.0022433 Eh/α   predicted    -0.8728591E-05 ( -34.27%)
   displ. norm   :     0.0521936 α      lambda       -0.1381057E-04
   maximum displ.:     0.0319878 α      in ANC's #3, #9, #7, ...

........................................................................
.............................. CYCLE   46 ..............................
........................................................................
   1   -123.9838030 -0.123984E+03  0.189E-02    2.14       0.0  T
   2   -123.9838032 -0.231561E-06  0.107E-02    2.14       1.1  T
   3   -123.9838022  0.100594E-05  0.406E-03    2.14       2.9  T
   4   -123.9838034 -0.118984E-05  0.512E-04    2.14      23.4  T
   5   -123.9838034 -0.333235E-08  0.313E-04    2.14      38.2  T
   6   -123.9838034 -0.297800E-08  0.879E-05    2.14     135.9  T
     SCC iter.                  ...        0 min,  0.126 sec
     gradient                   ...        0 min,  0.129 sec
 * total energy  :  -122.1114597 Eh     change       -0.9097538E-05 Eh
   gradient norm :     0.0021420 Eh/α   predicted    -0.6943271E-05 ( -23.68%)
   displ. norm   :     0.0640530 α      lambda       -0.1633288E-04
   maximum displ.:     0.0413602 α      in ANC's #3, #9, #7, ...

........................................................................
.............................. CYCLE   47 ..............................
........................................................................
   1   -123.9844276 -0.123984E+03  0.124E-02    2.14       0.0  T
   2   -123.9844277 -0.101484E-06  0.733E-03    2.14       1.6  T
   3   -123.9844275  0.257628E-06  0.202E-03    2.14       5.9  T
   4   -123.9844278 -0.298380E-06  0.361E-04    2.14      33.1  T
   5   -123.9844278 -0.485865E-08  0.187E-04    2.14      63.9  T
     SCC iter.                  ...        0 min,  0.103 sec
     gradient                   ...        0 min,  0.139 sec
 * total energy  :  -122.1114732 Eh     change       -0.1348969E-04 Eh
   gradient norm :     0.0013026 Eh/α   predicted    -0.8201421E-05 ( -39.20%)
   displ. norm   :     0.1548440 α      lambda       -0.2041535E-04
   maximum displ.:     0.1014477 α      in ANC's #3, #7, #9, ...

........................................................................
.............................. CYCLE   48 ..............................
........................................................................
   1   -123.9854669 -0.123985E+03  0.336E-02    2.14       0.0  T
   2   -123.9854678 -0.899924E-06  0.195E-02    2.14       1.0  T
   3   -123.9854663  0.147153E-05  0.505E-03    2.14       2.4  T
   4   -123.9854681 -0.183110E-05  0.998E-04    2.14      12.0  T
   5   -123.9854682 -0.228686E-07  0.559E-04    2.14      21.4  T
   6   -123.9854682 -0.691800E-08  0.272E-04    2.14      43.9  T
     SCC iter.                  ...        0 min,  0.130 sec
     gradient                   ...        0 min,  0.164 sec
 * total energy  :  -122.1114881 Eh     change       -0.1492945E-04 Eh
   gradient norm :     0.0018818 Eh/α   predicted    -0.1031710E-04 ( -30.89%)
   displ. norm   :     0.1475969 α      lambda       -0.2257313E-04
   maximum displ.:     0.0954146 α      in ANC's #3, #7, #9, ...

........................................................................
.............................. CYCLE   49 ..............................
........................................................................
   1   -123.9858501 -0.123986E+03  0.485E-02    2.15       0.0  T
   2   -123.9858520 -0.187503E-05  0.273E-02    2.15       1.0  T
   3   -123.9858512  0.779182E-06  0.432E-03    2.15       2.8  T
   4   -123.9858527 -0.150895E-05  0.120E-03    2.15      10.0  T
   5   -123.9858528 -0.224426E-07  0.652E-04    2.15      18.3  T
   6   -123.9858528 -0.106792E-07  0.293E-04    2.15      40.8  T
     SCC iter.                  ...        0 min,  0.130 sec
     gradient                   ...        0 min,  0.153 sec
 * total energy  :  -122.1114833 Eh     change        0.4733336E-05 Eh
   gradient norm :     0.0033790 Eh/α   predicted    -0.1139691E-04 (-340.78%)
   displ. norm   :     0.0161275 α      lambda       -0.2713946E-04
   maximum displ.:     0.0067321 α      in ANC's #10, #3, #31, ...

........................................................................
.............................. CYCLE   50 ..............................
........................................................................
   1   -123.9854903 -0.123985E+03  0.172E-02    2.15       0.0  T
   2   -123.9854906 -0.299059E-06  0.954E-03    2.15       1.3  T
   3   -123.9854904  0.194049E-06  0.204E-03    2.15       5.8  T
   4   -123.9854908 -0.320305E-06  0.463E-04    2.15      25.8  T
   5   -123.9854908 -0.643453E-08  0.256E-04    2.15      46.8  T
     SCC iter.                  ...        0 min,  0.102 sec
     gradient                   ...        0 min,  0.124 sec
 * total energy  :  -122.1115035 Eh     change       -0.2011270E-04 Eh
   gradient norm :     0.0018895 Eh/α   predicted    -0.1357449E-04 ( -32.51%)
   displ. norm   :     0.0577061 α      lambda       -0.1881182E-04
   maximum displ.:     0.0406406 α      in ANC's #3, #7, #19, ...

........................................................................
.............................. CYCLE   51 ..............................
........................................................................
   1   -123.9845918 -0.123985E+03  0.274E-02    2.15       0.0  T
   2   -123.9845926 -0.834865E-06  0.153E-02    2.15       1.0  T
   3   -123.9845918  0.761959E-06  0.390E-03    2.15       3.1  T
   4   -123.9845929 -0.110610E-05  0.840E-04    2.15      14.2  T
   5   -123.9845930 -0.248132E-07  0.461E-04    2.15      25.9  T
   6   -123.9845930 -0.613974E-08  0.162E-04    2.15      73.7  T
     SCC iter.                  ...        0 min,  0.123 sec
     gradient                   ...        0 min,  0.134 sec
 * total energy  :  -122.1115145 Eh     change       -0.1101787E-04 Eh
   gradient norm :     0.0014327 Eh/α   predicted    -0.9423488E-05 ( -14.47%)
   displ. norm   :     0.0436756 α      lambda       -0.6119947E-05
   maximum displ.:     0.0320185 α      in ANC's #3, #7, #5, ...

........................................................................
.............................. CYCLE   52 ..............................
........................................................................
   1   -123.9848665 -0.123985E+03  0.915E-03    2.15       0.0  T
   2   -123.9848665 -0.541378E-07  0.527E-03    2.15       2.3  T
   3   -123.9848663  0.183061E-06  0.171E-03    2.15       7.0  T
   4   -123.9848666 -0.217699E-06  0.302E-04    2.15      39.6  T
   5   -123.9848666 -0.197124E-08  0.177E-04    2.15      67.6  T
     SCC iter.                  ...        0 min,  0.104 sec
     gradient                   ...        0 min,  0.133 sec
 * total energy  :  -122.1115216 Eh     change       -0.7142288E-05 Eh
   gradient norm :     0.0007107 Eh/α   predicted    -0.3064861E-05 ( -57.09%)
   displ. norm   :     0.0705807 α      lambda       -0.8316038E-05
   maximum displ.:     0.0515836 α      in ANC's #3, #7, #2, ...

........................................................................
.............................. CYCLE   53 ..............................
........................................................................
   1   -123.9850488 -0.123985E+03  0.137E-02    2.15       0.0  T
   2   -123.9850489 -0.123666E-06  0.782E-03    2.15       1.5  T
   3   -123.9850486  0.322846E-06  0.231E-03    2.15       5.2  T
   4   -123.9850490 -0.392689E-06  0.449E-04    2.15      26.6  T
   5   -123.9850490 -0.470193E-08  0.247E-04    2.15      48.3  T
     SCC iter.                  ...        0 min,  0.102 sec
     gradient                   ...        0 min,  0.133 sec
 * total energy  :  -122.1115304 Eh     change       -0.8788252E-05 Eh
   gradient norm :     0.0006029 Eh/α   predicted    -0.4167679E-05 ( -52.58%)
   displ. norm   :     0.0756584 α      lambda       -0.5994592E-05
   maximum displ.:     0.0552925 α      in ANC's #3, #2, #7, ...

........................................................................
.............................. CYCLE   54 ..............................
........................................................................
   1   -123.9849614 -0.123985E+03  0.119E-02    2.15       0.0  T
   2   -123.9849615 -0.107170E-06  0.690E-03    2.15       1.7  T
   3   -123.9849611  0.400196E-06  0.257E-03    2.15       4.6  T
   4   -123.9849616 -0.464677E-06  0.469E-04    2.15      25.5  T
   5   -123.9849616 -0.888502E-08  0.223E-04    2.15      53.7  T
     SCC iter.                  ...        0 min,  0.103 sec
     gradient                   ...        0 min,  0.133 sec
 * total energy  :  -122.1115382 Eh     change       -0.7769026E-05 Eh
   gradient norm :     0.0005866 Eh/α   predicted    -0.3008727E-05 ( -61.27%)
   displ. norm   :     0.0774237 α      lambda       -0.6147327E-05
   maximum displ.:     0.0564696 α      in ANC's #3, #2, #5, ...

........................................................................
.............................. CYCLE   55 ..............................
........................................................................
   1   -123.9849506 -0.123985E+03  0.142E-02    2.15       0.0  T
   2   -123.9849507 -0.140539E-06  0.815E-03    2.15       1.5  T
   3   -123.9849501  0.567231E-06  0.305E-03    2.15       3.9  T
   4   -123.9849508 -0.663026E-06  0.508E-04    2.15      23.5  T
   5   -123.9849508 -0.868758E-08  0.262E-04    2.15      45.6  T
     SCC iter.                  ...        0 min,  0.106 sec
     gradient                   ...        0 min,  0.147 sec
 * total energy  :  -122.1115464 Eh     change       -0.8230363E-05 Eh
   gradient norm :     0.0005892 Eh/α   predicted    -0.3084770E-05 ( -62.52%)
   displ. norm   :     0.0831328 α      lambda       -0.6521952E-05
   maximum displ.:     0.0611719 α      in ANC's #3, #2, #5, ...

........................................................................
.............................. CYCLE   56 ..............................
........................................................................
   1   -123.9847881 -0.123985E+03  0.154E-02    2.15       0.0  T
   2   -123.9847882 -0.148513E-06  0.885E-03    2.15       1.4  T
   3   -123.9847877  0.529281E-06  0.291E-03    2.15       4.1  T
   4   -123.9847883 -0.623060E-06  0.537E-04    2.15      22.3  T
   5   -123.9847883 -0.786225E-08  0.294E-04    2.15      40.7  T
     SCC iter.                  ...        0 min,  0.105 sec
     gradient                   ...        0 min,  0.152 sec
 * total energy  :  -122.1115548 Eh     change       -0.8353212E-05 Eh
   gradient norm :     0.0005000 Eh/α   predicted    -0.3275494E-05 ( -60.79%)
   displ. norm   :     0.0872637 α      lambda       -0.6186324E-05
   maximum displ.:     0.0646412 α      in ANC's #3, #2, #5, ...

........................................................................
.............................. CYCLE   57 ..............................
........................................................................
   1   -123.9848660 -0.123985E+03  0.150E-02    2.15       0.0  T
   2   -123.9848661 -0.123038E-06  0.873E-03    2.15       1.4  T
   3   -123.9848655  0.559385E-06  0.290E-03    2.15       4.1  T
   4   -123.9848662 -0.644828E-06  0.531E-04    2.15      22.5  T
   5   -123.9848662 -0.805336E-08  0.289E-04    2.15      41.4  T
     SCC iter.                  ...        0 min,  0.102 sec
     gradient                   ...        0 min,  0.146 sec
 * total energy  :  -122.1115630 Eh     change       -0.8195090E-05 Eh
   gradient norm :     0.0003195 Eh/α   predicted    -0.3105838E-05 ( -62.10%)
   displ. norm   :     0.0874750 α      lambda       -0.4329897E-05
   maximum displ.:     0.0646438 α      in ANC's #3, #2, #5, ...

........................................................................
.............................. CYCLE   58 ..............................
........................................................................
   1   -123.9848904 -0.123985E+03  0.150E-02    2.15       0.0  T
   2   -123.9848905 -0.123627E-06  0.873E-03    2.15       1.4  T
   3   -123.9848900  0.568243E-06  0.293E-03    2.15       4.1  T
   4   -123.9848906 -0.654802E-06  0.530E-04    2.15      22.5  T
   5   -123.9848906 -0.797105E-08  0.289E-04    2.15      41.3  T
     SCC iter.                  ...        0 min,  0.102 sec
     gradient                   ...        0 min,  0.136 sec
 * total energy  :  -122.1115694 Eh     change       -0.6403655E-05 Eh
   gradient norm :     0.0007661 Eh/α   predicted    -0.2175906E-05 ( -66.02%)
   displ. norm   :     0.0892498 α      lambda       -0.5354000E-05
   maximum displ.:     0.0664716 α      in ANC's #3, #2, #5, ...

........................................................................
.............................. CYCLE   59 ..............................
........................................................................
   1   -123.9848724 -0.123985E+03  0.134E-02    2.15       0.0  T
   2   -123.9848725 -0.895901E-07  0.788E-03    2.15       1.5  T
   3   -123.9848722  0.311658E-06  0.211E-03    2.15       5.7  T
   4   -123.9848726 -0.361761E-06  0.452E-04    2.15      26.4  T
   5   -123.9848726 -0.577654E-08  0.250E-04    2.15      47.9  T
     SCC iter.                  ...        0 min,  0.107 sec
     gradient                   ...        0 min,  0.125 sec
 * total energy  :  -122.1115769 Eh     change       -0.7537783E-05 Eh
   gradient norm :     0.0005126 Eh/α   predicted    -0.2688572E-05 ( -64.33%)
   displ. norm   :     0.0895005 α      lambda       -0.3509294E-05
   maximum displ.:     0.0664720 α      in ANC's #3, #2, #5, ...

........................................................................
.............................. CYCLE   60 ..............................
........................................................................
   1   -123.9848075 -0.123985E+03  0.134E-02    2.15       0.0  T
   2   -123.9848075 -0.893867E-07  0.786E-03    2.15       1.5  T
   3   -123.9848072  0.312494E-06  0.212E-03    2.15       5.6  T
   4   -123.9848076 -0.362522E-06  0.450E-04    2.15      26.6  T
   5   -123.9848076 -0.574741E-08  0.249E-04    2.15      48.1  T
     SCC iter.                  ...        0 min,  0.111 sec
     gradient                   ...        0 min,  0.115 sec
 * total energy  :  -122.1115831 Eh     change       -0.6222477E-05 Eh
   gradient norm :     0.0010279 Eh/α   predicted    -0.1764889E-05 ( -71.64%)
   displ. norm   :     0.0897757 α      lambda       -0.2653855E-05
   maximum displ.:     0.0664742 α      in ANC's #3, #2, #5, ...

........................................................................
.............................. CYCLE   61 ..............................
........................................................................
   1   -123.9846957 -0.123985E+03  0.134E-02    2.15       0.0  T
   2   -123.9846958 -0.891661E-07  0.784E-03    2.15       1.5  T
   3   -123.9846954  0.317781E-06  0.214E-03    2.15       5.6  T
   4   -123.9846958 -0.368044E-06  0.449E-04    2.15      26.6  T
   5   -123.9846958 -0.579702E-08  0.248E-04    2.15      48.3  T
     SCC iter.                  ...        0 min,  0.102 sec
     gradient                   ...        0 min,  0.152 sec
 * total energy  :  -122.1115880 Eh     change       -0.4899972E-05 Eh
   gradient norm :     0.0017356 Eh/α   predicted    -0.1335818E-05 ( -72.74%)
   displ. norm   :     0.0741574 α      lambda       -0.5020291E-05
   maximum displ.:     0.0555772 α      in ANC's #3, #2, #5, ...

........................................................................
.............................. CYCLE   62 ..............................
........................................................................
   1   -123.9848237 -0.123985E+03  0.975E-03    2.15       0.0  T
   2   -123.9848238 -0.371587E-07  0.576E-03    2.15       2.1  T
   3   -123.9848236  0.190234E-06  0.168E-03    2.15       7.1  T
   4   -123.9848238 -0.214421E-06  0.295E-04    2.15      40.5  T
   5   -123.9848238 -0.317826E-08  0.154E-04    2.15      77.5  T
     SCC iter.                  ...        0 min,  0.101 sec
     gradient                   ...        0 min,  0.116 sec
 * total energy  :  -122.1115950 Eh     change       -0.6949733E-05 Eh
   gradient norm :     0.0010651 Eh/α   predicted    -0.2517234E-05 ( -63.78%)
   displ. norm   :     0.0744460 α      lambda       -0.4428384E-05
   maximum displ.:     0.0555872 α      in ANC's #3, #2, #1, ...

........................................................................
.............................. CYCLE   63 ..............................
........................................................................
   1   -123.9849227 -0.123985E+03  0.969E-03    2.15       0.0  T
   2   -123.9849227 -0.365581E-07  0.573E-03    2.15       2.1  T
   3   -123.9849225  0.187643E-06  0.167E-03    2.15       7.1  T
   4   -123.9849227 -0.211243E-06  0.292E-04    2.15      40.9  T
   5   -123.9849227 -0.319650E-08  0.151E-04    2.15      79.2  T
     SCC iter.                  ...        0 min,  0.105 sec
     gradient                   ...        0 min,  0.148 sec
 * total energy  :  -122.1116007 Eh     change       -0.5759444E-05 Eh
   gradient norm :     0.0006155 Eh/α   predicted    -0.2223339E-05 ( -61.40%)
   displ. norm   :     0.0742726 α      lambda       -0.3591315E-05
   maximum displ.:     0.0555903 α      in ANC's #3, #2, #5, ...

........................................................................
.............................. CYCLE   64 ..............................
........................................................................
   1   -123.9849934 -0.123985E+03  0.970E-03    2.15       0.0  T
   2   -123.9849934 -0.370951E-07  0.573E-03    2.15       2.1  T
   3   -123.9849932  0.186664E-06  0.167E-03    2.15       7.2  T
   4   -123.9849934 -0.210372E-06  0.293E-04    2.15      40.7  T
   5   -123.9849935 -0.317210E-08  0.152E-04    2.15      78.5  T
     SCC iter.                  ...        0 min,  0.103 sec
     gradient                   ...        0 min,  0.130 sec
 * total energy  :  -122.1116053 Eh     change       -0.4571716E-05 Eh
[...]

           -------------------------------------------------
          |                Property Printout                |
           -------------------------------------------------

    * Orbital Energies and Occupations

         #    Occupation            Energy/Eh            Energy/eV
      -------------------------------------------------------------
         1        2.0000           -0.7847070             -21.3530
       ...           ...                  ...                  ...
        97        2.0000           -0.4369639             -11.8904
        98        2.0000           -0.4352309             -11.8432
        99        2.0000           -0.4306541             -11.7187
       100        2.0000           -0.4255159             -11.5789
       101        2.0000           -0.4232916             -11.5184
       102        2.0000           -0.4149857             -11.2923
       103        2.0000           -0.4124651             -11.2237
       104        2.0000           -0.4069097             -11.0726
       105        2.0000           -0.4039890             -10.9931
       106        2.0000           -0.4008196             -10.9069
       107        2.0000           -0.3978270             -10.8254
       108        2.0000           -0.3840421             -10.4503
       109        2.0000           -0.3770991             -10.2614 (HOMO)
       110                         -0.2981792              -8.1139 (LUMO)
       111                         -0.2872844              -7.8174
       112                         -0.2802122              -7.6250
       113                         -0.2656238              -7.2280
       114                         -0.2599519              -7.0737
       115                         -0.2355998              -6.4110
       116                         -0.2311621              -6.2902
       117                         -0.2270289              -6.1778
       118                         -0.2223222              -6.0497
       119                         -0.2203467              -5.9959
       120                         -0.2168573              -5.9010
       ...                                ...                  ...
       202                          1.1715759              31.8802
      -------------------------------------------------------------
                  HL-Gap            0.0789199 Eh            2.1475 eV
             Fermi-level           -0.3376391 Eh           -9.1876 eV

     #   Z          covCN         q      C6AA      α(0)
     1   6 C        2.868     0.144    24.858     8.173
     2   8 O        1.705    -0.272    18.516     5.810
     3   6 C        3.644     0.037    20.282     6.473
     4   6 C        2.918    -0.064    29.594     8.921
     5   6 C        2.921    -0.030    28.759     8.794
     6   6 C        2.918    -0.039    28.964     8.825
     7   6 C        2.923    -0.036    28.887     8.814
     8   6 C        2.975    -0.014    28.351     8.734
     9   6 C        3.823     0.047    19.769     6.327
    10   6 C        3.822     0.050    19.718     6.319
    11   6 C        2.973    -0.011    28.276     8.722
    12   6 C        2.925    -0.026    28.651     8.778
    13   6 C        2.918    -0.037    28.911     8.817
    14   6 C        2.921    -0.030    28.750     8.793
    15   6 C        2.918    -0.064    29.603     8.922
    16   6 C        2.866     0.141    24.922     8.183
    17   8 O        1.704    -0.288    18.782     5.851
    18   6 C        3.642     0.033    20.359     6.487
    19   7 N        2.765    -0.101    23.214     7.156
    20   6 C        2.763     0.272    22.398     7.751
    21   6 C        2.982    -0.016    28.399     8.742
    22   6 C        2.975     0.029    27.356     8.579
    23   6 C        1.911     0.116    28.234     8.581
    24   7 N        0.911    -0.205    25.452     7.296
    25   6 C        2.926    -0.015    28.396     8.739
    26   6 C        2.918    -0.025    28.630     8.774
    27   6 C        2.918    -0.029    28.715     8.787
    28   6 C        2.920    -0.037    28.924     8.819
    29   8 O        0.859    -0.405    21.790     6.259
    30   6 C        3.744     0.084    19.255     6.260
    31   6 C        2.686     0.344    21.159     7.528
    32   8 O        1.659    -0.368    20.241     6.073
    33   8 O        0.856    -0.333    20.389     6.054
    34   7 N        2.764    -0.102    23.244     7.161
    35   6 C        2.764     0.271    22.424     7.755
    36   6 C        2.978    -0.011    28.283     8.724
    37   6 C        2.924    -0.013    28.327     8.728
    38   6 C        2.919    -0.012    28.320     8.727
    39   6 C        2.918    -0.021    28.528     8.759
    40   6 C        2.929    -0.019    28.485     8.753
    41   6 C        2.974     0.009    27.807     8.650
    42   6 C        1.913     0.111    28.354     8.600
    43   7 N        0.911    -0.248    26.456     7.439
    44   8 O        0.859    -0.408    21.832     6.265
    45   1 H        0.924     0.041     2.433     2.439
    46   1 H        0.924     0.047     2.361     2.403
    47   1 H        0.925     0.062     2.179     2.309
    48   1 H        0.926     0.040     2.445     2.445
    49   1 H        0.926     0.039     2.462     2.454
    50   1 H        0.926     0.041     2.434     2.440
    51   1 H        0.926     0.053     2.283     2.363
    52   1 H        0.924     0.083     1.945     2.181
    53   1 H        0.924     0.068     2.108     2.271
    54   1 H        0.926     0.046     2.365     2.405
    55   1 H        0.926     0.042     2.417     2.431
    56   1 H        0.926     0.040     2.452     2.448
    57   1 H        0.926     0.041     2.440     2.443
    58   1 H        0.924     0.036     2.501     2.473
    59   1 H        0.924     0.042     2.424     2.435
    60   1 H        0.925     0.079     1.991     2.207
    61   1 H        0.926     0.055     2.254     2.348
    62   1 H        0.926     0.049     2.333     2.388
    63   1 H        0.926     0.047     2.360     2.402
    64   1 H        0.926     0.046     2.367     2.406
    65   1 H        0.922     0.045     2.382     2.414
    66   1 H        0.804     0.326     0.649     1.265
    67   1 H        0.926     0.062     2.174     2.306
    68   1 H        0.926     0.058     2.228     2.334
    69   1 H        0.926     0.052     2.297     2.370
    70   1 H        0.926     0.048     2.345     2.395

 Mol. C6AA /au·bohr⁶  :      67473.294432
 Mol. C8AA /au·bohr⁸  :    1653952.273433
 Mol. α(0) /au        :        407.474796


Wiberg/Mayer (AO) data.
largest (>0.10) Wiberg bond orders for each atom

 ---------------------------------------------------------------------------
     #   Z sym  total        # sym  WBO       # sym  WBO       # sym  WBO
 ---------------------------------------------------------------------------
     1   6 C    3.935 --     4 C    1.379     8 C    1.326     2 O    1.061
     2   8 O    2.232 --     1 C    1.061     3 C    0.982
     3   6 C    3.944 --     2 O    0.982    47 H    0.980    46 H    0.977
                            45 H    0.976
     4   6 C    3.987 --     5 C    1.437     1 C    1.379    48 H    0.965
                             7 C    0.103
     5   6 C    3.990 --     6 C    1.442     4 C    1.437    49 H    0.971
                             8 C    0.106
     6   6 C    3.991 --     5 C    1.442     7 C    1.427    50 H    0.971
     7   6 C    3.989 --     8 C    1.436     6 C    1.427    51 H    0.964
                             4 C    0.103
     8   6 C    3.981 --     7 C    1.436     1 C    1.326     9 C    0.990
                             5 C    0.106
     9   6 C    3.955 --     8 C    0.990    10 C    0.957    52 H    0.948
                            34 N    0.947
    10   6 C    3.959 --    11 C    0.991     9 C    0.957    53 H    0.953
                            19 N    0.948
    11   6 C    3.982 --    12 C    1.436    16 C    1.327    10 C    0.991
                            14 C    0.107
    12   6 C    3.988 --    11 C    1.436    13 C    1.426    54 H    0.967
                            15 C    0.103
    13   6 C    3.991 --    14 C    1.445    12 C    1.426    55 H    0.970
    14   6 C    3.990 --    13 C    1.445    15 C    1.433    56 H    0.971
                            11 C    0.107
    15   6 C    3.987 --    14 C    1.433    16 C    1.385    57 H    0.965
                            12 C    0.103
    16   6 C    3.935 --    15 C    1.385    11 C    1.327    17 O    1.053
    17   8 O    2.215 --    16 C    1.053    18 C    0.979
    18   6 C    3.939 --    17 O    0.979    59 H    0.977    58 H    0.977
                            60 H    0.968
    19   7 N    3.478 --    20 C    1.218    30 C    0.987    10 C    0.948
                            29 O    0.198
    20   6 C    3.951 --    29 O    1.698    19 N    1.218    21 C    0.952
    21   6 C    3.986 --    28 C    1.414    22 C    1.339    20 C    0.952
                            26 C    0.105
    22   6 C    3.990 --    25 C    1.367    21 C    1.339    23 C    1.086
                            27 C    0.100
    23   6 C    3.949 --    24 N    2.819    22 C    1.086
    24   7 N    2.989 --    23 C    2.819
    25   6 C    3.989 --    26 C    1.454    22 C    1.367    61 H    0.968
                            28 C    0.106
    26   6 C    3.991 --    25 C    1.454    27 C    1.427    62 H    0.969
                            21 C    0.105
    27   6 C    3.966 --    28 C    1.435    26 C    1.427    63 H    0.970
                            22 C    0.100
    28   6 C    3.991 --    27 C    1.435    21 C    1.414    64 H    0.966
                            25 C    0.106
    29   8 O    2.040 --    20 C    1.698    19 N    0.198
    30   6 C    3.973 --    34 N    0.990    19 N    0.987    65 H    0.934
                            31 C    0.902
    31   6 C    3.921 --    33 O    1.817    32 O    1.127    30 C    0.902
    32   8 O    2.209 --    31 C    1.127    66 H    0.860    33 O    0.168
    33   8 O    2.107 --    31 C    1.817    32 O    0.168
    34   7 N    3.479 --    35 C    1.223    30 C    0.990     9 C    0.947
                            44 O    0.198
    35   6 C    3.952 --    44 O    1.692    34 N    1.223    36 C    0.952
    36   6 C    3.985 --    37 C    1.414    41 C    1.330    35 C    0.952
                            39 C    0.102
    37   6 C    3.988 --    38 C    1.439    36 C    1.414    67 H    0.966
                            40 C    0.105
    38   6 C    3.963 --    37 C    1.439    39 C    1.423    68 H    0.968
    39   6 C    3.991 --    40 C    1.459    38 C    1.423    69 H    0.968
                            36 C    0.102
    40   6 C    3.990 --    39 C    1.459    41 C    1.351    70 H    0.969
                            37 C    0.105
    41   6 C    3.988 --    40 C    1.351    36 C    1.330    42 C    1.103
    42   6 C    3.946 --    43 N    2.779    41 C    1.103
    43   7 N    2.979 --    42 C    2.779
    44   8 O    2.037 --    35 C    1.692    34 N    0.198
    45   1 H    0.998 --     3 C    0.976
    46   1 H    0.998 --     3 C    0.977
    47   1 H    0.996 --     3 C    0.980
    48   1 H    0.998 --     4 C    0.965
    49   1 H    0.998 --     5 C    0.971
    50   1 H    0.998 --     6 C    0.971
    51   1 H    0.997 --     7 C    0.964
    52   1 H    0.992 --     9 C    0.948
    53   1 H    0.995 --    10 C    0.953
    54   1 H    0.997 --    12 C    0.967
    55   1 H    0.998 --    13 C    0.970
    56   1 H    0.998 --    14 C    0.971
    57   1 H    0.998 --    15 C    0.965
    58   1 H    0.999 --    18 C    0.977
    59   1 H    0.998 --    18 C    0.977
    60   1 H    0.993 --    18 C    0.968
    61   1 H    0.996 --    25 C    0.968
    62   1 H    0.996 --    26 C    0.969
    63   1 H    0.997 --    27 C    0.970
    64   1 H    0.997 --    28 C    0.966
    65   1 H    0.998 --    30 C    0.934
    66   1 H    0.894 --    32 O    0.860
    67   1 H    0.995 --    37 C    0.966
    68   1 H    0.996 --    38 C    0.968
    69   1 H    0.995 --    39 C    0.968
    70   1 H    0.997 --    40 C    0.969
 ---------------------------------------------------------------------------

Topologies differ in total number of bonds
Writing topology from bond orders to xtbtopo.mol

molecular dipole:
                 x           y           z       tot (Debye)
 q only:        0.112       0.723      -1.633
   full:        0.087       1.185      -2.331       6.650
molecular quadrupole (traceless):
                xx          xy          yy          xz          yz          zz
 q only:       -5.775       3.280      39.208      14.149     -10.495     -33.433
  q+dip:       -5.189       2.824      47.852      21.040     -14.058     -42.663
   full:       -2.788       1.454      46.471      13.978     -12.264     -43.683

           -------------------------------------------------
          |                Geometry Summary                 |
           -------------------------------------------------

      molecular mass/u    :      586.5947225
   center of mass at/Å    :        0.0243849       0.1984385       0.1445302
  moments of inertia/u·Å² :        0.4980279E+04   0.6135291E+04   0.7786151E+04
rotational constants/cm⁻¹ :        0.3384877E-02   0.2747650E-02   0.2165079E-02

 * 67 selected distances

     #   Z          #   Z                                           value/Å
     1   6 C        2   8 O                                       1.3626929
     2   8 O        3   6 C                                       1.4069022
     1   6 C        4   6 C                                       1.3898760
     4   6 C        5   6 C                                       1.3846502
     5   6 C        6   6 C                                       1.3817083
     6   6 C        7   6 C                                       1.3842767
     1   6 C        8   6 C                                       1.4013347
     7   6 C        8   6 C                                       1.3846395
     9   6 C       10   6 C                                       1.5384046 (max)
    11   6 C       12   6 C                                       1.3830457
    12   6 C       13   6 C                                       1.3840324
    13   6 C       14   6 C                                       1.3811293
    14   6 C       15   6 C                                       1.3845994
    11   6 C       16   6 C                                       1.4025975
    15   6 C       16   6 C                                       1.3887165
    16   6 C       17   8 O                                       1.3676863
    17   8 O       18   6 C                                       1.4105584
    10   6 C       19   7 N                                       1.4578875
    19   7 N       20   6 C                                       1.3540851
    21   6 C       22   6 C                                       1.3990185
    23   6 C       24   7 N                                       1.1448108
    22   6 C       25   6 C                                       1.3944660
    25   6 C       26   6 C                                       1.3820669
    26   6 C       27   6 C                                       1.3873568
    21   6 C       28   6 C                                       1.3885736
    27   6 C       28   6 C                                       1.3863355
    20   6 C       29   8 O                                       1.2103451
    19   7 N       30   6 C                                       1.4405775
    31   6 C       32   8 O                                       1.3408458
    31   6 C       33   8 O                                       1.1927826
     9   6 C       34   7 N                                       1.4585709
    30   6 C       34   7 N                                       1.4393459
    34   7 N       35   6 C                                       1.3532161
    36   6 C       37   6 C                                       1.3882568
    37   6 C       38   6 C                                       1.3839711
    38   6 C       39   6 C                                       1.3871530
    39   6 C       40   6 C                                       1.3800917
    36   6 C       41   6 C                                       1.4000297
    40   6 C       41   6 C                                       1.3975693
    42   6 C       43   7 N                                       1.1481235
    35   6 C       44   8 O                                       1.2117711
     3   6 C       45   1 H                                       1.0947715
     3   6 C       46   1 H                                       1.0941538
     3   6 C       47   1 H                                       1.0889594
     4   6 C       48   1 H                                       1.0783963
     5   6 C       49   1 H                                       1.0799605
     6   6 C       50   1 H                                       1.0788829
     7   6 C       51   1 H                                       1.0807097
     9   6 C       52   1 H                                       1.0950265
    10   6 C       53   1 H                                       1.0969870
    12   6 C       54   1 H                                       1.0792445
    13   6 C       55   1 H                                       1.0787818
    14   6 C       56   1 H                                       1.0798900
    15   6 C       57   1 H                                       1.0784909
    18   6 C       58   1 H                                       1.0950983
    18   6 C       59   1 H                                       1.0935007
    18   6 C       60   1 H                                       1.0898410
    25   6 C       61   1 H                                       1.0793359
    26   6 C       62   1 H                                       1.0792201
    27   6 C       63   1 H                                       1.0797576
    28   6 C       64   1 H                                       1.0805004
    30   6 C       65   1 H                                       1.1068407
    32   8 O       66   1 H                                       0.9692313 (min)
    37   6 C       67   1 H                                       1.0790544
    38   6 C       68   1 H                                       1.0788785
    39   6 C       69   1 H                                       1.0791187
    40   6 C       70   1 H                                       1.0802583

 * 5 distinct bonds (by element types)

   Z      Z             #   av. dist./Å        max./Å        min./Å
   1 H    6 C          25     1.0850264     1.1068407     1.0783963
   6 C    6 C          25     1.3945560     1.5384046     1.3800917
   6 C    7 N           8     1.3495772     1.4585709     1.1448108
   1 H    8 O           1     0.9692313     0.9692313     0.9692313
   6 C    8 O           8     1.3129480     1.4105584     1.1927826


optimized geometry written to: xtbopt.xyz


           -------------------------------------------------
          | TOTAL ENERGY             -122.111605303581 Eh   |
          | GRADIENT NORM               0.000863596369 Eh/α |
          | HOMO-LUMO GAP               2.147519966513 eV   |
           -------------------------------------------------

------------------------------------------------------------------------
 * finished run on 2022/03/16 at 22:04:00.099     
------------------------------------------------------------------------
 total:
 * wall-time:     0 d,  0 h,  0 min, 27.954 sec
 *  cpu-time:     0 d,  0 h, 10 min, 20.396 sec
 * ratio c/w:    22.194 speedup
 SCF:
 * wall-time:     0 d,  0 h,  0 min,  0.547 sec
 *  cpu-time:     0 d,  0 h,  0 min,  9.004 sec
 * ratio c/w:    16.450 speedup
 ANC optimizer:
 * wall-time:     0 d,  0 h,  0 min, 27.259 sec
 *  cpu-time:     0 d,  0 h, 10 min,  7.232 sec
 * ratio c/w:    22.276 speedup

