92
 energy: -151.431275200213 gnorm: 0.139332876853 xtb: 6.3.3 (4ae9cef)
C         4.08645000000000   -3.71093700000000    1.89718100000000
C         4.76612900000000   -3.51713500000000    0.69776700000000
C         4.22154200000000   -2.68362300000000   -0.26612700000000
C         3.00042300000000   -2.03794700000000   -0.02870600000000
C         2.28016800000000   -2.20409700000000    1.18145200000000
C         2.85914300000000   -3.07291800000000    2.14701100000000
C         2.20748500000000   -3.31457600000000    3.36147800000000
C         0.97934200000000   -2.73490900000000    3.63608300000000
C         0.39648100000000   -1.88052100000000    2.70693000000000
C         1.02953200000000   -1.57631500000000    1.48651600000000
C         0.33794200000000   -0.62724100000000    0.51140500000000
C        -0.97971300000000   -1.22103400000000   -0.05233300000000
C        -0.83933100000000   -1.38982500000000   -1.57339600000000
C        -1.09078700000000   -0.28671700000000   -2.41822800000000
C        -0.93487400000000   -0.38061100000000   -3.79698600000000
C        -0.50589300000000   -1.57600300000000   -4.36376100000000
C        -0.22503100000000   -2.69002300000000   -3.56149700000000
C        -0.38357100000000   -2.61469900000000   -2.15074400000000
C        -0.06451300000000   -3.77547000000000   -1.40839600000000
C         0.38325700000000   -4.94702900000000   -2.02342700000000
C         0.51990200000000   -4.99904800000000   -3.40335200000000
C         0.21758300000000   -3.87753000000000   -4.16595900000000
N        -2.02593600000000   -0.27001600000000    0.33576000000000
C        -3.35268400000000   -0.56060400000000    0.08190400000000
C        -4.32216400000000    0.52061600000000    0.09765400000000
C        -5.61459400000000    0.39870500000000    0.57703800000000
C        -6.36357100000000   -0.70642000000000    1.21733900000000
O        -6.30160700000000    1.55844300000000    0.39802700000000
C        -5.46720500000000    2.44737500000000   -0.21723600000000
C        -6.03757800000000    3.75777300000000   -0.53020900000000
C        -7.36970600000000    4.06897800000000   -0.21469300000000
C        -7.91322600000000    5.31991900000000   -0.52108700000000
C        -7.12780800000000    6.28322200000000   -1.14969000000000
C        -5.80743600000000    5.99267900000000   -1.47660700000000
C        -5.26626100000000    4.74026000000000   -1.16698100000000
C        -4.23853700000000    1.84776200000000   -0.42285000000000
O        -3.70558900000000   -1.70797000000000   -0.18438400000000
C        -1.49528100000000    0.85238200000000    1.09742200000000
C        -2.06187800000000    0.92341000000000    2.55549400000000
O        -1.13861900000000    0.90304800000000    3.53828700000000
O        -3.24299600000000    0.98030500000000    2.86941100000000
N        -0.05491600000000    0.66755000000000    1.08964200000000
C         0.74842800000000    1.76552700000000    1.32941900000000
C         2.17318500000000    1.58084800000000    1.17995300000000
C         3.04808100000000    1.23751100000000    2.18992700000000
C         2.88730100000000    0.95971800000000    3.63148600000000
O         4.31338000000000    1.12546700000000    1.69724900000000
C         4.26781000000000    1.42139300000000    0.36477100000000
C         5.53627900000000    1.33034800000000   -0.35435400000000
C         6.69021100000000    0.81916400000000    0.26057800000000
C         7.89610000000000    0.72220200000000   -0.44028700000000
C         7.96471100000000    1.14094500000000   -1.76628100000000
C         6.83052500000000    1.65246700000000   -2.39213800000000
C         5.62588400000000    1.74042500000000   -1.69126100000000
C         2.96889600000000    1.73614600000000    0.01001200000000
O         0.27879400000000    2.86146500000000    1.62347200000000
H         4.52701800000000   -4.36851100000000    2.64383100000000
H         5.71775800000000   -4.01141700000000    0.51954800000000
H         4.74374600000000   -2.52738300000000   -1.20759900000000
H         2.63731400000000   -1.40280700000000   -0.83149700000000
H         2.65184900000000   -3.97415200000000    4.10438800000000
H         0.47202100000000   -2.95299800000000    4.57107500000000
H        -0.57370800000000   -1.46134400000000    2.94662100000000
H         1.01427100000000   -0.37348200000000   -0.30522800000000
H        -1.26340800000000   -2.17493000000000    0.40456600000000
H        -1.40917900000000    0.66837800000000   -2.00848300000000
H        -1.13986400000000    0.47873000000000   -4.42869700000000
H        -0.39287400000000   -1.63023200000000   -5.44506400000000
H        -0.15498900000000   -3.80152300000000   -0.32519800000000
H         0.62440100000000   -5.81637500000000   -1.41912300000000
H         0.86164200000000   -5.91136100000000   -3.88459800000000
H         0.33630600000000   -3.93478900000000   -5.24678900000000
H        -5.68887400000000   -1.35024400000000    1.79582100000000
H        -7.12343400000000   -0.31697300000000    1.90348300000000
H        -6.86740200000000   -1.31785900000000    0.46331700000000
H        -8.00499700000000    3.33107000000000    0.27325700000000
H        -8.94359800000000    5.53894800000000   -0.26128200000000
H        -7.54763600000000    7.25801100000000   -1.38087700000000
H        -5.19132900000000    6.73853500000000   -1.97171900000000
H        -4.22850300000000    4.54713800000000   -1.42786800000000
H        -3.39400200000000    2.29885100000000   -0.92413200000000
H        -1.73521100000000    1.79481900000000    0.59905600000000
H        -1.66288500000000    1.01561400000000    4.35985700000000
H         3.33035500000000   -0.00766200000000    3.87823100000000
H         3.38464500000000    1.73165800000000    4.22376600000000
H         1.83447000000000    0.93475000000000    3.92190700000000
H         6.65715700000000    0.47944000000000    1.29551100000000
H         8.77984500000000    0.32327300000000    0.04954500000000
H         8.90330800000000    1.06678500000000   -2.30881000000000
H         6.88286600000000    1.97876600000000   -3.42766500000000
H         4.75837600000000    2.14069300000000   -2.20436200000000
H         2.62089000000000    2.01575200000000   -0.97448400000000
92
 energy: -151.448916704595 gnorm: 0.055184101320 xtb: 6.3.3 (4ae9cef)
C         4.09006992455338   -3.70501128908958    1.89211051026515
C         4.75483748802350   -3.50794951924624    0.70579663711515
C         4.19980972983697   -2.66808751617561   -0.25733214000303
C         2.99739916211565   -2.02910979412562   -0.02743759854121
C         2.28242917646375   -2.19524884054215    1.18028041372358
C         2.86044151521563   -3.07036339058107    2.14938362891974
C         2.19911555723913   -3.31092342331126    3.36480376934207
C         0.98327377839411   -2.73002751718178    3.62378659910650
C         0.40667034364882   -1.87320667210340    2.68531119150654
C         1.03449265517893   -1.57139816771432    1.48690489073460
C         0.34409481184782   -0.62682581855640    0.51561463353951
C        -0.97398643129965   -1.21370985766662   -0.05723908963207
C        -0.84255835002294   -1.38787814420507   -1.56949605168733
C        -1.08813312540147   -0.30494138450476   -2.40020789341993
C        -0.93230542072826   -0.39100787520337   -3.78445331348899
C        -0.51176439581377   -1.56642278416556   -4.35781363231423
C        -0.22825996273207   -2.68662681405852   -3.55943034054661
C        -0.38712880574680   -2.61162731609221   -2.14243924670433
C        -0.06409785595136   -3.76938634896322   -1.40115345299311
C         0.37657253208319   -4.92409277922790   -2.01410544138770
C         0.51678262520222   -4.98439938058786   -3.40011207991232
C         0.21865122355042   -3.87917139370143   -4.15902750204360
N        -2.01855827216575   -0.25641390030676    0.31923643193137
C        -3.34310101224518   -0.55203384841929    0.08157403537839
C        -4.32546307131474    0.53711895158557    0.11399553956731
C        -5.61642716463114    0.40595874981981    0.58345599032517
C        -6.35469351319846   -0.70883105313694    1.22097730293319
O        -6.29497077759874    1.55669029191198    0.40033181185571
C        -5.47255635329417    2.44947088408158   -0.21671135139700
C        -6.03210701142036    3.75844998060866   -0.53648402337557
C        -7.35995369860664    4.06509990464270   -0.21910075671355
C        -7.89677946615066    5.30771435938091   -0.51932540391344
C        -7.12012937195890    6.27004691804998   -1.14669137232166
C        -5.80427708642781    5.98119436911311   -1.47133455494110
C        -5.26372013983110    4.74055610314575   -1.16748548977240
C        -4.24545897639589    1.86167837374763   -0.40947509598909
O        -3.67648953482906   -1.69332620310422   -0.19483444471665
C        -1.49491236614650    0.84946184302293    1.09522715960667
C        -2.06907234036794    0.90456102452496    2.53438277852447
O        -1.14458969792405    0.90073259240785    3.50529628349727
O        -3.23897776025943    0.97313039691287    2.81415052118645
N        -0.06034398778511    0.66122293433275    1.09019109862045
C         0.73802190751003    1.75253246347998    1.31641819357074
C         2.18675631080748    1.54966921412316    1.17792352795820
C         3.05536490035740    1.21169272731525    2.18529702598030
C         2.87942101435479    0.95094812495821    3.63235608892954
O         4.31356396742461    1.11859192752607    1.69598644987853
C         4.27842178872450    1.41223187958510    0.36821833520871
C         5.53648723400048    1.33083454714956   -0.36127702079334
C         6.68407056352048    0.82146599913415    0.25440291298538
C         7.87988751053440    0.72817869896390   -0.44058957091974
C         7.95351520122235    1.14271762421082   -1.76155360043107
C         6.82361125271498    1.64949652885242   -2.38556786800164
C         5.62601149079459    1.74012773572779   -1.69417462998074
C         2.98314988977010    1.70375292527516    0.00941016359255
O         0.25870219683428    2.83168439061686    1.61754867673132
H         4.51871190051349   -4.36175698709754    2.63825801657830
H         5.69996788402922   -4.00310857997570    0.52179397583940
H         4.71676493461500   -2.51356518036749   -1.19573104067330
H         2.62275925898666   -1.39890597813883   -0.82172562671788
H         2.64553059040744   -3.96956867037935    4.09917806069517
H         0.47203229574360   -2.93987254867408    4.55406401350081
H        -0.55692264827065   -1.44234976339088    2.91698494713741
H         1.02370093880166   -0.39614578565245   -0.30892111935083
H        -1.23456479741772   -2.17519615643828    0.39832225806496
H        -1.41224931330344    0.63968669463115   -1.98243358731130
H        -1.14093553697551    0.46852289563572   -4.40817442331554
H        -0.39481966105959   -1.62632374572116   -5.43273220248697
H        -0.15337535239104   -3.78405459621236   -0.32394527411787
H         0.61468129034831   -5.79150657901450   -1.41282934169309
H         0.85677166513541   -5.89558778077373   -3.87618082811395
H         0.33143720684334   -3.92821098879282   -5.23492398026395
H        -5.67662799030038   -1.35026457959748    1.78264360675043
H        -7.11449431849970   -0.31229910082095    1.89552139734271
H        -6.85141719528920   -1.31795183586328    0.46424212169075
H        -7.98427799583235    3.32783355597084    0.26907451624306
H        -8.92516469094266    5.52488022197064   -0.26295705958684
H        -7.54025797998163    7.24053088260972   -1.37945091825582
H        -5.19296403693763    6.72574515778958   -1.96391924951981
H        -4.23273404725213    4.54275389418724   -1.42569221877226
H        -3.40542820751197    2.30583486933720   -0.91041783965388
H        -1.74136607614508    1.81579888629329    0.63161280601433
H        -1.63664136941494    1.01610984384228    4.34183256013835
H         3.32673305579577   -0.01016135523594    3.88674116931630
H         3.37866656533129    1.72484976050203    4.21802502579793
H         1.82529078334789    0.93591811913230    3.90306936157731
H         6.64375643057618    0.48887047321261    1.28387265921811
H         8.75860911714869    0.32960767173297    0.04928839528354
H         8.88900857615751    1.06943308773987   -2.30159982353665
H         6.87705465262325    1.97600010211014   -3.41564131940599
H         4.75836995814883    2.14006343591354   -2.19884998789321
H         2.63358831129611    1.99540322729947   -0.96391568709285
92
 energy: -151.454330918816 gnorm: 0.014459407005 xtb: 6.3.3 (4ae9cef)
C         4.08835892605397   -3.69368472722446    1.88649247312908
C         4.74454610819687   -3.49404233939038    0.70780460030835
C         4.18263060559897   -2.64759376060184   -0.25561562280447
C         2.99209243001855   -2.01518726500517   -0.02872828213500
C         2.28127116205585   -2.18336515204418    1.17959258853310
C         2.85672012421432   -3.05973578273207    2.15069588824542
C         2.18642032067320   -3.30058276723549    3.36629396127179
C         0.97941121735764   -2.71675296548572    3.61613273202049
C         0.40962046434368   -1.85538883055327    2.67033200184717
C         1.03413834433335   -1.56205217211196    1.48487415282014
C         0.34935682070421   -0.62336090483704    0.51085432367245
C        -0.96991773716008   -1.21145602716737   -0.06021261695127
C        -0.84214419658503   -1.38372484895600   -1.56407028903424
C        -1.09186399700527   -0.31284675431682   -2.38154667403406
C        -0.93828488515551   -0.39216718388461   -3.77140099220974
C        -0.51926709060778   -1.55456288834140   -4.34795317186795
C        -0.23232560658516   -2.68070611406038   -3.55207305716521
C        -0.38695299950786   -2.60690293559228   -2.13393862209366
C        -0.06142240330360   -3.76124545568739   -1.38909612529096
C         0.37270515724316   -4.90613553775493   -1.99825865529784
C         0.51346785372997   -4.97287141623364   -3.39019420635399
C         0.21665970174430   -3.87784146216493   -4.14766752287517
N        -2.00831894517773   -0.24272184597160    0.29383796613257
C        -3.33065332224182   -0.54575934202464    0.07048659326715
C        -4.32031519599971    0.54949680002831    0.12697593238733
C        -5.61151075228718    0.41257044120228    0.58851600080196
C        -6.33885991671237   -0.71268346233861    1.22336081828512
O        -6.28871648099384    1.55263216980081    0.40240675698380
C        -5.47202399795051    2.44850498686508   -0.21035430695168
C        -6.02102823518731    3.75548604033801   -0.53563946682180
C        -7.34811920011441    4.05620990842475   -0.21830318906765
C        -7.88317861909368    5.29292971021422   -0.51901605641614
C        -7.11113278248802    6.25653562684207   -1.14544631859774
C        -5.79557389206172    5.96909358086999   -1.46823330734676
C        -5.25337200637285    4.73519589851706   -1.16704512007882
C        -4.24210733479569    1.87226634071592   -0.39531873299052
O        -3.65082185540261   -1.68281955892669   -0.21882189481166
C        -1.48904552028908    0.84494398872082    1.08656737471281
C        -2.07832818824905    0.89675676534375    2.50967491673451
O        -1.15039188626141    0.89273197116885    3.46851841341327
O        -3.24926667352885    0.94956590103715    2.75674349213018
N        -0.05929947346508    0.65539129734001    1.08545243999272
C         0.73455109057423    1.74003497314506    1.30771239806110
C         2.19706471352215    1.51564447173224    1.17611307306552
C         3.06337222652208    1.18236762108700    2.18161897213753
C         2.86896827212557    0.93576419912410    3.63222386315301
O         4.31549344210592    1.09754803903618    1.69698070588408
C         4.28439214999920    1.39257138737846    0.37344751268476
C         5.53184055102142    1.32396194430919   -0.36671069838974
C         6.67722439756471    0.81964947999839    0.25173415654422
C         7.86812252463708    0.73097335600100   -0.44006153002163
C         7.94363534454586    1.14430715606676   -1.75937064161867
C         6.81411780387324    1.64945247878404   -2.38171290560765
C         5.61871566362171    1.73893275947267   -1.69622066417847
C         2.99092546358299    1.66567125737091    0.00705766190674
O         0.25071280972223    2.81256031564558    1.60538276372452
H         4.50396217984946   -4.35045237073476    2.63697658921386
H         5.68587819964985   -3.98743444496071    0.51598729922520
H         4.69765281911524   -2.49531237179505   -1.19212864612122
H         2.60306973156708   -1.38592724696554   -0.81361142381902
H         2.63772758831204   -3.96263661624084    4.09066958806985
H         0.45998602145733   -2.92003588300431    4.54069302802736
H        -0.55026594640050   -1.41607820956218    2.89226366495481
H         1.03100328927665   -0.40740130551280   -0.31795265526426
H        -1.21772435712485   -2.17332741676863    0.40174847669770
H        -1.42019673055718    0.62341229846453   -1.95425910655932
H        -1.14888894477462    0.47150532998972   -4.38473076836625
H        -0.39774882768115   -1.62438176132580   -5.41896376482618
H        -0.14996242859020   -3.75907344187362   -0.31440398315529
H         0.61044257011865   -5.77311846965716   -1.39992121854159
H         0.85407531111841   -5.88468482397469   -3.85877492691690
H         0.32358226608100   -3.91460179173901   -5.22215575679670
H        -5.65279882058921   -1.34943163382235    1.77122548692708
H        -7.09956273158894   -0.31693047961322    1.89261887132211
H        -6.82921873028111   -1.31953237610849    0.46187772714862
H        -7.96148325784883    3.31390476160575    0.26812043376208
H        -8.91029026252039    5.50942640844552   -0.26291050378082
H        -7.53126062819681    7.22412276837785   -1.37885715566251
H        -5.18723569793068    6.71496135557405   -1.95782774592014
H        -4.22613711829382    4.53053969055994   -1.42264852119934
H        -3.40207951231879    2.31501959922235   -0.89005711958263
H        -1.73507397758484    1.83341918653292    0.65557121745152
H        -1.60215185998922    1.00775072272176    4.32516158168572
H         3.31227829409912   -0.02192867320719    3.90219632750188
H         3.36657896159366    1.71391984772455    4.21192622308062
H         1.81107851732603    0.93319138318284    3.87721601014839
H         6.62698676606018    0.49395083911848    1.27889908648424
H         8.74499021523842    0.33545546007462    0.05111071901978
H         8.87687057674154    1.07380873784848   -2.29831484968323
H         6.86755497050002    1.97570748715599   -3.40951210768855
H         4.74793863141521    2.13884846093292   -2.19163373733840
H         2.63813442764804    1.95978961339629   -0.96046920233699
92
 energy: -151.455815538472 gnorm: 0.012841578442 xtb: 6.3.3 (4ae9cef)
C         4.08302718448928   -3.67991967584868    1.88323361628768
C         4.73866358167325   -3.47802490662624    0.70508262237514
C         4.17627034092949   -2.62958899039999   -0.25929746066202
C         2.98642517357384   -1.99977823632847   -0.03164415512964
C         2.27840190024797   -2.17123022335236    1.17834357417033
C         2.85060777544949   -3.04602132465563    2.14949211087977
C         2.17623368335683   -3.28699181298503    3.36451738041938
C         0.97104590983710   -2.70041390493850    3.61314086435941
C         0.40474398702622   -1.83786742524601    2.66489555471673
C         1.03186974218349   -1.55051450491462    1.48079941698995
C         0.35005026048430   -0.61685487265108    0.50361473979481
C        -0.96903850551781   -1.20713423082502   -0.06165814794169
C        -0.84391790809648   -1.38071067067708   -1.56088733196105
C        -1.09937670011890   -0.30915945683583   -2.37384875978606
C        -0.94642461803375   -0.38632025346679   -3.76473415649304
C        -0.52578327781334   -1.54767600286451   -4.34057640496299
C        -0.23539094030152   -2.67512895940891   -3.54463031179433
C        -0.38599819414283   -2.60195503771522   -2.12874318136998
C        -0.05673346806999   -3.75120709315216   -1.37721670364792
C         0.37523903053111   -4.89655586084718   -1.98329208374612
C         0.51268474638790   -4.96622304457192   -3.37736289964575
C         0.21413706959441   -3.87404107086688   -4.13756062216323
N        -2.00253542342110   -0.23124509007650    0.27545319924709
C        -3.32208078318193   -0.54330782482546    0.05866422576512
C        -4.31179826922342    0.55123298155264    0.12843313611216
C        -5.60284790339928    0.41131301506287    0.58727278866396
C        -6.32047723393369   -0.72074525435632    1.22203445336077
O        -6.28145460932412    1.54836519537321    0.40467344816107
C        -5.46466754470056    2.44603097041787   -0.20303054390159
C        -6.00918667922574    3.75094393988508   -0.53135014726396
C        -7.33709148124449    4.04777498457247   -0.21507786732798
C        -7.87322673457706    5.28288023512856   -0.51778119842809
C        -7.10106286597467    6.24662308029646   -1.14452814488804
C        -5.78414561236548    5.96093305051981   -1.46606106234282
C        -5.24008678726181    4.72841666614622   -1.16405515985261
C        -4.23180684628960    1.87550387297124   -0.38590857643960
O        -3.63531480153002   -1.67832801126143   -0.24576792258152
C        -1.48643963164391    0.84709869436618    1.07729401615201
C        -2.08456406571244    0.87619785851024    2.49695188138785
O        -1.15396834365214    0.89449509592724    3.44983220519364
O        -3.25896128948795    0.92245785459045    2.72993335749296
N        -0.05878450242001    0.65629227006514    1.07927369587300
C         0.73650369074674    1.73577751628417    1.30449005570686
C         2.19888390474848    1.49327100853953    1.17549822896115
C         3.06420993947179    1.15770959087908    2.18076790264173
C         2.85527387638983    0.91772387051446    3.63129975725988
O         4.31522267905318    1.07218631682421    1.69881381213319
C         4.28352335092820    1.36630083414801    0.37601235701169
C         5.52638127459205    1.30906944001057   -0.36872548142529
C         6.67406068505224    0.81153717702409    0.25064204130650
C         7.86506749168897    0.73096735647924   -0.44096442207555
C         7.93683463988845    1.14618159422597   -1.76025808771259
C         6.80465059518511    1.64839469698820   -2.38119073790379
C         5.60864071871099    1.73145467963727   -1.69606891225182
C         2.99083788735936    1.63526505494384    0.00530525870511
O         0.25790610403799    2.81130589052636    1.59974473136126
H         4.49291083874912   -4.33760164805145    2.63642142345395
H         5.67910898890480   -3.96998831121239    0.50829022894181
H         4.69221443324961   -2.47718665591438   -1.19507558244315
H         2.58953732213978   -1.36967470993495   -0.81188056460175
H         2.62882824596395   -3.95312796164002    4.08438798715511
H         0.44595235672808   -2.89895713472075    4.53519679137789
H        -0.55298062487342   -1.39239002202169    2.88211545677097
H         1.02987699477023   -0.40436429604212   -0.32694798523259
H        -1.21629615004011   -2.16438249614046    0.40878095325755
H        -1.43200103836975    0.62296134437319   -1.94138485404958
H        -1.16213818998829    0.47963254062523   -4.37237645135927
H        -0.40301640247790   -1.62329088244763   -5.41094133462828
H        -0.14277024245535   -3.73670307897078   -0.30208268780795
H         0.61407486013762   -5.76328024871228   -1.38523061144879
H         0.85292426653239   -5.88030069098639   -3.84057487847019
H         0.31668542817671   -3.90665140907478   -5.21273345066708
H        -5.62490698004545   -1.35295721292351    1.76279198967924
H        -7.08084299159386   -0.33198087197387    1.89507218406179
H        -6.80808310096404   -1.32773236570439    0.45889614172010
H        -7.94433649386009    3.30083332949432    0.27156615617479
H        -8.90117267933771    5.49785942300404   -0.26409484479100
H        -7.52194274340742    7.21252372191172   -1.38057751552736
H        -5.17714536588060    6.70778688350616   -1.95591231002890
H        -4.21328398488705    4.51974610882924   -1.41847117660766
H        -3.38874164052832    2.32339064222134   -0.87036328212881
H        -1.72694292241463    1.84470386146480    0.66035830110830
H        -1.58286236747898    1.01120386229642    4.31652429652233
H         3.28888587696546   -0.04053248488818    3.91464288548360
H         3.34980996076761    1.69773325094453    4.21059694870697
H         1.79356267713997    0.92420938871436    3.85844003431885
H         6.61914015072496    0.48783214108018    1.27790160879345
H         8.74376379236442    0.34001113331177    0.05033436610833
H         8.86920278738375    1.08063498377959   -2.30025114882258
H         6.85716896830929    1.97863342137893   -3.40791109396471
H         4.73463671974151    2.13169417232781   -2.18564078742621
H         2.63695104689958    1.92295521938363   -0.96315414242061
92
 energy: -151.456927146094 gnorm: 0.009115605483 xtb: 6.3.3 (4ae9cef)
C         4.07583414390498   -3.65967434134228    1.87955005091047
C         4.73255908546390   -3.45466466613061    0.70146316568413
C         4.17211202867372   -2.60537995078021   -0.26425124445678
C         2.98026138947609   -1.97843431044441   -0.03650088862791
C         2.27409259086383   -2.15410800213463    1.17491570938362
C         2.84257979683997   -3.02636840454742    2.14614780135614
C         2.16511594110785   -3.26673109873447    3.36024021087837
C         0.96105218117195   -2.67662164881696    3.60940359808460
C         0.39793339767917   -1.81428492790334    2.65964415926663
C         1.02852338622741   -1.53324994895467    1.47415591073148
C         0.34698281674938   -0.60408071152483    0.49608056884872
C        -0.97027998945072   -1.19729642714743   -0.06337878962137
C        -0.84606306618673   -1.37562667564048   -1.55878685561320
C        -1.10995547670817   -0.30272519777544   -2.37086259082345
C        -0.95902807638983   -0.38054068021039   -3.76136171011541
C        -0.53451838195423   -1.54299331880261   -4.33428437279770
C        -0.23844795193719   -2.66886896075934   -3.53663291174060
C        -0.38321077135654   -2.59403475099721   -2.12360862459142
C        -0.04803133411466   -3.73587743956074   -1.36248832341745
C         0.38241541946606   -4.88438023738435   -1.96427605011001
C         0.51302611406474   -4.95831834931169   -3.35961556339739
C         0.21118938895642   -3.86988042479381   -4.12543665341517
N        -1.99867198767807   -0.21541680512346    0.25705747855976
C        -3.31304637688245   -0.54082911458449    0.04225254725827
C        -4.30153288333688    0.54882362489005    0.12493164302850
C        -5.59182081071769    0.40509550588259    0.58194688613604
C        -6.29495640740371   -0.73581644512458    1.21733023112436
O        -6.27188839075378    1.54192126422005    0.40702292970467
C        -5.45315319823848    2.44266633133189   -0.19251880364269
C        -5.99328098366573    3.74620778528244   -0.52245472949112
C        -7.32251153810660    4.03981283687172   -0.20869104235886
C        -7.86047613966840    5.27294818574555   -0.51679328233215
C        -7.08630801246706    6.23518924284029   -1.14458867210454
C        -5.76759256743786    5.95162506894798   -1.46336882264493
C        -5.22173242269065    4.72027278833200   -1.15760766811123
C        -4.21885824738756    1.87562141100492   -0.37856451699591
O        -3.61773403551553   -1.67446971722483   -0.27732348334616
C        -1.48827353546452    0.85507201949700    1.06948052187538
C        -2.09064155861837    0.87585819077031    2.48917951453350
O        -1.15699949190546    0.90615793885658    3.43483464862163
O        -3.26864939718665    0.87328520413723    2.71554310981537
N        -0.06180007641892    0.66446709619988    1.07266165544185
C         0.74009246681810    1.73644383559546    1.30197825319455
C         2.19742174649021    1.46928563251047    1.17582958466158
C         3.06055790253441    1.12710892033540    2.18137972621189
C         2.83245224007858    0.89172555533988    3.62990031253499
O         4.31101595739752    1.03213662357720    1.70095487655276
C         4.27940266933463    1.32538609945171    0.37823236106588
C         5.51906588376251    1.28106202232290   -0.37010692166881
C         6.67222790415435    0.79346191041052    0.24806159342068
C         7.86428718729757    0.72813575821868   -0.44443034988812
C         7.92840615480307    1.14906962694582   -1.76291588604182
C         6.79133953224489    1.64564823283652   -2.38072255366820
C         5.59432129425562    1.71490342872486   -1.69436155593253
C         2.98871058709229    1.60037047753896    0.00489593676263
O         0.27461663874046    2.81871027093936    1.59597851978198
H         4.48252112052015   -4.31789202283760    2.63457733977780
H         5.67352458070697   -3.94391374262999    0.50095943213796
H         4.69050840744178   -2.45129464380011   -1.19870420034251
H         2.57829364940071   -1.34747437856069   -0.81333020555035
H         2.61734019157872   -3.93655557121044    4.07750721229760
H         0.43039895617224   -2.87011126782629    4.52948807594648
H        -0.55860779540995   -1.36448317378985    2.87166807682213
H         1.02184434911201   -0.39151847544511   -0.33714108835837
H        -1.22130268017324   -2.14781345138983    0.41752951524125
H        -1.44726858490290    0.62589898116698   -1.93487215807692
H        -1.18092027291799    0.48678560226110   -4.36474936142643
H        -0.41214845852155   -1.62399354005308   -5.40460323064137
H        -0.12942538067324   -3.70785506729623   -0.28670192195117
H         0.62529593634618   -5.74933388448132   -1.36487077198537
H         0.85245940261044   -5.87589396638974   -3.81636055443584
H         0.30904732089505   -3.90315354763849   -5.20139785594347
H        -5.58571160613545   -1.36118611791464    1.74990142488379
H        -7.05349567622008   -0.35939358484693    1.89957910818299