      -----------------------------------------------------------      
     |                   =====================                   |     
     |                           x T B                           |     
     |                   =====================                   |     
     |                         S. Grimme                         |     
     |          Mulliken Center for Theoretical Chemistry        |     
     |                    University of Bonn                     |     
      -----------------------------------------------------------      

   * xtb version 6.3.3 (4ae9cef) compiled by 'conda@95abc7406d43' on 2020-10-14

   xtb is free software: you can redistribute it and/or modify it under
   the terms of the GNU Lesser General Public License as published by
   the Free Software Foundation, either version 3 of the License, or
   (at your option) any later version.
   
   xtb is distributed in the hope that it will be useful,
   but WITHOUT ANY WARRANTY; without even the implied warranty of
   MERCHANTABILITY or FITNESS FOR A PARTICULAR PURPOSE.  See the
   GNU Lesser General Public License for more details.
   
   Cite this work as:
   * C. Bannwarth, E. Caldeweyher, S. Ehlert, A. Hansen, P. Pracht,
     J. Seibert, S. Spicher, S. Grimme, WIREs Comput. Mol. Sci., 2020,
     e01493. DOI: 10.1002/wcms.1493
   
   for GFN2-xTB:
   * S. Grimme, C. Bannwarth, P. Shushkov, J. Chem. Theory Comput., 2017,
     13, 1989-2009. DOI: 10.1021/acs.jctc.7b00118
   for GFN1-xTB:
   * C. Bannwarth, S. Ehlert and S. Grimme., J. Chem. Theory Comput., 2019,
     15, 1652-1671. DOI: 10.1021/acs.jctc.8b01176
   for GFN0-xTB:
   * P. Pracht, E. Caldeweyher, S. Ehlert, S. Grimme, ChemRxiv, 2019, preprint.
     DOI: 10.26434/chemrxiv.8326202.v1
   for GFN-FF:
   * S. Spicher and S. Grimme, Angew. Chem. Int. Ed., 2020, 59, 15665-15673.
     DOI: 10.1002/anie.202004239
   
   for DFT-D4:
   * E. Caldeweyher, C. Bannwarth and S. Grimme, J. Chem. Phys., 2017,
     147, 034112. DOI: 10.1063/1.4993215
   * E. Caldeweyher, S. Ehlert, A. Hansen, H. Neugebauer, S. Spicher,
     C. Bannwarth and S. Grimme, J. Chem. Phys., 2019, 150, 154122.
     DOI: 10.1063/1.5090222
   * E. Caldeweyher, J.-M. Mewes, S. Ehlert and S. Grimme, Phys. Chem. Chem. Phys.
     2020, 22, 8499-8512. DOI: 10.1039/D0CP00502A
   
   for sTDA-xTB:
   * S. Grimme and C. Bannwarth, J. Chem. Phys., 2016, 145, 054103.
     DOI: 10.1063/1.4959605
   
   in the mass-spec context:
   * V. Asgeirsson, C. Bauer and S. Grimme, Chem. Sci., 2017, 8, 4879.
     DOI: 10.1039/c7sc00601b
   * J. Koopman and S. Grimme, ACS Omega 2019, 4, 12, 15120-15133.
     DOI: 10.1021/acsomega.9b02011
   
   for metadynamics refer to:
   * S. Grimme, J. Chem. Theory Comput., 2019, 155, 2847-2862
     DOI: 10.1021/acs.jctc.9b00143
   
   with help from (in alphabetical order)
   C. Bannwarth, F. Bohle, G. Brandenburg, E. Caldeweyher, M. Checinski,
   S. Dohm, S. Ehlert, S. Ehrlich, F. März, H. Neugebauer, J. Pisarek,
   P. Pracht, P. Shushkov, and S. Spicher.
   
 * started run on 2022/03/16 at 21:48:53.681     

           -------------------------------------------------
          |                Calculation Setup                |
           -------------------------------------------------

          program call               : xtb acid_143.xyz --opt --chrg 0 --uhf 0 --gfn 2
          coordinate file            : acid_143.xyz
          omp threads                :                    64
          number of atoms            :                    66
          number of electrons        :                   190
          charge                     :                     0
          spin                       :                   0.0
          first test random number   :      0.91718110729650

   ID    Z sym.   atoms
    1    6 C      1-14, 16-23, 25, 26, 30-37
    2    7 N      15, 29
    3    8 O      24, 27, 28, 38
    4    1 H      39-66

           -------------------------------------------------
          |                 G F N 2 - x T B                 |
           -------------------------------------------------

        Reference                      10.1021/acs.jctc.8b01176
      * Hamiltonian:
        H0-scaling (s, p, d)           1.850000    2.230000    2.230000
        zeta-weighting                 0.500000
      * Dispersion:
        s8                             2.700000
        a1                             0.520000
        a2                             5.000000
        s9                             5.000000
      * Repulsion:
        kExp                           1.500000    1.000000
        rExp                           1.000000
      * Coulomb:
        alpha                          2.000000
        third order                    shell-resolved
        anisotropic                    true
        a3                             3.000000
        a5                             4.000000
        cn-shift                       1.200000
        cn-exp                         4.000000
        max-rad                        5.000000


          ...................................................
          :                      SETUP                      :
          :.................................................:
          :  # basis functions                 180          :
          :  # atomic orbitals                 180          :
          :  # shells                          104          :
          :  # electrons                       190          :
          :  max. iterations                   250          :
          :  Hamiltonian                  GFN2-xTB          :
          :  restarted?                      false          :
          :  GBSA solvation                  false          :
          :  PC potential                    false          :
          :  electronic temp.          300.0000000     K    :
          :  accuracy                    1.0000000          :
          :  -> integral cutoff          0.2500000E+02      :
          :  -> integral neglect         0.1000000E-07      :
          :  -> SCF convergence          0.1000000E-05 Eh   :
          :  -> wf. convergence          0.1000000E-03 e    :
          :  Broyden damping             0.4000000          :
          ...................................................

 iter      E             dE          RMSdq      gap      omega  full diag
   1   -106.3097690 -0.106310E+03  0.436E+00    3.26       0.0  T
   2   -106.4571266 -0.147358E+00  0.250E+00    3.02       1.0  T
   3   -106.4565216  0.605084E-03  0.122E+00    3.55       1.0  T
   4   -106.4756139 -0.190924E-01  0.230E-01    2.95       1.0  T
   5   -106.4778513 -0.223736E-02  0.931E-02    2.98       1.0  T
   6   -106.4781778 -0.326465E-03  0.420E-02    3.01       1.0  T
   7   -106.4782147 -0.369171E-04  0.185E-02    3.00       1.0  T
   8   -106.4782160 -0.136010E-05  0.598E-03    3.01       2.1  T
   9   -106.4782176 -0.153597E-05  0.267E-03    3.01       4.6  T
  10   -106.4782177 -0.155961E-06  0.100E-03    3.01      12.3  T
  11   -106.4782177 -0.206249E-07  0.540E-04    3.01      22.8  T

   *** convergence criteria satisfied after 11 iterations ***

         #    Occupation            Energy/Eh            Energy/eV
      -------------------------------------------------------------
         1        2.0000           -0.7736296             -21.0515
       ...           ...                  ...                  ...
        89        2.0000           -0.4060952             -11.0504
        90        2.0000           -0.4046046             -11.0099
        91        2.0000           -0.4021481             -10.9430
        92        2.0000           -0.3997481             -10.8777
        93        2.0000           -0.3974276             -10.8146
        94        2.0000           -0.3927489             -10.6872
        95        2.0000           -0.3890627             -10.5869 (HOMO)
        96                         -0.2784235              -7.5763 (LUMO)
        97                         -0.2554234              -6.9504
        98                         -0.2381150              -6.4794
        99                         -0.2362468              -6.4286
       100                         -0.2328322              -6.3357
       ...                                ...                  ...
       180                          0.6260287              17.0351
      -------------------------------------------------------------
                  HL-Gap            0.1106392 Eh            3.0106 eV
             Fermi-level           -0.3337431 Eh           -9.0816 eV

 SCC (total)                   0 d,  0 h,  0 min,  0.435 sec
 SCC setup                      ...        0 min,  0.017 sec (  3.917%)
 Dispersion                     ...        0 min,  0.024 sec (  5.473%)
 classical contributions        ...        0 min,  0.016 sec (  3.609%)
 integral evaluation            ...        0 min,  0.075 sec ( 17.240%)
 iterations                     ...        0 min,  0.172 sec ( 39.590%)
 molecular gradient             ...        0 min,  0.129 sec ( 29.771%)
 printout                       ...        0 min,  0.002 sec (  0.382%)

         :::::::::::::::::::::::::::::::::::::::::::::::::::::
         ::                     SUMMARY                     ::
         :::::::::::::::::::::::::::::::::::::::::::::::::::::
         :: total energy            -104.934423244778 Eh    ::
         :: gradient norm              0.088369212811 Eh/a0 ::
         :: HOMO-LUMO gap              3.010645049375 eV    ::
         ::.................................................::
         :: SCC energy              -106.478217743201 Eh    ::
         :: -> isotropic ES            0.121618153724 Eh    ::
         :: -> anisotropic ES          0.008195561302 Eh    ::
         :: -> anisotropic XC          0.049601666819 Eh    ::
         :: -> dispersion             -0.085539347056 Eh    ::
         :: repulsion energy           1.541153830504 Eh    ::
         :: add. restraining           0.000000000000 Eh    ::
         :: total charge              -0.000000000000 e     ::
         :::::::::::::::::::::::::::::::::::::::::::::::::::::

      ----------------------------------------------------------- 
     |                   =====================                   |
     |                        A N C O P T                        |
     |                   =====================                   |
     |               Approximate Normal Coordinate               |
     |                Rational Function Optimizer                |
      ----------------------------------------------------------- 

          ...................................................
          :                      SETUP                      :
          :.................................................:
          :   optimization level            normal          :
          :   max. optcycles                   200          :
          :   ANC micro-cycles                  20          :
          :   degrees of freedom               192          :
          :.................................................:
          :   RF solver                   davidson          :
          :   write xtbopt.log                true          :
          :   linear?                        false          :
          :   energy convergence         0.5000000E-05 Eh   :
          :   grad. convergence          0.1000000E-02 Eh/α :
          :   maximium RF displ.         1.0000000          :
          :   Hlow (freq-cutoff)         0.1000000E-01      :
          :   Hmax (freq-cutoff)         5.0000000          :
          :   S6 in model hess.         20.0000000          :
          ...................................................

generating ANC from model Hessian ...
Using Lindh-Hessian (1995)
 Shifting diagonal of input Hessian by    9.8362482425637925E-003
 Lowest  eigenvalues of input Hessian
    0.000000    0.000000    0.000000    0.000000    0.000000    0.000000
    0.010000    0.010065    0.010159    0.010362    0.010417    0.010549
    0.010585    0.010767    0.010974    0.011086    0.011377    0.011861
 Highest eigenvalues
    1.938616    1.975836    1.988065    2.203188    2.247805    2.250163


........................................................................
.............................. CYCLE    1 ..............................
........................................................................
   1   -106.4782177 -0.106478E+03  0.175E-04    3.01       0.0  T
   2   -106.4782177 -0.432749E-09  0.114E-04    3.01     107.7  T
   3   -106.4782177 -0.154586E-09  0.739E-05    3.01     166.5  T
     SCC iter.                  ...        0 min,  0.050 sec
     gradient                   ...        0 min,  0.124 sec
 * total energy  :  -104.9344232 Eh     change       -0.5147626E-08 Eh
   gradient norm :     0.0883799 Eh/α   predicted     0.0000000E+00 (-100.00%)
   displ. norm   :     0.3527252 α      lambda       -0.1814228E-01
   maximum displ.:     0.1281229 α      in ANC's #62, #88, #103, ...

........................................................................
.............................. CYCLE    2 ..............................
........................................................................
   1   -106.5669369 -0.106567E+03  0.176E-01    3.30       0.0  T
   2   -106.5670426 -0.105725E-03  0.107E-01    3.24       1.0  T
   3   -106.5669729  0.697382E-04  0.459E-02    3.26       1.0  T
   4   -106.5670771 -0.104241E-03  0.777E-03    3.24       1.6  T
   5   -106.5670803 -0.319041E-05  0.299E-03    3.24       4.1  T
   6   -106.5670805 -0.202882E-06  0.146E-03    3.24       8.4  T
   7   -106.5670805 -0.120363E-07  0.462E-04    3.24      26.7  T
   8   -106.5670805 -0.542447E-08  0.211E-04    3.24      58.3  T
     SCC iter.                  ...        0 min,  0.123 sec
     gradient                   ...        0 min,  0.148 sec
 * total energy  :  -104.9466906 Eh     change       -0.1226731E-01 Eh
   gradient norm :     0.0306920 Eh/α   predicted    -0.1019973E-01 ( -16.85%)
   displ. norm   :     0.3484284 α      lambda       -0.5237069E-02
   maximum displ.:     0.1106641 α      in ANC's #25, #23, #22, ...

........................................................................
.............................. CYCLE    3 ..............................
........................................................................
   1   -106.6061348 -0.106606E+03  0.108E-01    3.37       0.0  T
   2   -106.6061751 -0.403016E-04  0.674E-02    3.34       1.0  T
   3   -106.6061451  0.300155E-04  0.294E-02    3.35       1.0  T
   4   -106.6061917 -0.466648E-04  0.495E-03    3.34       2.5  T
   5   -106.6061931 -0.135444E-05  0.173E-03    3.33       7.1  T
   6   -106.6061931 -0.294025E-07  0.849E-04    3.34      14.5  T
   7   -106.6061931 -0.530777E-08  0.325E-04    3.34      37.9  T
     SCC iter.                  ...        0 min,  0.103 sec
     gradient                   ...        0 min,  0.127 sec
 * total energy  :  -104.9499640 Eh     change       -0.3273435E-02 Eh
   gradient norm :     0.0119808 Eh/α   predicted    -0.2936431E-02 ( -10.30%)
   displ. norm   :     0.2641593 α      lambda       -0.1230800E-02
   maximum displ.:     0.0957259 α      in ANC's #14, #22, #23, ...

........................................................................
.............................. CYCLE    4 ..............................
........................................................................
   1   -106.6098946 -0.106610E+03  0.631E-02    3.36       0.0  T
   2   -106.6099032 -0.868341E-05  0.383E-02    3.35       1.0  T
   3   -106.6098926  0.106675E-04  0.148E-02    3.35       1.0  T
   4   -106.6099065 -0.139448E-04  0.260E-03    3.35       4.7  T
   5   -106.6099069 -0.383751E-06  0.101E-03    3.35      12.2  T
   6   -106.6099069 -0.525070E-08  0.518E-04    3.35      23.8  T
   7   -106.6099069 -0.427815E-08  0.150E-04    3.35      81.9  T
     SCC iter.                  ...        0 min,  0.106 sec
     gradient                   ...        0 min,  0.147 sec
 * total energy  :  -104.9508196 Eh     change       -0.8556451E-03 Eh
   gradient norm :     0.0083010 Eh/α   predicted    -0.6583574E-03 ( -23.06%)
   displ. norm   :     0.2576555 α      lambda       -0.6166048E-03
   maximum displ.:     0.1019128 α      in ANC's #14, #6, #19, ...

........................................................................
.............................. CYCLE    5 ..............................
........................................................................
   1   -106.6084864 -0.106608E+03  0.551E-02    3.35       0.0  T
   2   -106.6084890 -0.264171E-05  0.327E-02    3.35       1.0  T
   3   -106.6084843  0.467971E-05  0.931E-03    3.35       1.3  T
   4   -106.6084901 -0.581476E-05  0.166E-03    3.35       7.4  T
   5   -106.6084902 -0.783967E-07  0.889E-04    3.35      13.8  T
   6   -106.6084902 -0.365858E-08  0.353E-04    3.35      34.9  T
     SCC iter.                  ...        0 min,  0.090 sec
     gradient                   ...        0 min,  0.147 sec
 * total energy  :  -104.9512249 Eh     change       -0.4053043E-03 Eh
   gradient norm :     0.0054069 Eh/α   predicted    -0.3287993E-03 ( -18.88%)
   displ. norm   :     0.1976483 α      lambda       -0.2509865E-03
   maximum displ.:     0.0955254 α      in ANC's #6, #14, #5, ...

........................................................................
.............................. CYCLE    6 ..............................
........................................................................
   1   -106.6073920 -0.106607E+03  0.415E-02    3.34       0.0  T
   2   -106.6073932 -0.118868E-05  0.245E-02    3.34       1.0  T
   3   -106.6073917  0.154018E-05  0.567E-03    3.34       2.2  T
   4   -106.6073937 -0.197844E-05  0.108E-03    3.34      11.4  T
   5   -106.6073937 -0.274437E-07  0.603E-04    3.34      20.4  T
   6   -106.6073937 -0.230685E-08  0.230E-04    3.34      53.5  T
     SCC iter.                  ...        0 min,  0.089 sec
     gradient                   ...        0 min,  0.145 sec
 * total energy  :  -104.9514045 Eh     change       -0.1795414E-03 Eh
   gradient norm :     0.0037984 Eh/α   predicted    -0.1303965E-03 ( -27.37%)
   displ. norm   :     0.2320276 α      lambda       -0.2102494E-03
   maximum displ.:     0.1225238 α      in ANC's #6, #5, #7, ...

........................................................................
.............................. CYCLE    7 ..............................
........................................................................
   1   -106.6074713 -0.106607E+03  0.488E-02    3.34       0.0  T
   2   -106.6074725 -0.119627E-05  0.288E-02    3.34       1.0  T
   3   -106.6074711  0.134322E-05  0.514E-03    3.34       2.4  T
   4   -106.6074729 -0.176491E-05  0.108E-03    3.34      11.4  T
   5   -106.6074729 -0.293008E-07  0.618E-04    3.34      19.9  T
   6   -106.6074729 -0.388997E-08  0.252E-04    3.34      48.9  T
     SCC iter.                  ...        0 min,  0.088 sec
     gradient                   ...        0 min,  0.129 sec
 * total energy  :  -104.9515646 Eh     change       -0.1600772E-03 Eh
   gradient norm :     0.0034722 Eh/α   predicted    -0.1107885E-03 ( -30.79%)
   displ. norm   :     0.2985665 α      lambda       -0.2233715E-03
   maximum displ.:     0.1602954 α      in ANC's #6, #5, #7, ...

........................................................................
.............................. CYCLE    8 ..............................
........................................................................
   1   -106.6079113 -0.106608E+03  0.660E-02    3.34       0.0  T
   2   -106.6079125 -0.121012E-05  0.388E-02    3.34       1.0  T
   3   -106.6079101  0.236641E-05  0.604E-03    3.34       2.0  T
   4   -106.6079131 -0.296797E-05  0.113E-03    3.34      10.9  T
   5   -106.6079131 -0.185670E-07  0.651E-04    3.34      18.9  T
   6   -106.6079131 -0.453193E-08  0.258E-04    3.34      47.7  T
     SCC iter.                  ...        0 min,  0.089 sec
     gradient                   ...        0 min,  0.128 sec
 * total energy  :  -104.9517446 Eh     change       -0.1799966E-03 Eh
   gradient norm :     0.0044819 Eh/α   predicted    -0.1216419E-03 ( -32.42%)
   displ. norm   :     0.3873187 α      lambda       -0.2613270E-03
   maximum displ.:     0.2094150 α      in ANC's #6, #5, #7, ...

........................................................................
.............................. CYCLE    9 ..............................
........................................................................
   1   -106.6083087 -0.106608E+03  0.841E-02    3.34       0.0  T
   2   -106.6083106 -0.193303E-05  0.494E-02    3.34       1.0  T
   3   -106.6083066  0.406928E-05  0.767E-03    3.34       1.6  T
   4   -106.6083116 -0.501758E-05  0.134E-03    3.34       9.2  T
   5   -106.6083116 -0.326579E-07  0.764E-04    3.34      16.1  T
   6   -106.6083116 -0.360745E-08  0.332E-04    3.34      37.1  T
     SCC iter.                  ...        0 min,  0.094 sec
     gradient                   ...        0 min,  0.159 sec
 * total energy  :  -104.9519583 Eh     change       -0.2136978E-03 Eh
   gradient norm :     0.0048056 Eh/α   predicted    -0.1502681E-03 ( -29.68%)
   displ. norm   :     0.4511879 α      lambda       -0.2716508E-03
   maximum displ.:     0.2466448 α      in ANC's #6, #5, #7, ...

........................................................................
.............................. CYCLE   10 ..............................
........................................................................
   1   -106.6081890 -0.106608E+03  0.944E-02    3.34       0.0  T
   2   -106.6081912 -0.228252E-05  0.555E-02    3.34       1.0  T
   3   -106.6081849  0.637751E-05  0.944E-03    3.34       1.3  T
   4   -106.6081926 -0.773594E-05  0.144E-03    3.34       8.6  T
   5   -106.6081926 -0.207025E-07  0.845E-04    3.34      14.6  T
   6   -106.6081926 -0.776686E-08  0.309E-04    3.34      39.9  T
     SCC iter.                  ...        0 min,  0.096 sec
     gradient                   ...        0 min,  0.133 sec
 * total energy  :  -104.9521801 Eh     change       -0.2218082E-03 Eh
   gradient norm :     0.0044483 Eh/α   predicted    -0.1634765E-03 ( -26.30%)
   displ. norm   :     0.4743197 α      lambda       -0.2558641E-03
   maximum displ.:     0.2621629 α      in ANC's #6, #7, #3, ...

........................................................................
.............................. CYCLE   11 ..............................
........................................................................
   1   -106.6081578 -0.106608E+03  0.927E-02    3.34       0.0  T
   2   -106.6081605 -0.266521E-05  0.545E-02    3.34       1.0  T
   3   -106.6081534  0.702608E-05  0.996E-03    3.34       1.2  T
   4   -106.6081619 -0.848073E-05  0.146E-03    3.34       8.4  T
   5   -106.6081619 -0.347469E-07  0.862E-04    3.34      14.3  T
   6   -106.6081619 -0.736193E-08  0.345E-04    3.34      35.7  T
     SCC iter.                  ...        0 min,  0.099 sec
     gradient                   ...        0 min,  0.133 sec
 * total energy  :  -104.9523883 Eh     change       -0.2081904E-03 Eh
   gradient norm :     0.0042464 Eh/α   predicted    -0.1567143E-03 ( -24.73%)
   displ. norm   :     0.4814808 α      lambda       -0.2339185E-03
   maximum displ.:     0.2673548 α      in ANC's #6, #3, #7, ...

........................................................................
.............................. CYCLE   12 ..............................
........................................................................
   1   -106.6081704 -0.106608E+03  0.884E-02    3.33       0.0  T
   2   -106.6081734 -0.303233E-05  0.520E-02    3.33       1.0  T
   3   -106.6081666  0.683916E-05  0.992E-03    3.33       1.2  T
   4   -106.6081748 -0.825648E-05  0.149E-03    3.33       8.2  T
   5   -106.6081749 -0.553571E-07  0.853E-04    3.33      14.4  T
   6   -106.6081749 -0.637149E-08  0.399E-04    3.33      30.9  T
     SCC iter.                  ...        0 min,  0.091 sec
     gradient                   ...        0 min,  0.143 sec
 * total energy  :  -104.9525773 Eh     change       -0.1890888E-03 Eh
   gradient norm :     0.0033197 Eh/α   predicted    -0.1440764E-03 ( -23.80%)
   displ. norm   :     0.4833117 α      lambda       -0.2109292E-03
   maximum displ.:     0.2673286 α      in ANC's #6, #3, #7, ...

........................................................................
.............................. CYCLE   13 ..............................
........................................................................
   1   -106.6087098 -0.106609E+03  0.830E-02    3.33       0.0  T
   2   -106.6087128 -0.305284E-05  0.487E-02    3.33       1.0  T
   3   -106.6087067  0.612301E-05  0.960E-03    3.33       1.3  T
   4   -106.6087141 -0.744049E-05  0.148E-03    3.33       8.3  T
   5   -106.6087142 -0.636118E-07  0.831E-04    3.33      14.8  T
   6   -106.6087142 -0.621623E-08  0.382E-04    3.33      32.3  T
     SCC iter.                  ...        0 min,  0.096 sec
     gradient                   ...        0 min,  0.123 sec
 * total energy  :  -104.9527441 Eh     change       -0.1667649E-03 Eh
   gradient norm :     0.0028434 Eh/α   predicted    -0.1301048E-03 ( -21.98%)
   displ. norm   :     0.4710802 α      lambda       -0.1757327E-03
   maximum displ.:     0.2574348 α      in ANC's #6, #3, #7, ...

........................................................................
.............................. CYCLE   14 ..............................
........................................................................
   1   -106.6083021 -0.106608E+03  0.798E-02    3.31       0.0  T
   2   -106.6083050 -0.294206E-05  0.468E-02    3.31       1.0  T
   3   -106.6082994  0.559174E-05  0.918E-03    3.31       1.3  T
   4   -106.6083062 -0.683003E-05  0.149E-03    3.31       8.3  T
   5   -106.6083063 -0.562440E-07  0.824E-04    3.31      14.9  T
   6   -106.6083063 -0.395988E-08  0.386E-04    3.31      31.9  T
     SCC iter.                  ...        0 min,  0.090 sec
     gradient                   ...        0 min,  0.132 sec
 * total energy  :  -104.9528802 Eh     change       -0.1360777E-03 Eh
   gradient norm :     0.0036495 Eh/α   predicted    -0.1073676E-03 ( -21.10%)
   displ. norm   :     0.4219630 α      lambda       -0.1662565E-03
   maximum displ.:     0.2198103 α      in ANC's #6, #3, #7, ...

........................................................................
.............................. CYCLE   15 ..............................
........................................................................
   1   -106.6107021 -0.106611E+03  0.690E-02    3.33       0.0  T
   2   -106.6107047 -0.262699E-05  0.405E-02    3.33       1.0  T
   3   -106.6107006  0.405717E-05  0.841E-03    3.33       1.5  T
   4   -106.6107057 -0.504224E-05  0.145E-03    3.33       8.5  T
   5   -106.6107057 -0.715680E-07  0.790E-04    3.33      15.6  T
   6   -106.6107057 -0.703247E-08  0.335E-04    3.33      36.7  T
     SCC iter.                  ...        0 min,  0.093 sec
     gradient                   ...        0 min,  0.117 sec
 * total energy  :  -104.9530029 Eh     change       -0.1227320E-03 Eh
   gradient norm :     0.0034531 Eh/α   predicted    -0.9795353E-04 ( -20.19%)
   displ. norm   :     0.4601899 α      lambda       -0.1650960E-03
   maximum displ.:     0.2391183 α      in ANC's #6, #3, #7, ...

........................................................................
.............................. CYCLE   16 ..............................
........................................................................
   1   -106.6082102 -0.106608E+03  0.837E-02    3.28       0.0  T
   2   -106.6082135 -0.330714E-05  0.490E-02    3.29       1.0  T
   3   -106.6082078  0.572439E-05  0.972E-03    3.28       1.3  T
   4   -106.6082149 -0.713765E-05  0.170E-03    3.29       7.2  T
   5   -106.6082150 -0.726040E-07  0.973E-04    3.29      12.7  T
   6   -106.6082150 -0.890637E-08  0.339E-04    3.29      36.3  T
     SCC iter.                  ...        0 min,  0.090 sec
     gradient                   ...        0 min,  0.133 sec
 * total energy  :  -104.9531207 Eh     change       -0.1178186E-03 Eh
   gradient norm :     0.0059590 Eh/α   predicted    -0.1000344E-03 ( -15.09%)
   displ. norm   :     0.3193572 α      lambda       -0.1776319E-03
   maximum displ.:     0.1624905 α      in ANC's #8, #6, #2, ...

........................................................................
.............................. CYCLE   17 ..............................
........................................................................
   1   -106.6117395 -0.106612E+03  0.648E-02    3.30       0.0  T
   2   -106.6117417 -0.213067E-05  0.380E-02    3.30       1.0  T
   3   -106.6117379  0.380391E-05  0.785E-03    3.30       1.6  T
   4   -106.6117425 -0.458587E-05  0.138E-03    3.30       8.9  T
   5   -106.6117425 -0.907999E-07  0.673E-04    3.30      18.3  T
   6   -106.6117426 -0.642967E-08  0.281E-04    3.30      43.8  T
     SCC iter.                  ...        0 min,  0.092 sec
     gradient                   ...        0 min,  0.127 sec
 * total energy  :  -104.9532494 Eh     change       -0.1287018E-03 Eh
   gradient norm :     0.0042161 Eh/α   predicted    -0.9787525E-04 ( -23.95%)
   displ. norm   :     0.4001465 α      lambda       -0.1460674E-03
   maximum displ.:     0.1876824 α      in ANC's #6, #8, #3, ...

........................................................................
.............................. CYCLE   18 ..............................
........................................................................
   1   -106.6095396 -0.106610E+03  0.763E-02    3.31       0.0  T
   2   -106.6095437 -0.402943E-05  0.447E-02    3.30       1.0  T
   3   -106.6095399  0.378446E-05  0.775E-03    3.30       1.6  T
   4   -106.6095444 -0.451187E-05  0.189E-03    3.30       6.5  T
   5   -106.6095446 -0.234511E-06  0.750E-04    3.30      16.4  T
   6   -106.6095446 -0.457653E-08  0.394E-04    3.30      31.2  T
     SCC iter.                  ...        0 min,  0.095 sec
     gradient                   ...        0 min,  0.118 sec
 * total energy  :  -104.9533570 Eh     change       -0.1075832E-03 Eh
   gradient norm :     0.0037107 Eh/α   predicted    -0.8474148E-04 ( -21.23%)
   displ. norm   :     0.3006917 α      lambda       -0.1256228E-03
   maximum displ.:     0.1609791 α      in ANC's #8, #2, #6, ...

........................................................................
.............................. CYCLE   19 ..............................
........................................................................
   1   -106.6111683 -0.106611E+03  0.606E-02    3.30       0.0  T
   2   -106.6111693 -0.992795E-06  0.355E-02    3.30       1.0  T
   3   -106.6111673  0.208592E-05  0.560E-03    3.30       2.2  T
   4   -106.6111698 -0.257689E-05  0.102E-03    3.30      12.1  T
   5   -106.6111699 -0.201268E-07  0.586E-04    3.30      21.0  T
   6   -106.6111699 -0.489609E-08  0.196E-04    3.30      62.9  T
     SCC iter.                  ...        0 min,  0.090 sec
     gradient                   ...        0 min,  0.116 sec
 * total energy  :  -104.9534487 Eh     change       -0.9169713E-04 Eh
   gradient norm :     0.0029304 Eh/α   predicted    -0.6849200E-04 ( -25.31%)
   displ. norm   :     0.3067051 α      lambda       -0.8974430E-04
   maximum displ.:     0.1489974 α      in ANC's #8, #6, #2, ...

........................................................................
.............................. CYCLE   20 ..............................
........................................................................
   1   -106.6106190 -0.106611E+03  0.547E-02    3.31       0.0  T
   2   -106.6106202 -0.118814E-05  0.321E-02    3.31       1.0  T
   3   -106.6106177  0.248529E-05  0.614E-03    3.31       2.0  T
   4   -106.6106207 -0.301955E-05  0.994E-04    3.30      12.4  T
   5   -106.6106207 -0.271145E-07  0.559E-04    3.30      22.0  T
   6   -106.6106207 -0.405241E-08  0.206E-04    3.30      59.9  T
     SCC iter.                  ...        0 min,  0.094 sec
     gradient                   ...        0 min,  0.128 sec
 * total energy  :  -104.9535205 Eh     change       -0.7181104E-04 Eh
   gradient norm :     0.0031917 Eh/α   predicted    -0.4909738E-04 ( -31.63%)
   displ. norm   :     0.3556370 α      lambda       -0.1126935E-03
   maximum displ.:     0.1852928 α      in ANC's #8, #2, #6, ...
 * RMSD in coord.:     0.7131093 α      energy gain  -0.1909728E-01 Eh

generating ANC from model Hessian ...
Using Lindh-Hessian (1995)
 Shifting diagonal of input Hessian by    9.8357860308715458E-003
 Lowest  eigenvalues of input Hessian
    0.000000    0.000000    0.000000    0.000000    0.000000    0.000000
    0.010000    0.010087    0.010196    0.010403    0.010495    0.010660
    0.010740    0.010853    0.011066    0.011300    0.011636    0.012058
 Highest eigenvalues
    2.031554    2.034430    2.043952    2.332324    2.342839    2.392525


........................................................................
.............................. CYCLE   21 ..............................
........................................................................
   1   -106.6114841 -0.106611E+03  0.623E-02    3.31       0.0  T
   2   -106.6114853 -0.127086E-05  0.365E-02    3.31       1.0  T
   3   -106.6114827  0.268543E-05  0.628E-03    3.31       2.0  T
   4   -106.6114859 -0.326958E-05  0.107E-03    3.31      11.6  T
   5   -106.6114859 -0.221055E-07  0.584E-04    3.31      21.1  T
   6   -106.6114859 -0.294860E-08  0.261E-04    3.31      47.2  T
     SCC iter.                  ...        0 min,  0.091 sec
     gradient                   ...        0 min,  0.143 sec
 * total energy  :  -104.9536138 Eh     change       -0.9325495E-04 Eh
   gradient norm :     0.0036353 Eh/α   predicted     0.0000000E+00 (-100.00%)
   displ. norm   :     0.0494989 α      lambda       -0.5566888E-04
   maximum displ.:     0.0166953 α      in ANC's #10, #16, #2, ...

........................................................................
.............................. CYCLE   22 ..............................
........................................................................
   1   -106.6113980 -0.106611E+03  0.149E-02    3.31       0.0  T
   2   -106.6113983 -0.332085E-06  0.877E-03    3.31       1.4  T
   3   -106.6113981  0.233612E-06  0.214E-03    3.31       5.7  T
   4   -106.6113983 -0.274614E-06  0.494E-04    3.31      24.9  T
   5   -106.6113983 -0.177592E-07  0.139E-04    3.31      88.5  T
     SCC iter.                  ...        0 min,  0.081 sec
     gradient                   ...        0 min,  0.130 sec
 * total energy  :  -104.9536602 Eh     change       -0.4646393E-04 Eh
   gradient norm :     0.0017773 Eh/α   predicted    -0.2792344E-04 ( -39.90%)
   displ. norm   :     0.2466428 α      lambda       -0.1184634E-03
   maximum displ.:     0.0909965 α      in ANC's #10, #7, #2, ...

........................................................................
.............................. CYCLE   23 ..............................
........................................................................
   1   -106.6110354 -0.106611E+03  0.694E-02    3.31       0.0  T
   2   -106.6110395 -0.408695E-05  0.407E-02    3.32       1.0  T
   3   -106.6110346  0.490160E-05  0.876E-03    3.32       1.4  T
   4   -106.6110403 -0.569780E-05  0.175E-03    3.32       7.0  T
   5   -106.6110405 -0.220925E-06  0.582E-04    3.32      21.1  T
   6   -106.6110405 -0.458206E-08  0.306E-04    3.32      40.3  T
     SCC iter.                  ...        0 min,  0.091 sec
     gradient                   ...        0 min,  0.122 sec
 * total energy  :  -104.9537451 Eh     change       -0.8486881E-04 Eh
   gradient norm :     0.0047984 Eh/α   predicted    -0.6087153E-04 ( -28.28%)
   displ. norm   :     0.0705543 α      lambda       -0.4268050E-04
   maximum displ.:     0.0303975 α      in ANC's #10, #2, #8, ...

........................................................................
.............................. CYCLE   24 ..............................
........................................................................
   1   -106.6113167 -0.106611E+03  0.172E-02    3.32       0.0  T
   2   -106.6113169 -0.165001E-06  0.101E-02    3.32       1.2  T
   3   -106.6113165  0.380439E-06  0.244E-03    3.31       5.1  T
   4   -106.6113170 -0.451904E-06  0.353E-04    3.32      34.9  T
   5   -106.6113170 -0.571085E-08  0.165E-04    3.32      74.7  T
     SCC iter.                  ...        0 min,  0.075 sec
     gradient                   ...        0 min,  0.122 sec
 * total energy  :  -104.9537845 Eh     change       -0.3934071E-04 Eh
   gradient norm :     0.0037061 Eh/α   predicted    -0.2147463E-04 ( -45.41%)
   displ. norm   :     0.3559920 α      lambda       -0.1917487E-03
   maximum displ.:     0.1514065 α      in ANC's #10, #2, #8, ...

........................................................................
.............................. CYCLE   25 ..............................
........................................................................
   1   -106.6112660 -0.106611E+03  0.853E-02    3.31       0.0  T
   2   -106.6112704 -0.440722E-05  0.501E-02    3.31       1.0  T
   3   -106.6112611  0.930966E-05  0.122E-02    3.31       1.0  T
   4   -106.6112721 -0.110519E-04  0.178E-03    3.31       6.9  T
   5   -106.6112723 -0.159736E-06  0.794E-04    3.31      15.5  T
   6   -106.6112723 -0.763086E-08  0.390E-04    3.31      31.6  T
     SCC iter.                  ...        0 min,  0.093 sec
     gradient                   ...        0 min,  0.137 sec
 * total energy  :  -104.9539158 Eh     change       -0.1313436E-03 Eh
   gradient norm :     0.0024250 Eh/α   predicted    -0.1080296E-03 ( -17.75%)
   displ. norm   :     0.2890698 α      lambda       -0.7875179E-04
   maximum displ.:     0.1197499 α      in ANC's #10, #2, #8, ...

........................................................................
.............................. CYCLE   26 ..............................
........................................................................
   1   -106.6103376 -0.106610E+03  0.671E-02    3.31       0.0  T
   2   -106.6103398 -0.220188E-05  0.394E-02    3.31       1.0  T
   3   -106.6103342  0.561073E-05  0.913E-03    3.31       1.3  T
   4   -106.6103408 -0.662467E-05  0.123E-03    3.31      10.0  T
   5   -106.6103409 -0.691316E-07  0.589E-04    3.31      20.9  T
   6   -106.6103409 -0.255261E-08  0.262E-04    3.31      46.9  T
     SCC iter.                  ...        0 min,  0.091 sec
     gradient                   ...        0 min,  0.132 sec
 * total energy  :  -104.9539766 Eh     change       -0.6083200E-04 Eh
   gradient norm :     0.0039746 Eh/α   predicted    -0.4266728E-04 ( -29.86%)
   displ. norm   :     0.3124960 α      lambda       -0.8507895E-04
   maximum displ.:     0.1305256 α      in ANC's #2, #8, #10, ...

........................................................................
.............................. CYCLE   27 ..............................
........................................................................
   1   -106.6098441 -0.106610E+03  0.707E-02    3.31       0.0  T
   2   -106.6098461 -0.195307E-05  0.415E-02    3.31       1.0  T
   3   -106.6098400  0.608073E-05  0.927E-03    3.31       1.3  T
   4   -106.6098472 -0.714100E-05  0.109E-03    3.31      11.3  T
   5   -106.6098472 -0.430895E-07  0.570E-04    3.31      21.6  T
   6   -106.6098472 -0.150706E-08  0.230E-04    3.31      53.4  T
     SCC iter.                  ...        0 min,  0.090 sec
     gradient                   ...        0 min,  0.144 sec
 * total energy  :  -104.9540489 Eh     change       -0.7223255E-04 Eh
   gradient norm :     0.0039467 Eh/α   predicted    -0.4669637E-04 ( -35.35%)
   displ. norm   :     0.4324286 α      lambda       -0.1333956E-03
   maximum displ.:     0.1836867 α      in ANC's #2, #8, #10, ...

........................................................................
.............................. CYCLE   28 ..............................
........................................................................
   1   -106.6094532 -0.106609E+03  0.957E-02    3.32       0.0  T
   2   -106.6094560 -0.287277E-05  0.562E-02    3.32       1.0  T
   3   -106.6094452  0.108266E-04  0.122E-02    3.32       1.0  T
   4   -106.6094579 -0.126639E-04  0.125E-03    3.32       9.8  T
   5   -106.6094579 -0.365865E-07  0.707E-04    3.32      17.4  T
   6   -106.6094579 -0.325926E-08  0.261E-04    3.32      47.1  T
     SCC iter.                  ...        0 min,  0.089 sec
     gradient                   ...        0 min,  0.136 sec
 * total energy  :  -104.9541604 Eh     change       -0.1115112E-03 Eh
   gradient norm :     0.0028649 Eh/α   predicted    -0.7920733E-04 ( -28.97%)
   displ. norm   :     0.5105057 α      lambda       -0.1538082E-03
   maximum displ.:     0.2189608 α      in ANC's #2, #8, #5, ...

........................................................................
.............................. CYCLE   29 ..............................
........................................................................
   1   -106.6088628 -0.106609E+03  0.111E-01    3.33       0.0  T
   2   -106.6088662 -0.341960E-05  0.651E-02    3.33       1.0  T
   3   -106.6088522  0.140048E-04  0.139E-02    3.32       1.0  T
   4   -106.6088685 -0.163511E-04  0.136E-03    3.32       9.0  T
   5   -106.6088686 -0.295016E-07  0.770E-04    3.32      16.0  T
   6   -106.6088686 -0.808585E-08  0.276E-04    3.32      44.6  T
     SCC iter.                  ...        0 min,  0.097 sec
     gradient                   ...        0 min,  0.134 sec
 * total energy  :  -104.9542880 Eh     change       -0.1275753E-03 Eh
   gradient norm :     0.0028902 Eh/α   predicted    -0.9694775E-04 ( -24.01%)
   displ. norm   :     0.4811309 α      lambda       -0.1476914E-03
   maximum displ.:     0.2089480 α      in ANC's #2, #8, #5, ...

........................................................................
.............................. CYCLE   30 ..............................
........................................................................
   1   -106.6093412 -0.106609E+03  0.102E-01    3.33       0.0  T
   2   -106.6093442 -0.301440E-05  0.598E-02    3.33       1.0  T
   3   -106.6093331  0.111057E-04  0.125E-02    3.33       1.0  T
   4   -106.6093461 -0.129911E-04  0.134E-03    3.33       9.2  T
   5   -106.6093461 -0.395709E-07  0.718E-04    3.33      17.1  T
   6   -106.6093461 -0.709582E-08  0.267E-04    3.33      46.0  T
     SCC iter.                  ...        0 min,  0.113 sec
     gradient                   ...        0 min,  0.146 sec
 * total energy  :  -104.9544131 Eh     change       -0.1251117E-03 Eh
   gradient norm :     0.0037089 Eh/α   predicted    -0.9095964E-04 ( -27.30%)
   displ. norm   :     0.5232731 α      lambda       -0.1652169E-03
   maximum displ.:     0.2290244 α      in ANC's #2, #8, #5, ...

........................................................................
.............................. CYCLE   31 ..............................
........................................................................
   1   -106.6100493 -0.106610E+03  0.108E-01    3.33       0.0  T
   2   -106.6100529 -0.360983E-05  0.634E-02    3.33       1.0  T
   3   -106.6100412  0.117801E-04  0.130E-02    3.33       1.0  T
   4   -106.6100550 -0.138172E-04  0.153E-03    3.33       8.0  T
   5   -106.6100550 -0.668277E-07  0.792E-04    3.33      15.5  T
   6   -106.6100550 -0.636634E-08  0.295E-04    3.33      41.7  T
     SCC iter.                  ...        0 min,  0.091 sec
     gradient                   ...        0 min,  0.151 sec
 * total energy  :  -104.9545513 Eh     change       -0.1382261E-03 Eh
   gradient norm :     0.0039901 Eh/α   predicted    -0.1052280E-03 ( -23.87%)
   displ. norm   :     0.5285300 α      lambda       -0.1639454E-03
   maximum displ.:     0.2335448 α      in ANC's #2, #5, #11, ...

........................................................................
.............................. CYCLE   32 ..............................
........................................................................
   1   -106.6113026 -0.106611E+03  0.106E-01    3.33       0.0  T
   2   -106.6113062 -0.360903E-05  0.621E-02    3.33       1.0  T
   3   -106.6112954  0.108385E-04  0.126E-02    3.33       1.0  T
   4   -106.6113082 -0.127576E-04  0.160E-03    3.33       7.7  T
   5   -106.6113082 -0.780663E-07  0.828E-04    3.33      14.9  T
   6   -106.6113082 -0.525168E-08  0.295E-04    3.33      41.7  T
     SCC iter.                  ...        0 min,  0.094 sec
     gradient                   ...        0 min,  0.113 sec
 * total energy  :  -104.9546821 Eh     change       -0.1308342E-03 Eh
   gradient norm :     0.0033166 Eh/α   predicted    -0.1048722E-03 ( -19.84%)
   displ. norm   :     0.4721991 α      lambda       -0.1183161E-03
   maximum displ.:     0.2149431 α      in ANC's #2, #5, #1, ...

........................................................................
.............................. CYCLE   33 ..............................
........................................................................
   1   -106.6100635 -0.106610E+03  0.926E-02    3.32       0.0  T
   2   -106.6100660 -0.242558E-05  0.543E-02    3.32       1.0  T
   3   -106.6100563  0.970926E-05  0.118E-02    3.32       1.0  T
   4   -106.6100676 -0.113540E-04  0.124E-03    3.32       9.9  T
   5   -106.6100676 -0.258705E-07  0.690E-04    3.32      17.8  T
   6   -106.6100677 -0.506419E-08  0.220E-04    3.32      55.9  T
     SCC iter.                  ...        0 min,  0.093 sec
     gradient                   ...        0 min,  0.129 sec
 * total energy  :  -104.9547729 Eh     change       -0.9078782E-04 Eh
   gradient norm :     0.0024864 Eh/α   predicted    -0.7235578E-04 ( -20.30%)
   displ. norm   :     0.3228982 α      lambda       -0.1081509E-03
   maximum displ.:     0.1591389 α      in ANC's #5, #2, #1, ...

........................................................................
.............................. CYCLE   34 ..............................
........................................................................
   1   -106.6166181 -0.106617E+03  0.590E-02    3.31       0.0  T
   2   -106.6166197 -0.159632E-05  0.346E-02    3.31       1.0  T
   3   -106.6166170  0.272074E-05  0.653E-03    3.31       1.9  T
   4   -106.6166203 -0.331754E-05  0.121E-03    3.31      10.2  T
   5   -106.6166204 -0.503147E-07  0.650E-04    3.31      19.0  T
   6   -106.6166204 -0.413365E-08  0.254E-04    3.31      48.4  T
     SCC iter.                  ...        0 min,  0.089 sec
     gradient                   ...        0 min,  0.141 sec
 * total energy  :  -104.9548159 Eh     change       -0.4295289E-04 Eh
   gradient norm :     0.0040098 Eh/α   predicted    -0.5971387E-04 (  39.02%)
   displ. norm   :     0.3631098 α      lambda       -0.1075139E-03
   maximum displ.:     0.1746288 α      in ANC's #2, #5, #1, ...

........................................................................
.............................. CYCLE   35 ..............................
........................................................................
   1   -106.6109369 -0.106611E+03  0.710E-02    3.30       0.0  T
   2   -106.6109390 -0.207097E-05  0.417E-02    3.31       1.0  T
   3   -106.6109300  0.903754E-05  0.115E-02    3.30       1.1  T
   4   -106.6109405 -0.105373E-04  0.967E-04    3.31      12.7  T
   5   -106.6109405 -0.221318E-07  0.528E-04    3.31      23.3  T
   6   -106.6109405 -0.273766E-08  0.215E-04    3.31      57.3  T
     SCC iter.                  ...        0 min,  0.088 sec
     gradient                   ...        0 min,  0.155 sec
 * total energy  :  -104.9548893 Eh     change       -0.7342537E-04 Eh
   gradient norm :     0.0029390 Eh/α   predicted    -0.6084817E-04 ( -17.13%)
   displ. norm   :     0.1605170 α      lambda       -0.5599518E-04
   maximum displ.:     0.0869578 α      in ANC's #5, #2, #1, ...

........................................................................
.............................. CYCLE   36 ..............................
........................................................................
   1   -106.6095904 -0.106610E+03  0.270E-02    3.30       0.0  T
   2   -106.6095908 -0.409950E-06  0.159E-02    3.31       1.0  T
   3   -106.6095892  0.161613E-05  0.479E-03    3.31       2.6  T
   4   -106.6095911 -0.189694E-05  0.443E-04    3.31      27.8  T
   5   -106.6095911 -0.576580E-08  0.237E-04    3.31      52.0  T
   6   -106.6095911 -0.428713E-09  0.973E-05    3.31     126.5  T
     SCC iter.                  ...        0 min,  0.093 sec
     gradient                   ...        0 min,  0.128 sec
 * total energy  :  -104.9549387 Eh     change       -0.4945035E-04 Eh
   gradient norm :     0.0028460 Eh/α   predicted    -0.2872558E-04 ( -41.91%)
   displ. norm   :     0.3605229 α      lambda       -0.1448930E-03
   maximum displ.:     0.1956988 α      in ANC's #5, #2, #1, ...

........................................................................
.............................. CYCLE   37 ..............................
........................................................................
   1   -106.6089682 -0.106609E+03  0.590E-02    3.30       0.0  T
   2   -106.6089699 -0.170590E-05  0.347E-02    3.31       1.0  T
   3   -106.6089633  0.657706E-05  0.945E-03    3.31       1.3  T
   4   -106.6089710 -0.770357E-05  0.969E-04    3.31      12.7  T
   5   -106.6089710 -0.237026E-07  0.533E-04    3.31      23.1  T
   6   -106.6089710 -0.226586E-08  0.203E-04    3.31      60.7  T
     SCC iter.                  ...        0 min,  0.089 sec
     gradient                   ...        0 min,  0.132 sec
 * total energy  :  -104.9550479 Eh     change       -0.1091579E-03 Eh
   gradient norm :     0.0026394 Eh/α   predicted    -0.8186403E-04 ( -25.00%)
   displ. norm   :     0.3984866 α      lambda       -0.1009720E-03
   maximum displ.:     0.2157284 α      in ANC's #5, #2, #1, ...

........................................................................
.............................. CYCLE   38 ..............................
........................................................................
   1   -106.6088994 -0.106609E+03  0.662E-02    3.30       0.0  T
   2   -106.6089009 -0.151783E-05  0.389E-02    3.31       1.0  T
   3   -106.6088941  0.677298E-05  0.951E-03    3.31       1.3  T
   4   -106.6089020 -0.789274E-05  0.899E-04    3.31      13.7  T
   5   -106.6089020 -0.104644E-07  0.512E-04    3.31      24.0  T
   6   -106.6089020 -0.357760E-08  0.191E-04    3.31      64.4  T
     SCC iter.                  ...        0 min,  0.090 sec
     gradient                   ...        0 min,  0.136 sec
 * total energy  :  -104.9551244 Eh     change       -0.7645674E-04 Eh
   gradient norm :     0.0031079 Eh/α   predicted    -0.5850311E-04 ( -23.48%)
   displ. norm   :     0.3812657 α      lambda       -0.8323866E-04
   maximum displ.:     0.2009042 α      in ANC's #5, #1, #2, ...

........................................................................
.............................. CYCLE   39 ..............................
........................................................................
   1   -106.6096510 -0.106610E+03  0.658E-02    3.31       0.0  T
   2   -106.6096522 -0.127672E-05  0.386E-02    3.31       1.0  T
   3   -106.6096476  0.462930E-05  0.794E-03    3.31       1.6  T
   4   -106.6096530 -0.542813E-05  0.890E-04    3.31      13.8  T
   5   -106.6096530 -0.169232E-07  0.491E-04    3.31      25.1  T
   6   -106.6096530 -0.216224E-08  0.193E-04    3.31      63.6  T
     SCC iter.                  ...        0 min,  0.090 sec
     gradient                   ...        0 min,  0.122 sec
 * total energy  :  -104.9551910 Eh     change       -0.6662465E-04 Eh
   gradient norm :     0.0029849 Eh/α   predicted    -0.4767171E-04 ( -28.45%)
   displ. norm   :     0.3915485 α      lambda       -0.9156616E-04
   maximum displ.:     0.1930144 α      in ANC's #5, #1, #2, ...

........................................................................
.............................. CYCLE   40 ..............................
........................................................................
   1   -106.6110967 -0.106611E+03  0.719E-02    3.31       0.0  T
   2   -106.6110985 -0.179788E-05  0.421E-02    3.30       1.0  T
   3   -106.6110948  0.371482E-05  0.739E-03    3.31       1.7  T
   4   -106.6110992 -0.442118E-05  0.117E-03    3.30      10.5  T
   5   -106.6110993 -0.616018E-07  0.558E-04    3.30      22.1  T
   6   -106.6110993 -0.214327E-08  0.243E-04    3.30      50.7  T
     SCC iter.                  ...        0 min,  0.089 sec
     gradient                   ...        0 min,  0.122 sec
 * total energy  :  -104.9552610 Eh     change       -0.7001173E-04 Eh
   gradient norm :     0.0023818 Eh/α   predicted    -0.5280557E-04 ( -24.58%)
   displ. norm   :     0.3576239 α      lambda       -0.7214848E-04
   maximum displ.:     0.1718552 α      in ANC's #1, #2, #5, ...

........................................................................
.............................. CYCLE   41 ..............................
........................................................................
   1   -106.6117004 -0.106612E+03  0.694E-02    3.31       0.0  T
   2   -106.6117019 -0.150411E-05  0.406E-02    3.30       1.0  T
   3   -106.6116991  0.284086E-05  0.656E-03    3.30       1.9  T
   4   -106.6117025 -0.341291E-05  0.111E-03    3.30      11.0  T
   5   -106.6117025 -0.532702E-07  0.535E-04    3.30      23.0  T
   6   -106.6117025 -0.173888E-08  0.226E-04    3.30      54.4  T
     SCC iter.                  ...        0 min,  0.090 sec
     gradient                   ...        0 min,  0.147 sec
 * total energy  :  -104.9553121 Eh     change       -0.5110684E-04 Eh
   gradient norm :     0.0022824 Eh/α   predicted    -0.4069446E-04 ( -20.37%)
   displ. norm   :     0.2255485 α      lambda       -0.4146439E-04
   maximum displ.:     0.1101122 α      in ANC's #1, #2, #5, ...

........................................................................
.............................. CYCLE   42 ..............................
........................................................................
   1   -106.6122037 -0.106612E+03  0.461E-02    3.30       0.0  T
   2   -106.6122044 -0.664682E-06  0.270E-02    3.30       1.0  T
   3   -106.6122032  0.117177E-05  0.424E-03    3.30       2.9  T
   4   -106.6122046 -0.141836E-05  0.775E-04    3.30      15.9  T
   5   -106.6122046 -0.261373E-07  0.382E-04    3.30      32.2  T
   6   -106.6122046 -0.121763E-08  0.159E-04    3.30      77.4  T
     SCC iter.                  ...        0 min,  0.090 sec
     gradient                   ...        0 min,  0.141 sec
 * total energy  :  -104.9553405 Eh     change       -0.2845118E-04 Eh
   gradient norm :     0.0020747 Eh/α   predicted    -0.2179169E-04 ( -23.41%)
   displ. norm   :     0.1721064 α      lambda       -0.3214357E-04
   maximum displ.:     0.0874988 α      in ANC's #1, #2, #4, ...
 * RMSD in coord.:     0.7820663 α      energy gain  -0.1820020E-02 Eh

generating ANC from model Hessian ...
Using Lindh-Hessian (1995)
 Shifting diagonal of input Hessian by    9.8336069907235674E-003
 Lowest  eigenvalues of input Hessian
    0.000000    0.000000    0.000000    0.000000    0.000000    0.000000
    0.010000    0.010085    0.010209    0.010432    0.010475    0.010629
    0.010728    0.010874    0.011069    0.011437    0.011604    0.012070
 Highest eigenvalues
    2.031800    2.033420    2.044607    2.326120    2.347485    2.394218


........................................................................
.............................. CYCLE   43 ..............................
........................................................................
   1   -106.6119974 -0.106612E+03  0.361E-02    3.30       0.0  T
   2   -106.6119977 -0.253924E-06  0.211E-02    3.30       1.0  T
   3   -106.6119972  0.497749E-06  0.278E-03    3.30       4.4  T
   4   -106.6119978 -0.622222E-06  0.507E-04    3.30      24.3  T
   5   -106.6119978 -0.495362E-08  0.279E-04    3.30      44.1  T
     SCC iter.                  ...        0 min,  0.080 sec
     gradient                   ...        0 min,  0.147 sec
 * total energy  :  -104.9553647 Eh     change       -0.2410931E-04 Eh
   gradient norm :     0.0018365 Eh/α   predicted     0.0000000E+00 (-100.00%)
   displ. norm   :     0.0465461 α      lambda       -0.1685155E-04
   maximum displ.:     0.0200427 α      in ANC's #11, #2, #14, ...

........................................................................
.............................. CYCLE   44 ..............................
........................................................................
   1   -106.6114843 -0.106611E+03  0.955E-03    3.29       0.0  T
   2   -106.6114844 -0.591650E-07  0.564E-03    3.29       2.2  T
   3   -106.6114843  0.631668E-07  0.112E-03    3.30      11.0  T
   4   -106.6114844 -0.799319E-07  0.213E-04    3.30      57.7  T
   5   -106.6114844 -0.145411E-08  0.116E-04    3.30     106.4  T
     SCC iter.                  ...        0 min,  0.077 sec
     gradient                   ...        0 min,  0.141 sec
 * total energy  :  -104.9553847 Eh     change       -0.2008627E-04 Eh
   gradient norm :     0.0007519 Eh/α   predicted    -0.8438589E-05 ( -57.99%)
   displ. norm   :     0.1449802 α      lambda       -0.3344568E-04
   maximum displ.:     0.0649365 α      in ANC's #11, #2, #14, ...

........................................................................
.............................. CYCLE   45 ..............................
........................................................................
   1   -106.6107583 -0.106611E+03  0.258E-02    3.29       0.0  T
   2   -106.6107586 -0.291938E-06  0.151E-02    3.29       1.0  T
   3   -106.6107583  0.318133E-06  0.250E-03    3.29       4.9  T
   4   -106.6107587 -0.410063E-06  0.535E-04    3.29      23.0  T
   5   -106.6107587 -0.992357E-08  0.291E-04    3.29      42.3  T
     SCC iter.                  ...        0 min,  0.075 sec
     gradient                   ...        0 min,  0.123 sec
 * total energy  :  -104.9554187 Eh     change       -0.3399347E-04 Eh
   gradient norm :     0.0017294 Eh/α   predicted    -0.1690738E-04 ( -50.26%)
   displ. norm   :     0.1465971 α      lambda       -0.2161863E-04
   maximum displ.:     0.0661778 α      in ANC's #11, #2, #5, ...

........................................................................
.............................. CYCLE   46 ..............................
........................................................................
   1   -106.6106214 -0.106611E+03  0.250E-02    3.29       0.0  T
   2   -106.6106216 -0.164225E-06  0.147E-02    3.30       1.0  T
   3   -106.6106213  0.277787E-06  0.215E-03    3.30       5.7  T
   4   -106.6106217 -0.352828E-06  0.422E-04    3.30      29.1  T
   5   -106.6106217 -0.335022E-08  0.242E-04    3.30      50.8  T
     SCC iter.                  ...        0 min,  0.076 sec
     gradient                   ...        0 min,  0.132 sec
 * total energy  :  -104.9554431 Eh     change       -0.2432041E-04 Eh
   gradient norm :     0.0019398 Eh/α   predicted    -0.1091267E-04 ( -55.13%)
   displ. norm   :     0.2106809 α      lambda       -0.2798746E-04
   maximum displ.:     0.0941004 α      in ANC's #2, #11, #5, ...

........................................................................
.............................. CYCLE   47 ..............................
........................................................................
   1   -106.6105757 -0.106611E+03  0.361E-02    3.30       0.0  T
   2   -106.6105761 -0.381082E-06  0.212E-02    3.30       1.0  T
   3   -106.6105750  0.103044E-05  0.390E-03    3.30       3.2  T
   4   -106.6105763 -0.123625E-05  0.553E-04    3.30      22.3  T
   5   -106.6105763 -0.542173E-08  0.323E-04    3.30      38.1  T
   6   -106.6105763 -0.100711E-08  0.123E-04    3.30      99.8  T
     SCC iter.                  ...        0 min,  0.094 sec
     gradient                   ...        0 min,  0.138 sec
 * total energy  :  -104.9554748 Eh     change       -0.3172694E-04 Eh
   gradient norm :     0.0016983 Eh/α   predicted    -0.1427144E-04 ( -55.02%)
   displ. norm   :     0.2461166 α      lambda       -0.2946769E-04
   maximum displ.:     0.1145901 α      in ANC's #2, #11, #1, ...

........................................................................
.............................. CYCLE   48 ..............................
........................................................................
   1   -106.6110133 -0.106611E+03  0.408E-02    3.30       0.0  T
   2   -106.6110137 -0.445795E-06  0.240E-02    3.30       1.0  T
   3   -106.6110123  0.138805E-05  0.453E-03    3.30       2.7  T
   4   -106.6110140 -0.165721E-05  0.622E-04    3.30      19.8  T
   5   -106.6110140 -0.463496E-08  0.363E-04    3.30      33.9  T
   6   -106.6110140 -0.150371E-08  0.143E-04    3.30      86.3  T
     SCC iter.                  ...        0 min,  0.089 sec
     gradient                   ...        0 min,  0.126 sec
 * total energy  :  -104.9555048 Eh     change       -0.3004633E-04 Eh
   gradient norm :     0.0011982 Eh/α   predicted    -0.1514178E-04 ( -49.61%)
   displ. norm   :     0.1571392 α      lambda       -0.1580084E-04
   maximum displ.:     0.0785857 α      in ANC's #2, #1, #5, ...

........................................................................
.............................. CYCLE   49 ..............................
........................................................................
   1   -106.6116667 -0.106612E+03  0.246E-02    3.31       0.0  T
   2   -106.6116670 -0.272260E-06  0.144E-02    3.30       1.0  T
   3   -106.6116662  0.773685E-06  0.342E-03    3.30       3.6  T
   4   -106.6116671 -0.919450E-06  0.491E-04    3.30      25.1  T
   5   -106.6116671 -0.603826E-08  0.274E-04    3.30      44.9  T
     SCC iter.                  ...        0 min,  0.076 sec
     gradient                   ...        0 min,  0.119 sec
 * total energy  :  -104.9555205 Eh     change       -0.1570059E-04 Eh
   gradient norm :     0.0008047 Eh/α   predicted    -0.7990257E-05 ( -49.11%)
   displ. norm   :     0.0990701 α      lambda       -0.9346068E-05
   maximum displ.:     0.0529923 α      in ANC's #2, #1, #5, ...

........................................................................
.............................. CYCLE   50 ..............................
........................................................................
   1   -106.6120222 -0.106612E+03  0.152E-02    3.31       0.0  T
   2   -106.6120224 -0.126670E-06  0.897E-03    3.30       1.4  T
   3   -106.6120221  0.248624E-06  0.199E-03    3.31       6.2  T
   4   -106.6120224 -0.296629E-06  0.359E-04    3.30      34.3  T
   5   -106.6120224 -0.539360E-08  0.178E-04    3.30      69.3  T
     SCC iter.                  ...        0 min,  0.075 sec
     gradient                   ...        0 min,  0.145 sec
 * total energy  :  -104.9555309 Eh     change       -0.1039455E-04 Eh
   gradient norm :     0.0006299 Eh/α   predicted    -0.4693786E-05 ( -54.84%)
   displ. norm   :     0.1111441 α      lambda       -0.1006477E-04
   maximum displ.:     0.0607838 α      in ANC's #1, #2, #12, ...

........................................................................
.............................. CYCLE   51 ..............................
........................................................................
   1   -106.6121000 -0.106612E+03  0.184E-02    3.31       0.0  T
   2   -106.6121000 -0.883389E-07  0.108E-02    3.31       1.1  T
   3   -106.6120997  0.299653E-06  0.203E-03    3.31       6.1  T
   4   -106.6121001 -0.355319E-06  0.301E-04    3.31      40.9  T
   5   -106.6121001 -0.131128E-08  0.175E-04    3.31      70.5  T
     SCC iter.                  ...        0 min,  0.080 sec
     gradient                   ...        0 min,  0.126 sec
 * total energy  :  -104.9555436 Eh     change       -0.1265088E-04 Eh
   gradient norm :     0.0008220 Eh/α   predicted    -0.5064090E-05 ( -59.97%)
   displ. norm   :     0.1665591 α      lambda       -0.1552982E-04
   maximum displ.:     0.0907568 α      in ANC's #1, #2, #10, ...

........................................................................
.............................. CYCLE   52 ..............................
........................................................................
   1   -106.6118344 -0.106612E+03  0.305E-02    3.31       0.0  T
   2   -106.6118345 -0.180410E-06  0.179E-02    3.31       1.0  T
   3   -106.6118339  0.650728E-06  0.292E-03    3.31       4.2  T
   4   -106.6118347 -0.769556E-06  0.390E-04    3.31      31.5  T
   5   -106.6118347 -0.126279E-08  0.218E-04    3.31      56.6  T
     SCC iter.                  ...        0 min,  0.096 sec
     gradient                   ...        0 min,  0.166 sec
 * total energy  :  -104.9555625 Eh     change       -0.1893391E-04 Eh
   gradient norm :     0.0009828 Eh/α   predicted    -0.7861311E-05 ( -58.48%)
   displ. norm   :     0.2412300 α      lambda       -0.2051690E-04
   maximum displ.:     0.1326088 α      in ANC's #1, #2, #10, ...

........................................................................
.............................. CYCLE   53 ..............................
........................................................................
   1   -106.6113249 -0.106611E+03  0.448E-02    3.31       0.0  T
   2   -106.6113254 -0.467528E-06  0.263E-02    3.31       1.0  T
   3   -106.6113236  0.180515E-05  0.485E-03    3.31       2.5  T
   4   -106.6113257 -0.211166E-05  0.555E-04    3.31      22.2  T
   5   -106.6113257 -0.418366E-08  0.309E-04    3.31      39.8  T
   6   -106.6113257 -0.752863E-09  0.104E-04    3.31     118.3  T
     SCC iter.                  ...        0 min,  0.093 sec
     gradient                   ...        0 min,  0.166 sec
 * total energy  :  -104.9555861 Eh     change       -0.2359453E-04 Eh
   gradient norm :     0.0011945 Eh/α   predicted    -0.1052744E-04 ( -55.38%)
   displ. norm   :     0.2418850 α      lambda       -0.1904719E-04
   maximum displ.:     0.1365652 α      in ANC's #1, #2, #10, ...

........................................................................
.............................. CYCLE   54 ..............................
........................................................................
   1   -106.6110653 -0.106611E+03  0.438E-02    3.31       0.0  T
   2   -106.6110658 -0.444419E-06  0.257E-02    3.31       1.0  T
   3   -106.6110641  0.163586E-05  0.467E-03    3.31       2.6  T
   4   -106.6110660 -0.192117E-05  0.553E-04    3.31      22.3  T
   5   -106.6110660 -0.333442E-08  0.304E-04    3.31      40.4  T
   6   -106.6110661 -0.919229E-09  0.101E-04    3.31     121.4  T
     SCC iter.                  ...        0 min,  0.090 sec
     gradient                   ...        0 min,  0.152 sec
 * total energy  :  -104.9556071 Eh     change       -0.2098811E-04 Eh
   gradient norm :     0.0009678 Eh/α   predicted    -0.9776303E-05 ( -53.42%)
   displ. norm   :     0.2341422 α      lambda       -0.1559989E-04
   maximum displ.:     0.1372455 α      in ANC's #1, #2, #10, ...

........................................................................
.............................. CYCLE   55 ..............................
........................................................................
   1   -106.6109170 -0.106611E+03  0.378E-02    3.31       0.0  T
   2   -106.6109175 -0.480398E-06  0.222E-02    3.31       1.0  T
   3   -106.6109160  0.149333E-05  0.455E-03    3.31       2.7  T
   4   -106.6109177 -0.175317E-05  0.564E-04    3.31      21.8  T
   5   -106.6109177 -0.715680E-08  0.298E-04    3.31      41.3  T
   6   -106.6109177 -0.443578E-09  0.120E-04    3.31     102.3  T
     SCC iter.                  ...        0 min,  0.088 sec
     gradient                   ...        0 min,  0.130 sec
 * total energy  :  -104.9556250 Eh     change       -0.1786115E-04 Eh
   gradient norm :     0.0009376 Eh/α   predicted    -0.7993145E-05 ( -55.25%)
   displ. norm   :     0.1895746 α      lambda       -0.1378802E-04
   maximum displ.:     0.1146652 α      in ANC's #1, #2, #10, ...

........................................................................
.............................. CYCLE   56 ..............................
........................................................................
   1   -106.6114419 -0.106611E+03  0.269E-02    3.31       0.0  T
   2   -106.6114422 -0.291269E-06  0.158E-02    3.31       1.0  T
   3   -106.6114416  0.610824E-06  0.304E-03    3.31       4.0  T
   4   -106.6114423 -0.734962E-06  0.497E-04    3.31      24.8  T
   5   -106.6114423 -0.601985E-08  0.259E-04    3.31      47.6  T
     SCC iter.                  ...        0 min,  0.075 sec
     gradient                   ...        0 min,  0.132 sec
 * total energy  :  -104.9556396 Eh     change       -0.1459954E-04 Eh
   gradient norm :     0.0006176 Eh/α   predicted    -0.7007421E-05 ( -52.00%)
   displ. norm   :     0.2484225 α      lambda       -0.1283053E-04
   maximum displ.:     0.1476660 α      in ANC's #1, #2, #9, ...

........................................................................
.............................. CYCLE   57 ..............................
........................................................................
   1   -106.6104793 -0.106610E+03  0.320E-02    3.30       0.0  T
   2   -106.6104797 -0.376528E-06  0.188E-02    3.31       1.0  T
   3   -106.6104791  0.567572E-06  0.306E-03    3.31       4.0  T
   4   -106.6104798 -0.698809E-06  0.629E-04    3.31      19.6  T
   5   -106.6104798 -0.111211E-07  0.319E-04    3.31      38.6  T
     SCC iter.                  ...        0 min,  0.075 sec
     gradient                   ...        0 min,  0.142 sec
 * total energy  :  -104.9556484 Eh     change       -0.8831175E-05 Eh
   gradient norm :     0.0019991 Eh/α   predicted    -0.6591637E-05 ( -25.36%)
   displ. norm   :     0.1024034 α      lambda       -0.1243859E-04
   maximum displ.:     0.0625967 α      in ANC's #1, #2, #12, ...

........................................................................
.............................. CYCLE   58 ..............................
........................................................................
   1   -106.6113709 -0.106611E+03  0.152E-02    3.30       0.0  T
   2   -106.6113711 -0.168292E-06  0.885E-03    3.31       1.4  T
   3   -106.6113710  0.813527E-07  0.141E-03    3.31       8.7  T
   4   -106.6113711 -0.109583E-06  0.436E-04    3.31      28.2  T
   5   -106.6113711 -0.831088E-08  0.200E-04    3.31      61.6  T
     SCC iter.                  ...        0 min,  0.074 sec
     gradient                   ...        0 min,  0.149 sec
 * total energy  :  -104.9556599 Eh     change       -0.1151921E-04 Eh
   gradient norm :     0.0006942 Eh/α   predicted    -0.6252207E-05 ( -45.72%)
   displ. norm   :     0.1087646 α      lambda       -0.6568074E-05
   maximum displ.:     0.0682424 α      in ANC's #1, #2, #6, ...

........................................................................
.............................. CYCLE   59 ..............................
........................................................................
   1   -106.6116894 -0.106612E+03  0.149E-02    3.31       0.0  T
   2   -106.6116895 -0.588321E-07  0.875E-03    3.31       1.4  T
   3   -106.6116893  0.161535E-06  0.156E-03    3.31       7.9  T
   4   -106.6116895 -0.194327E-06  0.264E-04    3.31      46.6  T
   5   -106.6116895 -0.127520E-08  0.152E-04    3.31      81.1  T
     SCC iter.                  ...        0 min,  0.076 sec
     gradient                   ...        0 min,  0.123 sec
 * total energy  :  -104.9556675 Eh     change       -0.7558089E-05 Eh
   gradient norm :     0.0004808 Eh/α   predicted    -0.3303691E-05 ( -56.29%)
   displ. norm   :     0.1658742 α      lambda       -0.8283643E-05
   maximum displ.:     0.1048050 α      in ANC's #1, #2, #6, ...

........................................................................
.............................. CYCLE   60 ..............................
........................................................................
   1   -106.6116246 -0.106612E+03  0.218E-02    3.31       0.0  T
   2   -106.6116248 -0.118719E-06  0.128E-02    3.31       1.0  T
   3   -106.6116244  0.343770E-06  0.226E-03    3.31       5.4  T
   4   -106.6116248 -0.414401E-06  0.375E-04    3.31      32.8  T
   5   -106.6116248 -0.182821E-08  0.218E-04    3.31      56.4  T
     SCC iter.                  ...        0 min,  0.079 sec
     gradient                   ...        0 min,  0.116 sec
 * total energy  :  -104.9556768 Eh     change       -0.9325741E-05 Eh
   gradient norm :     0.0004075 Eh/α   predicted    -0.4194848E-05 ( -55.02%)
   displ. norm   :     0.1629118 α      lambda       -0.6311509E-05
   maximum displ.:     0.1039680 α      in ANC's #1, #2, #22, ...

........................................................................
.............................. CYCLE   61 ..............................
........................................................................
   1   -106.6115639 -0.106612E+03  0.204E-02    3.31       0.0  T
   2   -106.6115640 -0.102993E-06  0.120E-02    3.31       1.0  T
   3   -106.6115636  0.330158E-06  0.220E-03    3.31       5.6  T
   4   -106.6115640 -0.395914E-06  0.335E-04    3.31      36.7  T
   5   -106.6115640 -0.103951E-08  0.197E-04    3.31      62.3  T
     SCC iter.                  ...        0 min,  0.076 sec
     gradient                   ...        0 min,  0.113 sec
 * total energy  :  -104.9556849 Eh     change       -0.8157158E-05 Eh
   gradient norm :     0.0006766 Eh/α   predicted    -0.3197956E-05 ( -60.80%)
   displ. norm   :     0.1726481 α      lambda       -0.8142486E-05
   maximum displ.:     0.1096379 α      in ANC's #1, #2, #5, ...

........................................................................
.............................. CYCLE   62 ..............................
........................................................................
   1   -106.6116199 -0.106612E+03  0.205E-02    3.31       0.0  T
   2   -106.6116201 -0.105809E-06  0.120E-02    3.31       1.0  T
   3   -106.6116197  0.306691E-06  0.217E-03    3.31       5.7  T
   4   -106.6116201 -0.371908E-06  0.334E-04    3.31      36.9  T
   5   -106.6116201 -0.784908E-09  0.196E-04    3.31      62.9  T
     SCC iter.                  ...        0 min,  0.084 sec
     gradient                   ...        0 min,  0.051 sec
 * total energy  :  -104.9556952 Eh     change       -0.1021695E-04 Eh
   gradient norm :     0.0007739 Eh/α   predicted    -0.4127946E-05 ( -59.60%)
   displ. norm   :     0.3200006 α      lambda       -0.1484595E-04
   maximum displ.:     0.2019276 α      in ANC's #1, #2, #5, ...

........................................................................
.............................. CYCLE   63 ..............................
........................................................................
   1   -106.6112911 -0.106611E+03  0.368E-02    3.31       0.0  T
   2   -106.6112915 -0.365529E-06  0.216E-02    3.31       1.0  T
   3   -106.6112904  0.105280E-05  0.402E-03    3.31       3.1  T
   4   -106.6112917 -0.127380E-05  0.599E-04    3.31      20.5  T
   5   -106.6112917 -0.331924E-08  0.348E-04    3.31      35.3  T
   6   -106.6112917 -0.220651E-08  0.113E-04    3.31     109.0  T
     SCC iter.                  ...        0 min,  0.091 sec
     gradient                   ...        0 min,  0.137 sec
 * total energy  :  -104.9557129 Eh     change       -0.1775042E-04 Eh
   gradient norm :     0.0009340 Eh/α   predicted    -0.7762974E-05 ( -56.27%)
   displ. norm   :     0.3822283 α      lambda       -0.1582658E-04
   maximum displ.:     0.2379390 α      in ANC's #1, #2, #5, ...

........................................................................
.............................. CYCLE   64 ..............................
........................................................................
   1   -106.6112975 -0.106611E+03  0.443E-02    3.31       0.0  T
   2   -106.6112982 -0.622577E-06  0.260E-02    3.31       1.0  T
   3   -106.6112966  0.158194E-05  0.502E-03    3.31       2.5  T
   4   -106.6112985 -0.191698E-05  0.743E-04    3.31      16.6  T
   5   -106.6112985 -0.935025E-08  0.430E-04    3.31      28.6  T
   6   -106.6112985 -0.212920E-08  0.151E-04    3.31      81.5  T
     SCC iter.                  ...        0 min,  0.089 sec
     gradient                   ...        0 min,  0.144 sec
 * total energy  :  -104.9557295 Eh     change       -0.1659225E-04 Eh
   gradient norm :     0.0008406 Eh/α   predicted    -0.8429223E-05 ( -49.20%)
   displ. norm   :     0.3830627 α      lambda       -0.1994274E-05
   maximum displ.:     0.2392797 α      in ANC's #1, #2, #5, ...

........................................................................
.............................. CYCLE   65 ..............................
........................................................................
   1   -106.6102644 -0.106610E+03  0.444E-02    3.30       0.0  T
   2   -106.6102651 -0.657594E-06  0.261E-02    3.30       1.0  T
   3   -106.6102634  0.168042E-05  0.511E-03    3.30       2.4  T
   4   -106.6102654 -0.203090E-05  0.760E-04    3.30      16.2  T
   5   -106.6102654 -0.107588E-07  0.436E-04    3.30      28.2  T
   6   -106.6102654 -0.201888E-08  0.156E-04    3.30      79.0  T
     SCC iter.                  ...        0 min,  0.093 sec
     gradient                   ...        0 min,  0.036 sec
 * total energy  :  -104.9557306 Eh     change       -0.1106585E-05 Eh
   gradient norm :     0.0017955 Eh/α   predicted    -0.1066153E-05 (  -3.65%)
   displ. norm   :     0.0596810 α      lambda       -0.1082702E-04
   maximum displ.:     0.0338778 α      in ANC's #2, #1, #12, ...

........................................................................
.............................. CYCLE   66 ..............................
........................................................................
   1   -106.6122863 -0.106612E+03  0.104E-02    3.30       0.0  T
   2   -106.6122864 -0.134918E-06  0.606E-03    3.30       2.0  T
   3   -106.6122864  0.722699E-07  0.135E-03    3.30       9.1  T
   4   -106.6122865 -0.902950E-07  0.398E-04    3.30      30.9  T
   5   -106.6122865 -0.743212E-08  0.149E-04    3.30      82.6  T
     SCC iter.                  ...        0 min,  0.075 sec
     gradient                   ...        0 min,  0.147 sec
 * total energy  :  -104.9557385 Eh     change       -0.7893282E-05 Eh
   gradient norm :     0.0009372 Eh/α   predicted    -0.5422923E-05 ( -31.30%)
   displ. norm   :     0.0576725 α      lambda       -0.6677916E-05
   maximum displ.:     0.0300780 α      in ANC's #1, #2, #12, ...
 * RMSD in coord.:     0.4514150 α      energy gain  -0.3979568E-03 Eh

generating ANC from model Hessian ...
Using Lindh-Hessian (1995)
 Shifting diagonal of input Hessian by    9.8369049887342790E-003
 Lowest  eigenvalues of input Hessian
    0.000000    0.000000    0.000000    0.000000    0.000000    0.000000
[...]
         :: SCC energy              -106.611726972269 Eh    ::
         :: -> isotropic ES            0.120025774667 Eh    ::
         :: -> anisotropic ES          0.007032090700 Eh    ::
         :: -> anisotropic XC          0.045920981378 Eh    ::
         :: -> dispersion             -0.091197311447 Eh    ::
         :: repulsion energy           1.652623294308 Eh    ::
         :: add. restraining           0.000000000000 Eh    ::
         :: total charge              -0.000000000000 e     ::
         :::::::::::::::::::::::::::::::::::::::::::::::::::::

           -------------------------------------------------
          |                Property Printout                |
           -------------------------------------------------

    * Orbital Energies and Occupations

         #    Occupation            Energy/Eh            Energy/eV
      -------------------------------------------------------------
         1        2.0000           -0.7766078             -21.1326
       ...           ...                  ...                  ...
        83        2.0000           -0.4237829             -11.5317
        84        2.0000           -0.4180871             -11.3767
        85        2.0000           -0.4158274             -11.3152
        86        2.0000           -0.4152083             -11.2984
        87        2.0000           -0.4134031             -11.2493
        88        2.0000           -0.4083776             -11.1125
        89        2.0000           -0.4067824             -11.0691
        90        2.0000           -0.4055199             -11.0348
        91        2.0000           -0.4046794             -11.0119
        92        2.0000           -0.4021827             -10.9439
        93        2.0000           -0.3990392             -10.8584
        94        2.0000           -0.3936008             -10.7104
        95        2.0000           -0.3899956             -10.6123 (HOMO)
        96                         -0.2685699              -7.3082 (LUMO)
        97                         -0.2550885              -6.9413
        98                         -0.2432342              -6.6187
        99                         -0.2342062              -6.3731
       100                         -0.2339048              -6.3649
       101                         -0.2312847              -6.2936
       102                         -0.2310255              -6.2865
       103                         -0.2246240              -6.1123
       104                         -0.2227616              -6.0617
       105                         -0.2066964              -5.6245
       106                         -0.2019558              -5.4955
       ...                                ...                  ...
       180                          0.6662607              18.1299
      -------------------------------------------------------------
                  HL-Gap            0.1214257 Eh            3.3042 eV
             Fermi-level           -0.3292827 Eh           -8.9602 eV

     #   Z          covCN         q      C6AA      α(0)
     1   6 C        2.923    -0.034    28.839     8.807
     2   6 C        2.920    -0.028    28.711     8.787
     3   6 C        2.920    -0.031    28.783     8.798
     4   6 C        2.920    -0.028    28.690     8.784
     5   6 C        2.925    -0.037    28.920     8.819
     6   6 C        2.971     0.004    27.936     8.670
     7   6 C        3.842     0.036    19.944     6.353
     8   6 C        3.823     0.041    19.874     6.344
     9   6 C        2.974     0.011    27.768     8.644
    10   6 C        2.924    -0.028    28.693     8.784
    11   6 C        2.920    -0.025    28.631     8.775
    12   6 C        2.921    -0.028    28.697     8.785
    13   6 C        2.920    -0.026    28.644     8.777
    14   6 C        2.924    -0.027    28.670     8.781
    15   7 N        2.770    -0.117    23.555     7.208
    16   6 C        2.760     0.272    22.403     7.751
    17   6 C        2.977    -0.022    28.550     8.765
    18   6 C        2.923    -0.037    28.912     8.818
    19   6 C        2.918    -0.029    28.723     8.789
    20   6 C        2.925    -0.038    28.938     8.822
    21   6 C        2.966     0.023    27.495     8.601
    22   6 C        3.758    -0.112    22.691     6.791
    23   6 C        2.929    -0.036    28.889     8.815
    24   8 O        0.859    -0.416    22.011     6.290
    25   6 C        3.780     0.085    19.186     6.240
    26   6 C        2.688     0.353    21.006     7.501
    27   8 O        1.659    -0.352    19.939     6.028
    28   8 O        0.856    -0.393    21.546     6.223
    29   7 N        2.765    -0.121    23.631     7.220
    30   6 C        2.765     0.272    22.405     7.752
    31   6 C        2.974    -0.021    28.536     8.762
    32   6 C        2.926    -0.046    29.146     8.854
    33   6 C        2.966     0.023    27.499     8.601
    34   6 C        3.758    -0.114    22.728     6.797
    35   6 C        2.925    -0.036    28.905     8.817
    36   6 C        2.917    -0.029    28.721     8.788
    37   6 C        2.925    -0.026    28.658     8.779
    38   8 O        0.859    -0.414    21.956     6.282
    39   1 H        0.926     0.036     2.505     2.475
    40   1 H        0.926     0.037     2.488     2.467
    41   1 H        0.926     0.036     2.508     2.477
    42   1 H        0.926     0.037     2.487     2.466
    43   1 H        0.926     0.035     2.517     2.481
    44   1 H        0.923     0.086     1.922     2.168
    45   1 H        0.924     0.061     2.186     2.312
    46   1 H        0.926     0.035     2.516     2.480
    47   1 H        0.926     0.037     2.483     2.464
    48   1 H        0.926     0.036     2.504     2.475
    49   1 H        0.926     0.035     2.514     2.480
    50   1 H        0.925     0.023     2.688     2.564
    51   1 H        0.926     0.028     2.617     2.530
    52   1 H        0.926     0.037     2.490     2.467
    53   1 H        0.926     0.038     2.480     2.463
    54   1 H        0.925     0.050     2.317     2.381
    55   1 H        0.925     0.046     2.365     2.405
    56   1 H        0.925     0.053     2.287     2.365
    57   1 H        0.926     0.041     2.435     2.440
    58   1 H        0.924     0.077     2.008     2.216
    59   1 H        0.804     0.343     0.606     1.223
    60   1 H        0.926     0.051     2.312     2.378
    61   1 H        0.925     0.052     2.293     2.368
    62   1 H        0.925     0.054     2.266     2.354
    63   1 H        0.925     0.046     2.365     2.405
    64   1 H        0.926     0.037     2.486     2.466
    65   1 H        0.926     0.039     2.465     2.455
    66   1 H        0.926     0.046     2.372     2.409

 Mol. C6AA /au·bohr⁶  :      55499.151089
 Mol. C8AA /au·bohr⁸  :    1353205.774921
 Mol. α(0) /au        :        371.830610


Wiberg/Mayer (AO) data.
largest (>0.10) Wiberg bond orders for each atom

 ---------------------------------------------------------------------------
     #   Z sym  total        # sym  WBO       # sym  WBO       # sym  WBO
 ---------------------------------------------------------------------------
     1   6 C    3.991 --     2 C    1.437     6 C    1.419    39 H    0.966
                             4 C    0.110
     2   6 C    3.992 --     3 C    1.445     1 C    1.437    40 H    0.971
                             5 C    0.112
     3   6 C    3.992 --     2 C    1.445     4 C    1.433    41 H    0.971
                             6 C    0.109
     4   6 C    3.991 --     5 C    1.451     3 C    1.433    42 H    0.971
                             1 C    0.110
     5   6 C    3.991 --     4 C    1.451     6 C    1.404    43 H    0.968
                             2 C    0.112
     6   6 C    3.986 --     1 C    1.419     5 C    1.404     7 C    0.991
                             3 C    0.109
     7   6 C    3.961 --     6 C    0.991    29 N    0.967     8 C    0.948
                            44 H    0.939
     8   6 C    3.963 --     9 C    0.992    15 N    0.955    45 H    0.953
                             7 C    0.948
     9   6 C    3.986 --    10 C    1.416    14 C    1.409     8 C    0.992
                            12 C    0.110
    10   6 C    3.990 --    11 C    1.441     9 C    1.416    46 H    0.968
                            13 C    0.110
    11   6 C    3.992 --    12 C    1.442    10 C    1.441    47 H    0.971
                            14 C    0.112
    12   6 C    3.990 --    11 C    1.442    13 C    1.435    48 H    0.971
                             9 C    0.110
    13   6 C    3.992 --    14 C    1.449    12 C    1.435    49 H    0.971
                            10 C    0.110
    14   6 C    3.992 --    13 C    1.449     9 C    1.409    50 H    0.969
                            11 C    0.112
    15   7 N    3.464 --    16 C    1.204    25 C    0.988     8 C    0.955
                            24 O    0.191
    16   6 C    3.946 --    24 O    1.701    15 N    1.204    17 C    0.957
    17   6 C    3.987 --    23 C    1.425    18 C    1.390    16 C    0.957
                            20 C    0.106
    18   6 C    3.991 --    19 C    1.448    17 C    1.390    51 H    0.969
                            21 C    0.108
    19   6 C    3.992 --    18 C    1.448    20 C    1.435    52 H    0.970
                            23 C    0.108
    20   6 C    3.991 --    19 C    1.435    21 C    1.418    53 H    0.969
                            17 C    0.106
    21   6 C    3.988 --    20 C    1.418    23 C    1.402    22 C    1.027
                            18 C    0.108
    22   6 C    3.995 --    21 C    1.027    55 H    0.985    56 H    0.974
                            54 H    0.969
    23   6 C    3.990 --    17 C    1.425    21 C    1.402    57 H    0.968
                            19 C    0.108
    24   8 O    2.024 --    16 C    1.701    15 N    0.191
    25   6 C    3.972 --    15 N    0.988    29 N    0.986    58 H    0.928
                            26 C    0.910
    26   6 C    3.917 --    28 O    1.768    27 O    1.167    25 C    0.910
    27   8 O    2.233 --    26 C    1.167    59 H    0.856    28 O    0.183
    28   8 O    2.053 --    26 C    1.768    27 O    0.183
    29   7 N    3.441 --    30 C    1.166    25 C    0.986     7 C    0.967
                            38 O    0.178
    30   6 C    3.940 --    38 O    1.704    29 N    1.166    31 C    0.985
    31   6 C    3.988 --    37 C    1.395    32 C    1.395    30 C    0.985
                            35 C    0.105
    32   6 C    3.989 --    33 C    1.416    31 C    1.395    60 H    0.963
                            36 C    0.106
    33   6 C    3.988 --    32 C    1.416    35 C    1.405    34 C    1.027
                            37 C    0.106
    34   6 C    3.995 --    33 C    1.027    61 H    0.982    63 H    0.979
                            62 H    0.966
    35   6 C    3.991 --    36 C    1.445    33 C    1.405    64 H    0.970
                            31 C    0.105
    36   6 C    3.991 --    35 C    1.445    37 C    1.441    65 H    0.970
                            32 C    0.106
    37   6 C    3.990 --    36 C    1.441    31 C    1.395    66 H    0.969
                            33 C    0.106
    38   8 O    2.030 --    30 C    1.704    29 N    0.178
    39   1 H    0.999 --     1 C    0.966
    40   1 H    0.998 --     2 C    0.971
    41   1 H    0.998 --     3 C    0.971
    42   1 H    0.998 --     4 C    0.971
    43   1 H    0.999 --     5 C    0.968
    44   1 H    0.992 --     7 C    0.939
    45   1 H    0.996 --     8 C    0.953
    46   1 H    0.999 --    10 C    0.968
    47   1 H    0.998 --    11 C    0.971
    48   1 H    0.998 --    12 C    0.971
    49   1 H    0.998 --    13 C    0.971
    50   1 H    0.999 --    14 C    0.969
    51   1 H    0.999 --    18 C    0.969
    52   1 H    0.998 --    19 C    0.970
    53   1 H    0.998 --    20 C    0.969
    54   1 H    0.997 --    22 C    0.969
    55   1 H    0.997 --    22 C    0.985
    56   1 H    0.997 --    22 C    0.974
    57   1 H    0.998 --    23 C    0.968
    58   1 H    0.994 --    25 C    0.928
    59   1 H    0.882 --    27 O    0.856
    60   1 H    0.997 --    32 C    0.963
    61   1 H    0.997 --    34 C    0.982
    62   1 H    0.997 --    34 C    0.966
    63   1 H    0.997 --    34 C    0.979
    64   1 H    0.998 --    35 C    0.970
    65   1 H    0.998 --    36 C    0.970
    66   1 H    0.997 --    37 C    0.969
 ---------------------------------------------------------------------------

Topologies differ in total number of bonds
Writing topology from bond orders to xtbtopo.mol

molecular dipole:
                 x           y           z       tot (Debye)
 q only:        0.305       1.060       0.853
   full:        0.347       1.364       0.947       4.311
molecular quadrupole (traceless):
                xx          xy          yy          xz          yz          zz
 q only:      -14.601      -4.727      15.522      17.464      -6.206      -0.921
  q+dip:      -19.847      -3.171      16.878      27.114     -10.524       2.969
   full:      -15.783      -5.191      13.970      22.448      -7.446       1.813

           -------------------------------------------------
          |                Geometry Summary                 |
           -------------------------------------------------

      molecular mass/u    :      504.5769159
   center of mass at/Å    :        0.0441605      -0.2121881      -0.0093438
  moments of inertia/u·Å² :        0.4038640E+04   0.5530100E+04   0.6006374E+04
rotational constants/cm⁻¹ :        0.4174086E-02   0.3048342E-02   0.2806624E-02

 * 62 selected distances

     #   Z          #   Z                                           value/Å
     1   6 C        2   6 C                                       1.3848414
     2   6 C        3   6 C                                       1.3834367
     3   6 C        4   6 C                                       1.3851353
     4   6 C        5   6 C                                       1.3825512
     1   6 C        6   6 C                                       1.3876627
     5   6 C        6   6 C                                       1.3904656
     9   6 C       10   6 C                                       1.3865569
    10   6 C       11   6 C                                       1.3835231
    11   6 C       12   6 C                                       1.3838065
    12   6 C       13   6 C                                       1.3846923
     9   6 C       14   6 C                                       1.3894779
    13   6 C       14   6 C                                       1.3821842
     8   6 C       15   7 N                                       1.4588995 (max)
    15   7 N       16   6 C                                       1.3582927
    17   6 C       18   6 C                                       1.3920853
    18   6 C       19   6 C                                       1.3819822
    19   6 C       20   6 C                                       1.3850434
    20   6 C       21   6 C                                       1.3881245
    17   6 C       23   6 C                                       1.3851671
    21   6 C       23   6 C                                       1.3906251
    16   6 C       24   8 O                                       1.2111361
    15   7 N       25   6 C                                       1.4386053
    26   6 C       27   8 O                                       1.3258569
    26   6 C       28   8 O                                       1.2002557
     7   6 C       29   7 N                                       1.4560719
    25   6 C       29   7 N                                       1.4396196
    29   7 N       30   6 C                                       1.3740455
    31   6 C       32   6 C                                       1.3910749
    32   6 C       33   6 C                                       1.3880723
    33   6 C       35   6 C                                       1.3904476
    35   6 C       36   6 C                                       1.3837370
    31   6 C       37   6 C                                       1.3911959
    36   6 C       37   6 C                                       1.3827717
    30   6 C       38   8 O                                       1.2122938
     1   6 C       39   1 H                                       1.0796319
     2   6 C       40   1 H                                       1.0799812
     3   6 C       41   1 H                                       1.0797836
     4   6 C       42   1 H                                       1.0799177
     5   6 C       43   1 H                                       1.0801718
     7   6 C       44   1 H                                       1.0979277
     8   6 C       45   1 H                                       1.0959088
    10   6 C       46   1 H                                       1.0802798
    11   6 C       47   1 H                                       1.0799639
    12   6 C       48   1 H                                       1.0799062
    13   6 C       49   1 H                                       1.0800926
    14   6 C       50   1 H                                       1.0813507
    18   6 C       51   1 H                                       1.0809133
    19   6 C       52   1 H                                       1.0799198
    20   6 C       53   1 H                                       1.0804539
    22   6 C       54   1 H                                       1.0899615
    22   6 C       55   1 H                                       1.0868477
    22   6 C       56   1 H                                       1.0884324
    23   6 C       57   1 H                                       1.0805287
    25   6 C       58   1 H                                       1.0951648
    27   8 O       59   1 H                                       0.9712518 (min)
    32   6 C       60   1 H                                       1.0799583
    34   6 C       61   1 H                                       1.0869222
    34   6 C       62   1 H                                       1.0901895
    34   6 C       63   1 H                                       1.0879067
    35   6 C       64   1 H                                       1.0806873
    36   6 C       65   1 H                                       1.0799468
    37   6 C       66   1 H                                       1.0796794

 * 5 distinct bonds (by element types)

   Z      Z             #   av. dist./Å        max./Å        min./Å
   1 H    6 C          27     1.0837936     1.0979277     1.0796319
   6 C    6 C          24     1.3864442     1.3920853     1.3819822
   6 C    7 N           6     1.4209224     1.4588995     1.3582927
   1 H    8 O           1     0.9712518     0.9712518     0.9712518
   6 C    8 O           4     1.2373856     1.3258569     1.2002557


optimized geometry written to: xtbopt.xyz


           -------------------------------------------------
          | TOTAL ENERGY             -104.955748772922 Eh   |
          | GRADIENT NORM               0.000314950928 Eh/α |
          | HOMO-LUMO GAP               3.304162071480 eV   |
           -------------------------------------------------

------------------------------------------------------------------------
 * finished run on 2022/03/16 at 21:49:18.901     
------------------------------------------------------------------------
 total:
 * wall-time:     0 d,  0 h,  0 min, 25.220 sec
 *  cpu-time:     0 d,  0 h, 10 min, 21.391 sec
 * ratio c/w:    24.639 speedup
 SCF:
 * wall-time:     0 d,  0 h,  0 min,  0.435 sec
 *  cpu-time:     0 d,  0 h,  0 min,  8.621 sec
 * ratio c/w:    19.801 speedup
 ANC optimizer:
 * wall-time:     0 d,  0 h,  0 min, 24.634 sec
 *  cpu-time:     0 d,  0 h, 10 min,  8.721 sec
 * ratio c/w:    24.710 speedup

