66
 energy: -104.934423249926 gnorm: 0.088379928579 xtb: 6.3.3 (4ae9cef)
C         3.25362400000000   -1.70044800000000    1.00491100000000
C         4.33527900000000   -2.26184400000000    1.69067100000000
C         4.38356400000000   -3.63571900000000    1.92129700000000
C         3.34903400000000   -4.45180800000000    1.46928000000000
C         2.26283300000000   -3.89136000000000    0.79574600000000
C         2.19221000000000   -2.50275700000000    0.55972600000000
C         0.97591500000000   -1.96122200000000   -0.17743300000000
C        -0.30366900000000   -1.95709100000000    0.71754400000000
C        -1.33298100000000   -2.95504900000000    0.20490500000000
C        -1.69780700000000   -4.04940900000000    1.00403200000000
C        -2.61591100000000   -4.99391200000000    0.54283400000000
C        -3.18300400000000   -4.85587500000000   -0.72321500000000
C        -2.84012800000000   -3.76836800000000   -1.52469900000000
C        -1.92246500000000   -2.82212100000000   -1.06409800000000
N        -0.79094200000000   -0.57764500000000    0.66790400000000
C        -1.88838400000000   -0.16593000000000    1.40344900000000
C        -2.38191100000000    1.21740100000000    1.20707400000000
C        -2.74544500000000    1.66487700000000   -0.06798000000000
C        -3.20076400000000    2.97145700000000   -0.23375300000000
C        -3.31927800000000    3.81765500000000    0.87234400000000
C        -2.99402300000000    3.36244400000000    2.15787600000000
C        -3.17465700000000    4.25071600000000    3.35596200000000
C        -2.53863800000000    2.04750400000000    2.31987700000000
O        -2.47161300000000   -0.87677200000000    2.21557600000000
C         0.21783800000000    0.30395300000000    0.10497800000000
C         1.08739400000000    1.04717000000000    1.16860600000000
O         0.70944900000000    0.85704100000000    2.44886500000000
O         2.06534300000000    1.74554200000000    0.93903700000000
N         1.08601100000000   -0.58061300000000   -0.65760100000000
C         1.68009500000000   -0.30131200000000   -1.87040600000000
C         1.47412700000000    1.03432800000000   -2.45208100000000
C         2.36216300000000    2.07183500000000   -2.16389900000000
C         2.14044400000000    3.34220700000000   -2.70640000000000
C         3.09763600000000    4.46166500000000   -2.42530000000000
C         1.04730800000000    3.53890300000000   -3.56378700000000
C         0.17545000000000    2.48833500000000   -3.86471200000000
C         0.39063700000000    1.22952500000000   -3.31201900000000
O         2.30753600000000   -1.11944400000000   -2.53489800000000
H         3.27530800000000   -0.63311300000000    0.80456700000000
H         5.15312900000000   -1.62793100000000    2.02584900000000
H         5.23351200000000   -4.07131600000000    2.43993600000000
H         3.39139000000000   -5.52639700000000    1.63073400000000
H         1.47168800000000   -4.55252000000000    0.44070100000000
H         0.85006900000000   -2.59598800000000   -1.06664300000000
H        -0.06445000000000   -2.17029900000000    1.76763400000000
H        -1.27674200000000   -4.16484700000000    2.00190800000000
H        -2.89295100000000   -5.83289300000000    1.17497700000000
H        -3.89685600000000   -5.59429500000000   -1.08011000000000
H        -3.28773000000000   -3.65753700000000   -2.50886000000000
H        -1.66562800000000   -1.97956400000000   -1.70276800000000
H        -2.67907700000000    1.00472300000000   -0.92830800000000
H        -3.46608400000000    3.33647400000000   -1.22188300000000
H        -3.68716400000000    4.83080000000000    0.72679500000000
H        -2.27000600000000    4.24871100000000    3.97367100000000
H        -3.37117900000000    5.28637900000000    3.05540300000000
H        -4.02044300000000    3.89819300000000    3.95351600000000
H        -2.29777300000000    1.66468400000000    3.30994200000000
H        -0.24567000000000    1.06547700000000   -0.52135600000000
H         1.37082100000000    1.34724600000000    2.98001200000000
H         3.22376400000000    1.88082000000000   -1.52427200000000
H         3.57835400000000    4.32900700000000   -1.44942800000000
H         3.87268600000000    4.49668600000000   -3.19711000000000
H         2.57636100000000    5.42574000000000   -2.40172200000000
H         0.87212900000000    4.51293000000000   -4.01497400000000
H        -0.65648700000000    2.64472700000000   -4.54505100000000
H        -0.28324200000000    0.41024400000000   -3.55337000000000
66
 energy: -104.946690556682 gnorm: 0.030691970043 xtb: 6.3.3 (4ae9cef)
C         3.24445902120969   -1.70330973738184    1.00358564997384
C         4.32362688889890   -2.26244036067888    1.67668519242567
C         4.37263790157507   -3.62636469538477    1.91241266289824
C         3.33978688441286   -4.43451397812730    1.46417301702755
C         2.26070970875213   -3.87636429189410    0.79748401340988
C         2.19314071637115   -2.50070248774948    0.56530930733815
C         0.97808116406066   -1.96193377971413   -0.16885927231320
C        -0.30340036387017   -1.95960508558539    0.71401920216131
C        -1.33908302515480   -2.94915665413287    0.21398636253866
C        -1.69904054440809   -4.03855818329800    1.00227951152597
C        -2.60871612749223   -4.97847047501202    0.54129416549419
C        -3.17298616248883   -4.84180741788964   -0.71668754781046
C        -2.82794611495860   -3.75828135852887   -1.50883733372857
C        -1.91751351218940   -2.81854225459131   -1.04758256243500
N        -0.78272659692787   -0.57532310054372    0.65947957391268
C        -1.86201538595528   -0.16764520648949    1.40624956285829
C        -2.34785903290178    1.22647030566121    1.19749742846915
C        -2.71389880889492    1.67722980001058   -0.06909223752225
C        -3.19596574023456    2.96669434775864   -0.22591053255301
C        -3.31901969600885    3.80448690336076    0.87326907540563
C        -2.99930839279001    3.35379982134268    2.15016575339499
C        -3.17215914907995    4.24359916244468    3.34652509209420
C        -2.52611563893366    2.05247399910209    2.30286649820615
O        -2.44390373219111   -0.90865644656608    2.17733710301838
C         0.22331085906380    0.29992659270661    0.09964170274610
C         1.08212454862782    1.03125692666671    1.16189113012745
O         0.69738985749253    0.84208806616985    2.43034471348157
O         2.03678962545243    1.72066009785905    0.90830761061403
N         1.08101289695474   -0.58792518155579   -0.65592251532459
C         1.66109781515527   -0.31718667277366   -1.86541964752930
C         1.45319913412362    1.04359030281264   -2.42719477515225
C         2.34341126073006    2.07736407454340   -2.16099892917926
C         2.14175370727432    3.33695928005563   -2.71723147131743
C         3.09188520093513    4.45842945711237   -2.42431497370887
C         1.05294640919106    3.53256716212768   -3.56295894296611
C         0.18868640612369    2.49035476913361   -3.86307240210808
C         0.38446695890375    1.24255443964019   -3.29509265148576
O         2.29227523969058   -1.14805877084108   -2.49153119929032
H         3.25106078187759   -0.63959652295317    0.80759753079276
H         5.13352351199201   -1.62907798240878    2.01447769797451
H         5.21725155191719   -4.05995533828551    2.43251459565387
H         3.37944959557526   -5.50392496448503    1.62619008208485
H         1.46707773575161   -4.52474205950056    0.44544632830315
H         0.83572262690724   -2.59827160365272   -1.05311831340978
H        -0.05252733714364   -2.19768766528717    1.75627883017825
H        -1.27146360278641   -4.15497116328469    1.98954893031044
H        -2.88147898817624   -5.81718942634736    1.16784669240847
H        -3.88253184167804   -5.57657648155793   -1.07584533934225
H        -3.27089759507746   -3.64664085767728   -2.49010192552842
H        -1.65678981282618   -1.97975394236304   -1.68129946602830
H        -2.65814902136800    1.01422395044744   -0.92235432101859
H        -3.47033979914784    3.32698879077542   -1.20832798148366
H        -3.67918247367284    4.81548527264685    0.73246107045594
H        -2.27723166935295    4.23660805072848    3.96908884662414
H        -3.37321608984633    5.27255084046656    3.04789569888052
H        -4.00843642343251    3.89453477039225    3.95209772005520
H        -2.28762288136330    1.67166319914192    3.28720849190600
H        -0.22599143898971    1.07392762535328   -0.53342012873078
H         1.33433074523347    1.32955082390012    2.98740717921947
H         3.19389312120053    1.89341494630521   -1.51848384267905
H         3.57399180823036    4.31755183963535   -1.45702283217371
H         3.86768295411709    4.49714860946942   -3.18958690104885
H         2.57542107928912    5.41883053473120   -2.41440490138935
H         0.87871973894473    4.50642547351497   -4.00191067848833
H        -0.64306513844582    2.65030991587941   -4.53598843449008
H        -0.28033631824807    0.42351399464552   -3.53828896373408
66
 energy: -104.949963991348 gnorm: 0.011980797664 xtb: 6.3.3 (4ae9cef)
C         3.22911429256868   -1.69421039527241    1.00023992884767
C         4.30794359624692   -2.25164501967560    1.66776388096153
C         4.35949780801039   -3.61243468869743    1.90433633900772
C         3.32546189927419   -4.41921293728151    1.46146732881547
C         2.24876059454392   -3.86365209460000    0.79785523959552
C         2.18615812438983   -2.49435510637273    0.56420075693142
C         0.97434674382277   -1.96303316856431   -0.17015674841677
C        -0.29793975141298   -1.95892957177533    0.71798468833047
C        -1.33366291045215   -2.94214317508364    0.22413050199915
C        -1.69212238901555   -4.02846070989473    1.00810054395085
C        -2.60066964727501   -4.96322225836314    0.54555147091692
C        -3.16374591477457   -4.82376473031633   -0.70981714396541
C        -2.81691496726786   -3.73945407857112   -1.49622579473674
C        -1.90764854003832   -2.80550356621370   -1.03321089191024
N        -0.78048343870865   -0.57802038251739    0.64774851314223
C        -1.85295488332787   -0.18043571366687    1.39666472509201
C        -2.31991484376951    1.22629276931984    1.18930378928066
C        -2.68646740870953    1.67956215098401   -0.07351043805363
C        -3.18091022214463    2.96137561137575   -0.22519253137432
C        -3.30960867677316    3.79486592200623    0.87154191796549
C        -2.98609162520517    3.34703590316893    2.14405571908799
C        -3.16785425750391    4.23172232728275    3.34058594454657
C        -2.50114935407285    2.05275429934312    2.29047966570749
O        -2.42496716441296   -0.94121353580311    2.14749813278997
C         0.22584092800653    0.29200302295204    0.09294251849470
C         1.07267373467553    1.02358758789507    1.15429840200065
O         0.67609265018179    0.81960812703489    2.40935342054985
O         2.01906911186432    1.70658714614181    0.88270010113042
N         1.07831495709937   -0.59448131446843   -0.65827819776939
C         1.65745116155381   -0.33117155782419   -1.86310609761100
C         1.44249837728164    1.04449192280364   -2.41307521887211
C         2.32862437864293    2.07872737813008   -2.15180091757102
C         2.13604151912413    3.33423805528931   -2.71281278291866
C         3.08972740046931    4.45236654586630   -2.42289561718803
C         1.05194073872057    3.53037528866247   -3.55754699358931
C         0.18671708762919    2.49354158446284   -3.85169481753541
C         0.37635022594671    1.24848952706503   -3.28092532427081
O         2.27755154450086   -1.17994478778756   -2.46556925351462
H         3.22188562696030   -0.63253344391921    0.80467521190335
H         5.11677233197843   -1.61798308162975    1.99938831716853
H         5.20307104018737   -4.04448256478181    2.42221025431712
H         3.36321901765035   -5.48571503226888    1.62625684071514
H         1.45001507194116   -4.50185498501629    0.44881078685031
H         0.82519877701856   -2.60403876744426   -1.04964531019866
H        -0.04334454221241   -2.20557459256511    1.75760865765778
H        -1.26175480962043   -4.14320639334691    1.99089926667940
H        -2.86999592115246   -5.80382045137660    1.16734414224513
H        -3.86975577606882   -5.55603926741083   -1.07313128946424
H        -3.25434050595015   -3.62603768903360   -2.47729942157087
H        -1.64288435148004   -1.96580878589345   -1.66023103648736
H        -2.61658591374546    1.02067769006413   -0.92642422497240
H        -3.46858976722771    3.31538415278605   -1.20390007294963
H        -3.68243097644392    4.79985611581391    0.73719295948265
H        -2.27792694691576    4.22247926428637    3.96616122349441
H        -3.37391883351598    5.25578062695600    3.03997562713905
H        -4.00115985487857    3.87902160397664    3.94677906741243
H        -2.26248189276007    1.67292424844200    3.27212346574453
H        -0.20665209805505    1.07305537483013   -0.55044527133309
H         1.28335952913543    1.29830653378164    3.00432713986235
H         3.16981122750269    1.90254924666760   -1.50084930284279
H         3.57112502932294    4.30685920910392   -1.45982225855477
H         3.86533944198116    4.48980776660241   -3.18763482124089
H         2.57462876736924    5.41009008746657   -2.42234991231240
H         0.88890221691179    4.50246287010360   -3.99955188705718
H        -0.63863847453498    2.65375296111311   -4.52914621204907
H        -0.28993929308631    0.43175092565816   -3.51630369948610
66
 energy: -104.950819636478 gnorm: 0.008301040107 xtb: 6.3.3 (4ae9cef)
C         3.21936945716638   -1.68301180334559    0.99327677463208
C         4.29895537724574   -2.23818106011294    1.66072978663803
C         4.35101121307849   -3.59893359521132    1.90028335449322
C         3.31560094905587   -4.40912640326505    1.46450755924966
C         2.23922061965662   -3.85711637768074    0.79853165070144
C         2.18108469789045   -2.48911158089444    0.55809920950444
C         0.97111992301508   -1.96292346866771   -0.17553380185615
C        -0.29249172466929   -1.95533609392650    0.71971615396907
C        -1.32873726030506   -2.93641831904944    0.23345515709888
C        -1.68611435345592   -4.02331709776925    1.01627195966687
C        -2.59557922279653   -4.95511683230121    0.55001461463673
C        -3.15818535952552   -4.80983756764263   -0.70555029161933
C        -2.81112767264180   -3.72278935909691   -1.48919381818526
C        -1.90165052694899   -2.79169587950920   -1.02300015247736
N        -0.77903042366751   -0.57904642026931    0.63880504312665
C        -1.84959864183589   -0.18931361179870    1.39053363501364
C        -2.30603637747502    1.22112069256594    1.18513127663358
C        -2.66290272684124    1.67685538525529   -0.07976183214204
C        -3.16405503704736    2.95602419500605   -0.23034276886298
C        -3.30401264217703    3.78589035451159    0.86817330676415
C        -2.97354848063041    3.33992500805575    2.14017961874690
C        -3.16111302117671    4.22033167449368    3.33795504479692
C        -2.48446664907869    2.04761561157560    2.28549982552183
O        -2.42442978560178   -0.96280663974045    2.12577896124761
C         0.22615351525037    0.28904455026823    0.08546946282623
C         1.06847788729954    1.01626833681626    1.15337166624250
O         0.65587190973905    0.80075885559195    2.39805044864163
O         2.00873100767023    1.70794766019842    0.88044076850640
N         1.07515710939574   -0.59757373816896   -0.66517947383199
C         1.65534355406132   -0.34070113504296   -1.87032888498698
C         1.43930780950018    1.03977860968540   -2.41311302249075
C         2.32134446545583    2.07502427086142   -2.14444698522793
C         2.13195928754389    3.33069323193171   -2.70634049630674
C         3.08934772640880    4.44604873113954   -2.41917201980732
C         1.05079588425669    3.52852553546730   -3.55506487385015
C         0.17986348605588    2.49459912113688   -3.84369715724148
C         0.36840422031767    1.24862955226989   -3.27470610582273
O         2.27062394467933   -1.19882539152041   -2.46335099115439
H         3.20288949522824   -0.62170230990447    0.79703232980399
H         5.10666164290120   -1.60217351069484    1.99035732905815
H         5.19575897766896   -4.02895835219271    2.41672498857525
H         3.35241248422165   -5.47453078437440    1.63512319010708
H         1.43565144254276   -4.49088689761712    0.45278703919068
H         0.81736694987778   -2.60799608788533   -1.05116731699313
H        -0.03320715527282   -2.19616140703267    1.75918649627942
H        -1.25271546092546   -4.13852876290695    1.99775124239184
H        -2.86535482314802   -5.79735497530230    1.16906957926653
H        -3.86493362403607   -5.53907163805812   -1.07179515154431
H        -3.24784465670145   -3.60446205384606   -2.46970725178606
H        -1.63293118283598   -1.94872790551648   -1.64396897359213
H        -2.58129549736638    1.02076862796462   -0.93400006863522
H        -3.45436047433131    3.30789558693664   -1.20879615739752
H        -3.68710364592516    4.78750439093950    0.73696279011329
H        -2.27299451634340    4.21154210065649    3.96611578320598
H        -3.37129778035877    5.24335412795926    3.03797917598414
H        -3.99491005457133    3.86158734164292    3.94042862823464
H        -2.23909403272765    1.66960116461010    3.26642540004686
H        -0.19839809786540    1.07169257675989   -0.56279661347223
H         1.23757583635269    1.27417673068922    3.02249956400879
H         3.15795808032509    1.90233770894650   -1.48645730482615
H         3.57015564163112    4.30017642238959   -1.45636158969563
H         3.86476062160316    4.47844529208480   -3.18487586413530
H         2.57657709521784    5.40481919521589   -2.42291392933307
H         0.89418869536388    4.50095803284197   -3.99900226797603
H        -0.64723235541358    2.65754064877712   -4.51826713256584
H        -0.30294874397994    0.43425573510001   -3.50382351710890
66
 energy: -104.951224940742 gnorm: 0.005406939504 xtb: 6.3.3 (4ae9cef)
C         3.21349901729387   -1.67196663109862    0.98423963983729
C         4.29337227976595   -2.22281179815968    1.65517456982941
C         4.34575946765187   -3.58322938786334    1.90000955627107
C         3.31056462839525   -4.39867489774912    1.47141273649654
C         2.23416754872919   -3.85186106974263    0.80078084399998
C         2.17897747170512   -2.48468874258725    0.55081664137721
C         0.96962652823640   -1.96287164294732   -0.18199300743037
C        -0.28698473108537   -1.95182069927030    0.72011305906228
C        -1.32334128158605   -2.93363554432228    0.24169721329840
C        -1.67994328157661   -4.02185746745246    1.02326015914108
C        -2.59299996698043   -4.94923046385725    0.55368410211014
C        -3.15678126235528   -4.79604640042389   -0.70117588928379
C        -2.81041771621030   -3.70610731988738   -1.48225963768875
C        -1.89814951945649   -2.77928004411470   -1.01338026983643
N        -0.77857860673957   -0.58031067568924    0.62868261227728
C        -1.85155827713841   -0.19737612808264    1.37935926438049
C        -2.29787591543550    1.21468514914279    1.17972611199077
C        -2.64487458675290    1.67275761444948   -0.08741013650211
C        -3.14597611309412    2.95189777030494   -0.23787759185669
C        -3.29550696395177    3.77793677562285    0.86330998489288
C        -2.96085298285661    3.33260699016447    2.13551283845403
C        -3.15298418688579    4.20841801627165    3.33552868384011
C        -2.47011137069460    2.04082660577040    2.28061572492015
O        -2.42851139417949   -0.97596005675700    2.10676413546636
C         0.22621932635835    0.28792179113013    0.07788792635491
C         1.05914696689576    1.01662603478467    1.15601544011880
O         0.63615572612013    0.77896915014490    2.39122943522693
O         1.99827803442466    1.71472206290259    0.89290912404508
N         1.07316256602671   -0.59938763687942   -0.67348749030483
C         1.65351953233353   -0.34774144839338   -1.88105665282036
C         1.43755460587321    1.03335910546212   -2.41858681752156
C         2.31725265189929    2.06835602150460   -2.14112956026438
C         2.12823863344044    3.32580386520034   -2.70019408030288
C         3.08903903563955    4.43828320143775   -2.41371235239136
C         1.04725954871173    3.52690728899545   -3.54999142330451
C         0.16978536191350    2.49612581334757   -3.83453559813624
C         0.35980560734777    1.24753746235431   -3.27131034733059
O         2.26287580561825   -1.21133800576458   -2.47206681245823
H         3.19104616374414   -0.61168029879153    0.78268495960168
H         5.10011817183040   -1.58373727998317    1.98243462111891
H         5.19198868345954   -4.00994291714620    2.41687554226291
H         3.34641954478226   -5.46279979251206    1.65199751729536
H         1.42694886152082   -4.48385652510054    0.45894298226131
H         0.81156187340852   -2.61092613052996   -1.05463168743754
H        -0.02238756633810   -2.18140573014376    1.76072523643348
H        -1.24399327980840   -4.13839285797263    2.00407843329417
H        -2.86408097484396   -5.79361140144759    1.16966160077046
H        -3.86503064011521   -5.52247431328592   -1.07024344605232
H        -3.24845231328056   -3.58164731542155   -2.46164608661452
H        -1.62684331062925   -1.93138315918819   -1.62714521216861
H        -2.55305464730462    1.01954852501706   -0.94331195547601
H        -3.43028855910765    3.30529942202623   -1.21757332655173
H        -3.68828490176940    4.77637719706343    0.73442939466211
H        -2.26611399787674    4.19972183070749    3.96609483335434
H        -3.36580916588961    5.23224164174396    3.03928675888945
H        -3.98788389091166    3.84318915055708    3.93326718595106
H        -2.22115018785535    1.66289182391601    3.26139786375195
H        -0.19338195626879    1.07080906114327   -0.57203938333813
H         1.19603385953225    1.24257196677930    3.04119590240959
H         3.15177130491762    1.89604955738662   -1.47951738497284
H         3.56921417939385    4.29248242299956   -1.45013396720376
H         3.86453753210245    4.46521147736857   -3.18002570147324
H         2.58008662647294    5.39949948036618   -2.41879614905051
H         0.89595762578912    4.49964604981468   -3.99592020811301
H        -0.66178464007684    2.66343343490746   -4.50314904167311
H        -0.31595758227902    0.43534002177810   -3.49749841788957
66
 energy: -104.951404482104 gnorm: 0.003798436523 xtb: 6.3.3 (4ae9cef)
C         3.21344520017612   -1.66477851373102    0.97544045609745
C         4.29316677319839   -2.21031308525145    1.65133563203678
C         4.34552505494725   -3.56946629518506    1.90417173018340
C         3.31165073699748   -4.38951869928442    1.48075665313573
C         2.23543250624211   -3.84819449077784    0.80487239043748
C         2.18062383577114   -2.48224928507153    0.54575720603877
C         0.97050151924218   -1.96375157724167   -0.18689901647202
C        -0.28339619885343   -1.95098952658848    0.71865064080552
C        -1.32038293884248   -2.93412732105452    0.24586158767154
C        -1.67599449435555   -4.02364949000175    1.02596530006055
C        -2.59308109254747   -4.94698565083070    0.55506064523786
C        -3.15992491900163   -4.78723638489625   -0.69777204547969
C        -2.81508537560364   -3.69511185521936   -1.47681751320810
C        -1.89930877938183   -2.77237738851700   -1.00695353932989
N        -0.77835654535075   -0.58218840051808    0.62094743387443
C        -1.85415038280889   -0.20196863442468    1.36959132794880
C        -2.29569670524903    1.20990569115600    1.17367563596857
C        -2.63520227193776    1.67078910009814   -0.09466060219293
C        -3.13162192850556    2.95180394633101   -0.24503833524699
C        -3.28585403054675    3.77462373695918    0.85838709710801
C        -2.95325269241948    3.32749651185919    2.13078428477316
C        -3.14642581716472    4.19968610534060    3.33320023872609
C        -2.46471360936999    2.03473476802087    2.27565962508676
O        -2.43531597269901   -0.98183494740027    2.09241151966651
C         0.22723531928923    0.28692860435583    0.07315438218332
C         1.05668773765712    1.01040059767768    1.16094507176643
O         0.62366511068390    0.76022521335447    2.38961026427895
O         1.98938442201682    1.72249893115326    0.90994234406666
N         1.07309249821673   -0.60056511654220   -0.67951765014856
C         1.65053415276117   -0.35125963361081   -1.89026880421222
C         1.43510819186673    1.02888009925536   -2.42447363457249
C         2.31521347363267    2.06221040206477   -2.14197924134873
C         2.12544581642670    3.32192465365507   -2.69628915323837
C         3.08895131779369    4.43161876664081   -2.40857532901871
C         1.04237807798983    3.52698998685539   -3.54316246459929
C         0.16096813426297    2.49881384773123   -3.82715690244835
C         0.35286099732581    1.24732348419654   -3.27064072871568
O         2.25485175521826   -1.21611916221110   -2.48443037897946
H         3.18847612534777   -0.60573294253415    0.76716704614416
H         5.09867738700042   -1.56829661143437    1.97661402592262
H         5.19218417035013   -3.99227292439620    2.42409359180432
H         3.34782534317976   -5.45233936790232    1.67010369824586
H         1.42760783061020   -4.48139950688661    0.46603177758706
H         0.81001972150474   -2.61263879821673   -1.05839859167024
H        -0.01486657156757   -2.17161937860514    1.76042071060333
H        -1.23702113356374   -4.14291865593978    2.00549679840311
H        -2.86538850194525   -5.79285055063316    1.16877646681952
H        -3.87128515012888   -5.51070456940961   -1.06733347602574
H        -3.25682374804323   -3.56501979640106   -2.45400279852685
H        -1.62717254455553   -1.92083980682040   -1.61556904695260
H        -2.54086158379711    1.01875933988844   -0.95118201181153
H        -3.40832956907739    3.30867093314047   -1.22591680979265
H        -3.68090416645878    4.77221894008412    0.73063800596562
H        -2.26007672056841    4.18891474827980    3.96488242450575
H        -3.35885126274090    5.22506096759868    3.04129706464226
H        -3.98226707961480    3.83113624285937    3.92779629331480
H        -2.21543636885237    1.65546143336635    3.25616479092119
H        -0.19022554771187    1.07141230710005   -0.57476615951845
H         1.16630464103541    1.22103361795778    3.05363975647028
H         3.15080537092416    1.88683453820543   -1.48225450056122
H         3.56776357735977    4.28474937296820   -1.44398794268146
H         3.86531340511847    4.45516660594154   -3.17423249896679
H         2.58356653133466    5.39498484338344   -2.41313375372330
H         0.89212682476482    4.50081651278090   -3.98721596108266
H        -0.67514868920717    2.67062452364513   -4.48939501784597
H        -0.32497216777561    0.43661899363320   -3.49727701013171
66
 energy: -104.951564559332 gnorm: 0.003472239433 xtb: 6.3.3 (4ae9cef)
C         3.21681613580547   -1.65788140540459    0.96567139700316
C         4.29615523350244   -2.19617614678486    1.64815901320968
C         4.34859576850301   -3.55308088333723    1.91292873355955
C         3.31697062893763   -4.37824520210568    1.49437374868044
C         2.24105191019632   -3.84399084338352    0.81200587127620
C         2.18489717665508   -2.48004544565484    0.54226660279586
C         0.97344885961487   -1.96565928506420   -0.19127065414569
C        -0.27992708346624   -1.95236957713161    0.71581539992615
C        -1.31771649327394   -2.93686401191967    0.24764724832162
C        -1.67144768107252   -4.02811140679755    1.02573848964392
C        -2.59432362732590   -4.94643899162283    0.55546591162518
C        -3.16774231231818   -4.77922861704549   -0.69325616501310
C        -2.82503704455292   -3.68499392413533   -1.47026611110821
C        -1.90368253989704   -2.76762100045485   -1.00133268726272
N        -0.77826991723897   -0.58557038486435    0.61246619766684
C        -1.85805772122033   -0.20643925793760    1.35669912007684
C        -2.29580383731498    1.20544519583552    1.16405755449525
C        -2.62862936963734    1.67067755075794   -0.10446849759115
C        -3.11726153131158    2.95492642053644   -0.25368541785720
C        -3.27274733095941    3.77446829341188    0.85208291752502
C        -2.94646813984646    3.32282173175188    2.12436132721298
C        -3.13879050834627    4.19095037671556    3.32988777586800
C        -2.46302668980430    2.02784105674049    2.26788151458460
O        -2.44420771542378   -0.98581036377360    2.07616834039620
C         0.22933324741595    0.28495541497944    0.06956466159776
C         1.05084410733305    1.00677445791714    1.16694353616277
O         0.61493169737506    0.73558042113739    2.39018044917800
O         1.97950044119382    1.72898278606228    0.93071868292332
N         1.07477296002235   -0.60215271536038   -0.68474823668865
C         1.64465951032642   -0.35454214996971   -1.90037710887557
C         1.43018140308364    1.02507166875972   -2.43088408867330
C         2.31276303221797    2.05542829750657   -2.14526219247039
C         2.12216069855950    3.31829807275417   -2.69240791449273
C         3.08887013481024    4.42434478815336   -2.40200093559414
C         1.03512227625795    3.52917695599618   -3.53282353095844
C         0.15084751844971    2.50387007435195   -3.81882988844670
C         0.34450736212256    1.24866090330166   -3.27104042640049
O         2.24376995282795   -1.21916168546131   -2.50023590562943
H         3.19093878453020   -0.60067315230999    0.74774387118993
H         5.10029898628601   -1.55061453719161    1.96998159968255
H         5.19456944071464   -3.97043532435926    2.43893804294957
H         3.35420728579348   -5.43928338781733    1.69372686456078
H         1.43433892815228   -4.48059894443530    0.47675074743544
H         0.81206065399970   -2.61474663356099   -1.06233056835570