78
 energy: -127.994230973915 gnorm: 0.141776386805 xtb: 6.3.3 (4ae9cef)
C         1.81705400000000    1.75741000000000   -1.96703300000000
C         2.63890200000000    2.73833500000000   -2.53048900000000
C         3.25293100000000    3.70897500000000   -1.72749300000000
C         4.07662200000000    4.70451200000000   -2.27850100000000
C         4.68234900000000    5.66056300000000   -1.46163100000000
C         4.47538500000000    5.63087000000000   -0.08594700000000
C         3.65822800000000    4.64834100000000    0.47525400000000
C         3.03840900000000    3.68165300000000   -0.33291500000000
C         2.20869000000000    2.69005900000000    0.21750700000000
C         1.58092800000000    1.72469000000000   -0.58798800000000
C         0.67086000000000    0.69592400000000    0.05819900000000
C        -0.78022900000000    0.71023200000000   -0.49205500000000
C        -1.70421400000000    1.53565000000000    0.38883600000000
C        -1.98780900000000    1.16435500000000    1.71480400000000
C        -2.84867300000000    1.92528900000000    2.52419900000000
C        -3.13893100000000    1.54509200000000    3.84448600000000
C        -4.00608700000000    2.30495200000000    4.62994500000000
C        -4.58948700000000    3.45560700000000    4.10812500000000
C        -4.30765500000000    3.84882600000000    2.79958100000000
C        -3.44134200000000    3.09227100000000    1.99392500000000
C        -3.15275300000000    3.46627300000000    0.67309800000000
C        -2.29464100000000    2.69914300000000   -0.11911400000000
N        -1.14564400000000   -0.70430100000000   -0.53380000000000
C        -2.37690200000000   -1.11905000000000   -1.00966000000000
C        -2.71362800000000   -2.52307900000000   -0.83266500000000
C        -2.73259800000000   -3.21658100000000    0.36802300000000
C        -2.48030000000000   -2.84840700000000    1.77826200000000
O        -3.12250600000000   -4.50267500000000    0.16140200000000
C        -3.39558600000000   -4.63276000000000   -1.15816600000000
C        -3.18202300000000   -3.44548900000000   -1.82592300000000
C        -3.40520300000000   -3.19377000000000   -3.27169000000000
O        -3.15115700000000   -0.35663500000000   -1.57842100000000
C         0.04534400000000   -1.54353700000000   -0.58358000000000
C         0.33022700000000   -1.99124600000000   -2.04204800000000
O         0.26340100000000   -3.33123600000000   -2.19844000000000
O         0.56444800000000   -1.27527600000000   -3.00379700000000
N         1.13032100000000   -0.68067000000000   -0.12571800000000
C         2.22761800000000   -1.14653600000000    0.57862100000000
C         2.64228300000000   -2.50578800000000    0.29353700000000
C         2.47294400000000   -3.58345000000000    1.14277600000000
C         1.87456800000000   -3.74869900000000    2.48311800000000
O         2.96812800000000   -4.71378300000000    0.57000800000000
C         3.49357000000000   -4.35894100000000   -0.62793700000000
C         3.33855900000000   -3.00702900000000   -0.85440800000000
C         3.83100200000000   -2.24514200000000   -2.02965600000000
O         2.82802400000000   -0.46629200000000    1.40238300000000
H         1.36327600000000    1.02472000000000   -2.62812000000000
H         2.79495400000000    2.73589000000000   -3.60696200000000
H         4.25370000000000    4.74219200000000   -3.35106700000000
H         5.31911300000000    6.42453500000000   -1.89983300000000
H         4.95014200000000    6.37074500000000    0.55285600000000
H         3.50675400000000    4.64201900000000    1.55240500000000
H         2.05389400000000    2.66639900000000    1.29606800000000
H         0.66607700000000    0.86381500000000    1.14416400000000
H        -0.82773600000000    1.07229400000000   -1.52692600000000
H        -1.53027200000000    0.26786400000000    2.12934800000000
H        -2.69516800000000    0.64844100000000    4.26931100000000
H        -4.22954900000000    1.99542100000000    5.64660800000000
H        -5.26563000000000    4.04799900000000    4.71883300000000
H        -4.77339700000000    4.75090600000000    2.40967000000000
H        -3.60711000000000    4.35632000000000    0.24223900000000
H        -2.10950300000000    3.01049900000000   -1.14625100000000
H        -2.28069500000000   -3.73893900000000    2.38550800000000
H        -3.35394800000000   -2.33883800000000    2.19927900000000
H        -1.61353400000000   -2.18630700000000    1.87385800000000
H        -3.74280300000000   -5.60982100000000   -1.46558000000000
H        -4.47854000000000   -3.14906100000000   -3.48875500000000
H        -2.95073200000000   -2.25255200000000   -3.59624100000000
H        -2.96562900000000   -3.99781600000000   -3.87087300000000
H        -0.06423400000000   -2.41338700000000    0.06746100000000
H         0.42725600000000   -3.48648300000000   -3.15225000000000
H         0.97471500000000   -4.36895200000000    2.42281800000000
H         2.58429200000000   -4.23156700000000    3.16207500000000
H         1.59393500000000   -2.78503300000000    2.91719200000000
H         3.94999900000000   -5.16296900000000   -1.18933200000000
H         3.44335400000000   -1.22199900000000   -2.04185100000000
H         3.52804700000000   -2.73537300000000   -2.96113600000000
H         4.92554400000000   -2.18960900000000   -2.01153400000000
78
 energy: -128.009038420422 gnorm: 0.056255481159 xtb: 6.3.3 (4ae9cef)
C         1.81664037033146    1.75912471734604   -1.96159881857176
C         2.62839149414973    2.72287581309434   -2.52332097444685
C         3.24932926413480    3.70332335007548   -1.72945886657233
C         4.07653673993505    4.70349739656665   -2.27558439788017
C         4.67276433201901    5.64411716853901   -1.46504370461869
C         4.46408294572816    5.61526380873972   -0.08447028640196
C         3.65793940725986    4.64903195997593    0.47594129751160
C         3.03283563383858    3.67636543832695   -0.32700494166377
C         2.19900997454487    2.68205834468028    0.21798172905662
C         1.58294255110865    1.73170464807132   -0.57819204219407
C         0.67098793395873    0.70519290113627    0.06353288526056
C        -0.77658755045595    0.71180268020155   -0.48327684592946
C        -1.71235527993550    1.52463228499418    0.39124947557101
C        -1.98373341464559    1.15704524252324    1.69853346893955
C        -2.84355067659440    1.91560924903864    2.51667211540586
C        -3.13971754196495    1.54242033122422    3.84185442253380
C        -3.99547193226081    2.29751060566635    4.61365633202897
C        -4.58080733714925    3.45305003089082    4.09173743313740
C        -4.30636575952845    3.84535931135419    2.80068028929944
C        -3.43945640876613    3.09081884838186    1.98762339751296
C        -3.14478793540370    3.45615542247666    0.66268772967040
C        -2.30264463810805    2.69148445704292   -0.11508470127053
N        -1.13617002604203   -0.70814207044070   -0.52156020881101
C        -2.35774028903415   -1.11747288337410   -1.01771383251629
C        -2.69498715147997   -2.53584124900035   -0.82622069909127
C        -2.70942233767689   -3.22685157128746    0.36675734991024
C        -2.46598470557677   -2.84034795733577    1.77858325558083
O        -3.13312986192482   -4.49320575877091    0.15701621616594
C        -3.39525897418026   -4.62358025901619   -1.16044439711053
C        -3.17381247648636   -3.44987214246031   -1.82140836272124
C        -3.39469172288146   -3.19284524750844   -3.26924633996053
O        -3.13560488968829   -0.33676530687359   -1.53633484438811
C         0.05449100737764   -1.53744534959514   -0.58750834640508
C         0.31603604141916   -1.98414415017132   -2.03877245720065
O         0.25977268549691   -3.31605948056135   -2.19026177186954
O         0.54907084872796   -1.26004867846285   -2.96995624038233
N         1.12744508954801   -0.67473746162956   -0.12578270022098
C         2.21588037978362   -1.13688105082077    0.57822354327184
C         2.62607616738902   -2.52005016807340    0.29162551112924
C         2.46580577123294   -3.59104658557823    1.13753933867904
C         1.86327842767740   -3.74277572240280    2.48309836454655
O         2.97663067405134   -4.70639724745826    0.56790093565780
C         3.49162872835564   -4.35195355269568   -0.62824519701235
C         3.31934998211175   -3.01660753063316   -0.85919975422454
C         3.81822706243742   -2.24449890535422   -2.02954235166796
O         2.81410563893514   -0.43860633824989    1.37448286324738
H         1.36586328308140    1.01871343291259   -2.60975102540476
H         2.78731600080691    2.72332427567676   -3.59389994217114
H         4.24871749941879    4.73682338902683   -3.34364722402949
H         5.30608354456166    6.40750596252045   -1.89909372877388
H         4.93777630026656    6.35508640751667    0.54807743386933
H         3.50545141885736    4.63879016951718    1.54702801245576
H         2.04507722726516    2.66071359061957    1.28911614271664
H         0.65873799001929    0.89184674269589    1.14647157312332
H        -0.80805972041873    1.10395607697084   -1.50911336637507
H        -1.53123369773900    0.26395296124204    2.11122108292745
H        -2.69381600280986    0.65074346320859    4.26259449224311
H        -4.21726108158754    1.99373760748490    5.62858557596512
H        -5.25289996964854    4.04142149226496    4.70340652441318
H        -4.76698710926964    4.74254934585353    2.40818846977868
H        -3.59406359065092    4.34613481934635    0.24142712563914
H        -2.10498729712881    2.99980290473182   -1.13347373750623
H        -2.28398088513523   -3.73553940660522    2.37437999165034
H        -3.34006891599173   -2.33162497369341    2.19160831209204
H        -1.60909445115261   -2.17436404915724    1.87257496461758
H        -3.73939014535990   -5.58996068347849   -1.47857286691614
H        -4.46356178843202   -3.14240126442419   -3.48224855109496
H        -2.94849441407782   -2.24783423556197   -3.57548043576656
H        -2.96914491541494   -3.99730918773677   -3.87123517920801
H        -0.04623532900152   -2.43064833015608    0.03954660351264
H         0.42527212472978   -3.50107842624915   -3.13408419720375
H         0.97118834281699   -4.37016794789779    2.43137492009341
H         2.57511265325944   -4.22554195209359    3.15359800985249
H         1.59558060945262   -2.77450022995554    2.90308169044826
H         3.95250341035937   -5.14039545161268   -1.19337641489941
H         3.42888284825579   -1.22726317662284   -2.03113378805482
H         3.53027654234763   -2.73119761692227   -2.96205445920930
H         4.90846027655098   -2.18754005201391   -2.00726487977005
78
 energy: -128.013257545359 gnorm: 0.013389324119 xtb: 6.3.3 (4ae9cef)
C         1.81307309964547    1.74839322208689   -1.95343769744289
C         2.61618743434051    2.70194679324936   -2.51453496377147
C         3.24093168378403    3.69156461230539   -1.72752246923483
C         4.07038938206162    4.69408036177096   -2.27316767239919
C         4.66132743149442    5.62716319209184   -1.46912418376072
C         4.45269059165887    5.60073066685157   -0.08259257728496
C         3.65369558391537    4.64512423822289    0.47769951873168
C         3.02454113609775    3.66801842869150   -0.32205576700909
C         2.18741608085415    2.67406672062476    0.22296126062542
C         1.58051665103217    1.73109703467641   -0.56454168657689
C         0.66842651514947    0.70844078741943    0.07435044192416
C        -0.77070776310683    0.71204205595795   -0.48086174652380
C        -1.71242089985158    1.51415855682047    0.38940950750927
C        -1.98110382873248    1.14495976987578    1.68204064296376
C        -2.84084878209979    1.90256387913470    2.50455555434425
C        -3.13722059755978    1.53478770167206    3.83451403336712
C        -3.98287413857473    2.28764132817279    4.59944484039888
C        -4.57091314275510    3.44820420804937    4.07635691595865
C        -4.30138326647529    3.83800738012588    2.79544684469041
C        -3.43613317213366    3.08210460589214    1.97711003094548
C        -3.13660901413507    3.44431326888742    0.64892821286572
C        -2.30203555923829    2.68470390621100   -0.11952633094056
N        -1.12826506556709   -0.70876791329123   -0.50589833542406
C        -2.34955579589699   -1.10646150514112   -1.00492652638579
C        -2.67336115926853   -2.54002151169231   -0.81965743988567
C        -2.68937831366547   -3.23344474444314    0.36565912739874
C        -2.44782146840155   -2.83324729971940    1.77764931426894
O        -3.12212808233359   -4.48966762499215    0.15336536406572
C        -3.39276998516956   -4.61316155634695   -1.16031623877490
C        -3.15594909516596   -3.44766862821417   -1.81877363622036
C        -3.37700221188121   -3.18107043025446   -3.26679307812174
O        -3.12591982119526   -0.31474225153153   -1.49462556119161
C         0.06287490042579   -1.53131049565626   -0.58597581645414
C         0.31653667688230   -1.96874098710154   -2.03697614982537
O         0.25164113925634   -3.29456677790364   -2.17786563852005
O         0.52784649540981   -1.22899319710181   -2.95377032244248
N         1.12560908530270   -0.67045897019834   -0.12114492541323
C         2.21365567005022   -1.12332081723102    0.57593612330950
C         2.60900391172264   -2.52736286230742    0.29216980669916
C         2.45668652110354   -3.59725803186311    1.13313232461686
C         1.85009813528282   -3.73491805912613    2.48262159304098
O         2.97430729315507   -4.70368008221149    0.56516496692076
C         3.48645919231673   -4.34544919315162   -0.62714879916447
C         3.29970211392593   -3.01875815431142   -0.86194093339668
C         3.79688743402313   -2.23663204178113   -2.02927459579917
O         2.81885339479827   -0.40774576021529    1.34458257691439
H         1.36040765683381    0.99868089420492   -2.58621244966614
H         2.78149893984465    2.70675321867833   -3.58204385237166
H         4.23562802537398    4.71766277115439   -3.34048820113262
H         5.29435159465612    6.39020965939783   -1.89871260134624
H         4.92845262051787    6.34254845691539    0.54235123509751
H         3.49649959055711    4.62823545363353    1.54566785916776
H         2.03503091563175    2.66085839354985    1.29129006662025
H         0.65393923942199    0.90637909463913    1.15539392687553
H        -0.79189651364923    1.11952347666946   -1.50120929224089
H        -1.53390253898530    0.25286502871660    2.09686182311874
H        -2.68674402794026    0.64384219802961    4.24729040058219
H        -4.20462552456185    1.99031068430603    5.61419737826722
H        -5.23918405474400    4.03283006135591    4.69185081509493
H        -4.75437311765819    4.73306471215651    2.39505217576699
H        -3.58334517567536    4.33823229443846    0.23972295838689
H        -2.09639632243339    2.98319295769802   -1.13576512233071
H        -2.27386107489314   -3.72794627756951    2.37073979420227
H        -3.32415195455351   -2.32291333595028    2.17973663692200
H        -1.59780641528800   -2.16336829460106    1.86302767351615
H        -3.74124540548284   -5.57025904959745   -1.49096290734757
H        -4.44516701665618   -3.12613511011241   -3.47297008007954
H        -2.93198445607515   -2.23435102559047   -3.55762401150009
H        -2.96145619220251   -3.98524603340718   -3.87168149225343
H        -0.02584956264965   -2.44092813239984    0.02620256269571
H         0.40771380546820   -3.52049484637736   -3.11238338462419
H         0.95851163556860   -4.36056975586097    2.43877368831813
H         2.56186086195405   -4.21742906312426    3.15053899220544
H         1.59527889815923   -2.75879140285191    2.88398510306604
H         3.95270207038103   -5.12011707678891   -1.20094753702197
H         3.39994198729950   -1.22548442270011   -2.02020004757683
H         3.52055355123658   -2.72175169800376   -2.96369479473702
H         4.88466057006271   -2.17606465361250   -1.99843722527039
78
 energy: -128.014541236401 gnorm: 0.012736045840 xtb: 6.3.3 (4ae9cef)
C         1.80980828272869    1.73260461398316   -1.94274597945638
C         2.61001487952605    2.68373855846861   -2.50697489098556
C         3.23321523187583    3.67871830640017   -1.72291554703587
C         4.06228016784156    4.67982608083480   -2.27285776674495
C         4.65354809213002    5.61459910343202   -1.47276973015227
C         4.44627964490215    5.59301615157961   -0.08362172587148
C         3.64739756433862    4.64107606467374    0.47958624056333
C         3.01764443829664    3.66209358906707   -0.31837126946222
C         2.17994074864082    2.67172365035163    0.23196828133986
C         1.57758770639391    1.72604752656392   -0.55175447112770
C         0.66682681936625    0.70666427697025    0.08592064663841
C        -0.76483270957763    0.70899610174915   -0.47954107279433
C        -1.71093767515650    1.50744347711811    0.38309297861168
C        -1.98190009154602    1.13391862220910    1.67182243233547
C        -2.84104979574298    1.89235409667432    2.49353299532632
C        -3.13498574912030    1.52437083453938    3.82454795958674
C        -3.97541583517610    2.27922125333306    4.59053363483964
C        -4.56328822034165    3.44238620484960    4.06691346659800
C        -4.29559033872951    3.83077802999684    2.78626575777535
C        -3.43249311409041    3.07273735645445    1.96687126515640
C        -3.13195397694811    3.43758107472940    0.63815268466187
C        -2.29865484350714    2.67902838932210   -0.12966017309936
N        -1.12232978626644   -0.70998587003653   -0.49554886964002
C        -2.34647767072580   -1.09871212025113   -0.99064746271207
C        -2.66005098013455   -2.53767726202453   -0.81574497751813
C        -2.67580291469654   -3.23528049940746    0.36601320863177
C        -2.42858183156581   -2.82904464253391    1.77635757973824
O        -3.11362448730972   -4.48809972785255    0.15263235293786
C        -3.38294706571979   -4.60744847259526   -1.16168385563459
C        -3.14299761970964   -3.44068207622315   -1.81754915572650
C        -3.36061984543726   -3.16386919514206   -3.26439893410349
O        -3.12947466929191   -0.29862612532684   -1.45475517030006
C         0.06803924857187   -1.52981058870922   -0.58131328147800
C         0.30578724199690   -1.95756122591149   -2.03933418866336
O         0.24851818091754   -3.28164576378638   -2.17226938292606
O         0.50720160851654   -1.20761483663754   -2.95133781576028
N         1.12585248328575   -0.66964837761227   -0.11192256257618
C         2.21939129341156   -1.11460760459424    0.57620142420776
C         2.60051460480367   -2.52653703639010    0.29582009159895
C         2.44987971684883   -3.59862696710880    1.13285727007599
C         1.83875732522957   -3.72683913503577    2.48242864621326
O         2.96874819819715   -4.70264480099111    0.56382854525625
C         3.47693118335594   -4.34113310921640   -0.62895483362714
C         3.28581960666199   -3.01454029526548   -0.86237137006671
C         3.77416963678225   -2.22489487582353   -2.02859579338863
O         2.84018377031617   -0.38855387858502    1.32266927404391
H         1.35639502664110    0.97413404107096   -2.56425376812675
H         2.77972063339331    2.68818672846468   -3.57413624144350
H         4.22281393918909    4.69470025186641   -3.34142410597453
H         5.28678094424736    6.37733150366381   -1.90173070665656
H         4.92477743689042    6.33765495846250    0.53547490953945
H         3.48689113107789    4.62087656669100    1.54734768109883
H         2.02648219912423    2.66705800878480    1.30065896517114
H         0.64853313991486    0.90641451651324    1.16641565068348
H        -0.77901069757411    1.11502117632574   -1.49960510060113
H        -1.53841819035363    0.23995985961525    2.08757923575216
H        -2.68097403343935    0.63191396720965    4.23126902116618
H        -4.19526718097788    1.98711622285128    5.60694902178978
H        -5.22774293216260    4.02653633500953    4.68640501746579
H        -4.74347467091538    4.72616780706364    2.38021265507095
H        -3.57891632566490    4.33452696069865    0.23531467967846
H        -2.08541764803256    2.97206755746899   -1.14593214686310
H        -2.25581350549431   -3.71997707401118    2.37436348750710
H        -3.30415566676009   -2.31373676682438    2.17327885266903
H        -1.57846436408918   -2.15893622606853    1.85318724186798
H        -3.73618637728501   -5.55982322936766   -1.50136808213711
H        -4.42861082791518   -3.10409302280491   -3.46975118121677
H        -2.91147111034532   -2.21617772911405   -3.54446792746041
H        -2.94680364454672   -3.96491775213329   -3.87388762429091
H        -0.01507199853583   -2.44538416957241    0.02372903618406
H         0.39583757630765   -3.53190875003947   -3.10140867758897
H         0.94249966034256   -4.34553781738199    2.44225570292874
H         2.54639501978027   -4.20887028650434    3.15465514448119
H         1.59139408168300   -2.74419154420043    2.87149815028231
H         3.94671285488870   -5.10851667536162   -1.21017441964353
H         3.36693389186542   -1.21815514790574   -2.01291649758235
H         3.50223331244965   -2.70883541191118   -2.96473869669964
H         4.86106887215390   -2.15544073479900   -1.99517973233687
78
 energy: -128.015564656429 gnorm: 0.009793676072 xtb: 6.3.3 (4ae9cef)
C         1.80972130999975    1.70957660745644   -1.92524922506784
C         2.60699910811111    2.65915880149997   -2.49604531170762
C         3.22484002853068    3.66101243522816   -1.71560717163046
C         4.05223889144830    4.65859950560203   -2.27349967467354
C         4.64444439377286    5.59891818494175   -1.47894900293030
C         4.43943618542868    5.58606763494832   -0.08826389899119
C         3.63892505087322    4.63805527473736    0.48109558365188
C         3.00957619095925    3.65624858772879   -0.31330031055414
C         2.17163045454057    2.67189999680917    0.24598668888790
C         1.57549233760624    1.71868917365789   -0.53380635538162
C         0.66501995363914    0.70282262180070    0.10097097616693
C        -0.75829903724662    0.70392921432947   -0.47754966200490
C        -1.70901837441504    1.50233418818191    0.37350905995382
C        -1.98532879938686    1.12106870780854    1.65953640333122
C        -2.84376716514623    1.88013302345415    2.47905385001365
C        -3.13376003836723    1.50987633465003    3.81004879731122
C        -3.96776469775239    2.26907679886317    4.57973573610965
C        -4.55355948886714    3.43462443013583    4.05614642684902
C        -4.28857063552824    3.82176013095326    2.77346519204945
C        -3.42918527732388    3.06088903517995    1.95321505453185
C        -3.12824251942274    3.43125320812800    0.62525751424731
C        -2.29256030506655    2.67467180734846   -0.14292012454606
N        -1.11640584511753   -0.71220249485105   -0.48410586638021
C        -2.34667495751028   -1.09083484423751   -0.96590635841291
C        -2.64734790454260   -2.53336893506334   -0.80948582484981
C        -2.66121138963811   -3.23735093857092    0.36840564606590
C        -2.40187448507285   -2.82624005750920    1.77556053990836
O        -3.09501388195494   -4.49001592551689    0.14996410800536
C        -3.36618786719293   -4.60202797769410   -1.16536128770289
C        -3.12734893785391   -3.43022202902246   -1.81585115732724
C        -3.33652856768316   -3.13717742735211   -3.26069598843360
O        -3.13934696829703   -0.28357255625320   -1.39962989232430
C         0.07353843060612   -1.53013902150277   -0.57392180985553
C         0.30355816457689   -1.94846861583037   -2.03905632320227
O         0.24366896754422   -3.26966680062836   -2.16821525130937
O         0.47511734215381   -1.18815107938239   -2.95060339663027
N         1.12594683626209   -0.67067825079638   -0.09653136060232
C         2.23109197971008   -1.10578723411121    0.57520065662994
C         2.59416600885474   -2.52303649272605    0.30210832033182
C         2.44189540671958   -3.59846699105631    1.13413387893316
C         1.82375927305671   -3.71485222528449    2.48201968269447
O         2.95505502773980   -4.70207673728795    0.55925854037663
C         3.46007767195372   -4.33630633389241   -0.63432415679855
C         3.27206404432218   -3.00682184214907   -0.86116045780383
C         3.74296926591887   -2.20665926548498   -2.02693058386698
O         2.87322639773419   -0.37030923185981    1.29445270186661
H         1.35662201155488    0.94023272600394   -2.53355122376246
H         2.78100967277564    2.65911636284701   -3.56316832849506
H         4.20864106679815    4.66247740446476   -3.34346350067342
H         5.27799383650806    6.36025724386200   -1.90989569356524
H         4.92169025582741    6.33475767186498    0.52323921380084
H         3.47481377369666    4.61780425147839    1.54897782906791
H         2.01425373996047    2.67795337313594    1.31502731794877
H         0.63915482873772    0.90094738713618    1.18137944653607
H        -0.76274387260754    1.10107387793321   -1.50014817456225
H        -1.54579439804720    0.22371628744771    2.07377990456458
H        -2.67809363229206    0.61409447701283    4.20943421159753
H        -4.18534637132386    1.98201336158214    5.59814151633700
H        -5.21314841341500    4.01930209064776    4.68034164627138
H        -4.73160006510578    4.71818298641188    2.36303904978326
H        -3.57642360120962    4.33045524571251    0.22751399288897
H        -2.07143360017071    2.96186118973336   -1.15966845138943
H        -2.22588246328581   -3.71120109917677    2.38136736791802
H        -3.27314333252062   -2.30347372146051    2.17233140352272
H        -1.54866750166316   -2.15777642266304    1.83937076271468
H        -3.72257263325394   -5.54984825992799   -1.51626065589703
H        -4.40334793085999   -3.06857582552538   -3.47006599163043
H        -2.87933230077164   -2.18847109929395   -3.52641247580384
H        -2.92261951295770   -3.93203745095945   -3.87843041485869
H        -0.00450470809605   -2.45019028000684    0.02325290440600
H         0.36788997911702   -3.54288981505906   -3.09347580837517
H         0.91834917529138   -4.32052811571611    2.44346877991464
H         2.52152038758228   -4.19865589673424    3.16336032985058
H         1.58605951444639   -2.72461783445413    2.85881248799609
H         3.92916987182504   -5.09714095951843   -1.22584058833735
H         3.31829721271404   -1.20654869739825   -2.00408114124825
H         3.47398793675762   -2.68970177458566   -2.96452974861558
H         4.82873849531107   -2.11881808017539   -1.99600487283287
78
 energy: -128.016027728859 gnorm: 0.006486302443 xtb: 6.3.3 (4ae9cef)
C         1.81494738880502    1.69243962178195   -1.90991430967633
C         2.61078533399676    2.64016429506010   -2.48696426660562
C         3.22251710688094    3.64801706250902   -1.71031014730048
C         4.04829296492771    4.64230408346867   -2.27508961248782
C         4.63993829708486    5.58852389056276   -1.48565005942987
C         4.43553674804689    5.58443630189693   -0.09530160349390
C         3.63344864536905    4.64001887249574    0.48013952994282
C         3.00541742865861    3.65409641315863   -0.30942031287243
C         2.16707630147861    2.67439811180405    0.25660558353308
C         1.57641397719751    1.71406818772284   -0.51993731752456
C         0.66439818478013    0.70037665232362    0.11252557980910
C        -0.75420466857440    0.70144966947030   -0.47595955132598
C        -1.70836545027262    1.50203870424141    0.36662525574285
C        -1.98974157785911    1.11457763375712    1.65088455428374
C        -2.84791263360157    1.87306800866285    2.46925424747501
C        -3.13635583653283    1.49995900836393    3.79926032046786
C        -3.96582201483924    2.26241344243240    4.57199476961336
C        -4.54826763988700    3.42967855115123    4.04960941426532
C        -4.28552253960750    3.81695332629485    2.76552712968108
C        -3.42904058556264    3.05474332298360    1.94412271741114
C        -3.12769221862183    3.42897627473436    0.61748853890198
C        -2.28845349754010    2.67449354028482   -0.15068115854134
N        -1.11365729151310   -0.71294347022564   -0.47794390427207
C        -2.34984464519594   -1.08728879196268   -0.94404259672663
C        -2.64214243323413   -2.53064834168625   -0.80237866202925
C        -2.65173251077533   -3.24083029093254    0.37211510417304
C        -2.38092334671998   -2.82954233149218    1.77668682023955
O        -3.07775788416302   -4.49527561799509    0.14639819296323
C        -3.34810687038201   -4.60091220093248   -1.17031551654357
C        -3.11609053654455   -3.42286912205537   -1.81389597550158
C        -3.31652544941967   -3.11500578574421   -3.25676910226507
O        -3.15082371668975   -0.27768198788776   -1.35686247999854
C         0.07497840735671   -1.53130733331937   -0.56729623468662
C         0.29236419157672   -1.94558458142909   -2.03818281925894
O         0.24182581648695   -3.26622433562170   -2.16533988101569
O         0.45293188364214   -1.18287515387815   -2.94904216310529
N         1.12514532486769   -0.67243885823701   -0.08309072953917
C         2.24097356731190   -1.10177175294132    0.57339950892372
C         2.59306315715384   -2.51961931928123    0.30628590522517
C         2.43562778003411   -3.59708742098359    1.13449727703506
C         1.81237238904501   -3.70586054391269    2.48025702349342
O         2.93979957373470   -4.70194654175534    0.55268813333250
C         3.44268726882287   -4.33417796711581   -0.64202174895858
C         3.26350078509778   -3.00143196828918   -0.86130620124137
C         3.71909598767707   -2.19264121764287   -2.02662968665872
O         2.89749899410745   -0.36243251394162    1.27470666357656
H         1.36444621302531    0.91590544601590   -2.51078435912532
H         2.78730427735826    2.63244904589983   -3.55377843600862
H         4.20419708413735    4.63886034931406   -3.34521823874111
H         5.27327725949359    6.34779870142635   -1.92087929667563
H         4.91933796065909    6.33654132103776    0.51097863308314