72
 energy: -134.007026698268 gnorm: 0.000506400665 xtb: 6.3.3 (4ae9cef)
C         2.16279847894250   -1.83460963496675    0.12543690209047
O         1.65099971075438   -2.42859309611712   -0.98699894790429
C         2.19421292607046   -3.66157545081658   -1.41117777422642
C         3.25852739281628   -2.31041076918694    0.83603343927488
C         3.71065565149176   -1.63468349505098    1.95647085753110
C         3.07574808258877   -0.48571535460340    2.38959744189386
C         1.98598952627306   -0.00538236476310    1.68557635229147
C         1.53224986597323   -0.65569386607273    0.55021787658100
C         0.35050092038533   -0.12787497849777   -0.21511548676803
C        -0.97285039542101   -0.29005590860507    0.55653459430293
C        -1.66784045956703   -1.55990087533663    0.14870674273395
C        -2.54646656690103   -1.60682053514047   -0.91740312545213
C        -3.14458900632692   -2.79839149916157   -1.29053197569137
C        -2.84846246800578   -3.95418390826252   -0.59461745423351
C        -1.95560382007397   -3.93027407448307    0.46380674525209
C        -1.35327775801684   -2.73719183115673    0.84215567709129
O        -0.44297452234845   -2.61177796639197    1.84846823108156
C        -0.12190085856119   -3.74648998775704    2.61568117683852
N        -1.71754198055386    0.91691180777444    0.21670425687117
C        -2.93858203532919    1.11122350961506    0.81144600753675
C        -3.59142759261483    2.42663106847584    0.52339084999482
C        -3.78917793456231    2.86624205988802   -0.78325512026390
C        -4.44423705466911    4.05828707206595   -1.02060242320083
C        -4.89718188691751    4.80864855172040    0.05792486542888
N        -5.57377357110093    6.05978720173235   -0.19007813074238
O        -5.69147444150821    6.41419087413799   -1.34365815866324
O        -5.98128247526993    6.67859607573987    0.76791214104703
C        -4.72179357505706    4.37202633040273    1.36551685863261
C        -4.07693792014283    3.17273411204333    1.59336414123736
O        -3.48611697860414    0.24816834093369    1.45575953345393
C        -0.80670562345301    1.98469015118794   -0.09704568044952
C        -0.59947446681847    2.92953507349260    1.13628803032049
O         0.18514898369838    3.95860470800941    0.92032126173847
O        -1.15283951723845    2.71048768281480    2.17504455755331
N         0.42614758334063    1.30719773569138   -0.46644490610754
C         1.45035162107950    1.95171781241147   -1.04353054818800
C         2.61007232093971    1.08554484618025   -1.41190204263554
C         2.52730765449553    0.16988618755653   -2.45530751344534
C         3.57429041393246   -0.69943892664339   -2.68671572478033
C         4.69904691779689   -0.63409133962657   -1.87448600714358
N         5.73370668948226   -1.62684586275110   -2.02266000263216
O         5.43414942451082   -2.65012599798707   -2.60389168962246
O         6.81570940788643   -1.39734023589161   -1.53381215250497
C         4.83029569742932    0.33993105149385   -0.89266002202298
C         3.78079027482816    1.20629887281689   -0.66755689271034
O         1.44937351628862    3.16907637863833   -1.20891364598467
H         2.13450695645136   -4.41523971079667   -0.62152512978595
H         1.57665954191203   -3.97452681264333   -2.25114509271198
H         3.23136712627618   -3.55874535400179   -1.74342810313262
H         3.76729806116339   -3.20784721535640    0.52211667571305
H         4.56450429427921   -2.01845833090538    2.49372026801844
H         3.42220863657630    0.03148252922184    3.27016611100438
H         1.48139954836187    0.88997344632122    2.01949154894062
H         0.27396482093078   -0.66244092729802   -1.16870958860473
H        -0.78695656810633   -0.32193459131964    1.63788521335082
H        -2.77603983015414   -0.69735970838279   -1.45215931833142
H        -3.83785177895043   -2.82087601099617   -2.11685522567862
H        -3.31165597853733   -4.88890898684732   -0.87284761502192
H        -1.73884454789493   -4.84711747247669    0.98854344115519
H        -1.00158569344178   -4.14913101767315    3.12653581632326
H         0.60074239401917   -3.40276802231276    3.35423560495895
H         0.33549583173742   -4.53019299657156    2.00276240909084
H        -3.45320281341116    2.26415234406623   -1.61469295511829
H        -4.61466797538097    4.41977346008683   -2.02333646313867
H        -5.09589695253439    4.97473774863531    2.17873007241924
H        -3.92714190758573    2.80539798684123    2.59562517712196
H        -1.15955868985721    2.60565315634906   -0.93636556368601
H         0.64762449481345    3.91928645464287    0.03285624027731
H         1.64420608853447    0.12576347924931   -3.07333250972056
H         3.52507389894029   -1.43904391345752   -3.47105646791243
H         5.73454969847898    0.38324440363436   -0.30577720790777
H         3.84824119141926    1.95618051640141    0.10456954696360
