      -----------------------------------------------------------      
     |                   =====================                   |     
     |                           x T B                           |     
     |                   =====================                   |     
     |                         S. Grimme                         |     
     |          Mulliken Center for Theoretical Chemistry        |     
     |                    University of Bonn                     |     
      -----------------------------------------------------------      

   * xtb version 6.3.3 (4ae9cef) compiled by 'conda@95abc7406d43' on 2020-10-14

   xtb is free software: you can redistribute it and/or modify it under
   the terms of the GNU Lesser General Public License as published by
   the Free Software Foundation, either version 3 of the License, or
   (at your option) any later version.
   
   xtb is distributed in the hope that it will be useful,
   but WITHOUT ANY WARRANTY; without even the implied warranty of
   MERCHANTABILITY or FITNESS FOR A PARTICULAR PURPOSE.  See the
   GNU Lesser General Public License for more details.
   
   Cite this work as:
   * C. Bannwarth, E. Caldeweyher, S. Ehlert, A. Hansen, P. Pracht,
     J. Seibert, S. Spicher, S. Grimme, WIREs Comput. Mol. Sci., 2020,
     e01493. DOI: 10.1002/wcms.1493
   
   for GFN2-xTB:
   * S. Grimme, C. Bannwarth, P. Shushkov, J. Chem. Theory Comput., 2017,
     13, 1989-2009. DOI: 10.1021/acs.jctc.7b00118
   for GFN1-xTB:
   * C. Bannwarth, S. Ehlert and S. Grimme., J. Chem. Theory Comput., 2019,
     15, 1652-1671. DOI: 10.1021/acs.jctc.8b01176
   for GFN0-xTB:
   * P. Pracht, E. Caldeweyher, S. Ehlert, S. Grimme, ChemRxiv, 2019, preprint.
     DOI: 10.26434/chemrxiv.8326202.v1
   for GFN-FF:
   * S. Spicher and S. Grimme, Angew. Chem. Int. Ed., 2020, 59, 15665-15673.
     DOI: 10.1002/anie.202004239
   
   for DFT-D4:
   * E. Caldeweyher, C. Bannwarth and S. Grimme, J. Chem. Phys., 2017,
     147, 034112. DOI: 10.1063/1.4993215
   * E. Caldeweyher, S. Ehlert, A. Hansen, H. Neugebauer, S. Spicher,
     C. Bannwarth and S. Grimme, J. Chem. Phys., 2019, 150, 154122.
     DOI: 10.1063/1.5090222
   * E. Caldeweyher, J.-M. Mewes, S. Ehlert and S. Grimme, Phys. Chem. Chem. Phys.
     2020, 22, 8499-8512. DOI: 10.1039/D0CP00502A
   
   for sTDA-xTB:
   * S. Grimme and C. Bannwarth, J. Chem. Phys., 2016, 145, 054103.
     DOI: 10.1063/1.4959605
   
   in the mass-spec context:
   * V. Asgeirsson, C. Bauer and S. Grimme, Chem. Sci., 2017, 8, 4879.
     DOI: 10.1039/c7sc00601b
   * J. Koopman and S. Grimme, ACS Omega 2019, 4, 12, 15120-15133.
     DOI: 10.1021/acsomega.9b02011
   
   for metadynamics refer to:
   * S. Grimme, J. Chem. Theory Comput., 2019, 155, 2847-2862
     DOI: 10.1021/acs.jctc.9b00143
   
   with help from (in alphabetical order)
   C. Bannwarth, F. Bohle, G. Brandenburg, E. Caldeweyher, M. Checinski,
   S. Dohm, S. Ehlert, S. Ehrlich, F. März, H. Neugebauer, J. Pisarek,
   P. Pracht, P. Shushkov, and S. Spicher.
   
 * started run on 2022/03/17 at 02:19:20.414     

           -------------------------------------------------
          |                Calculation Setup                |
           -------------------------------------------------

          program call               : xtb alk_12.xyz --opt --chrg 0 --uhf 0 --gfn 2
          coordinate file            : alk_12.xyz
          omp threads                :                    64
          number of atoms            :                    22
          number of electrons        :                    52
          charge                     :                     0
          spin                       :                   0.0
          first test random number   :      0.17573013284200

   ID    Z sym.   atoms
    1    6 C      1-10
    2    1 H      11-22

           -------------------------------------------------
          |                 G F N 2 - x T B                 |
           -------------------------------------------------

        Reference                      10.1021/acs.jctc.8b01176
      * Hamiltonian:
        H0-scaling (s, p, d)           1.850000    2.230000    2.230000
        zeta-weighting                 0.500000
      * Dispersion:
        s8                             2.700000
        a1                             0.520000
        a2                             5.000000
        s9                             5.000000
      * Repulsion:
        kExp                           1.500000    1.000000
        rExp                           1.000000
      * Coulomb:
        alpha                          2.000000
        third order                    shell-resolved
        anisotropic                    true
        a3                             3.000000
        a5                             4.000000
        cn-shift                       1.200000
        cn-exp                         4.000000
        max-rad                        5.000000


          ...................................................
          :                      SETUP                      :
          :.................................................:
          :  # basis functions                  52          :
          :  # atomic orbitals                  52          :
          :  # shells                           32          :
          :  # electrons                        52          :
          :  max. iterations                   250          :
          :  Hamiltonian                  GFN2-xTB          :
          :  restarted?                      false          :
          :  GBSA solvation                  false          :
          :  PC potential                    false          :
          :  electronic temp.          300.0000000     K    :
          :  accuracy                    1.0000000          :
          :  -> integral cutoff          0.2500000E+02      :
          :  -> integral neglect         0.1000000E-07      :
          :  -> SCF convergence          0.1000000E-05 Eh   :
          :  -> wf. convergence          0.1000000E-03 e    :
          :  Broyden damping             0.4000000          :
          ...................................................

 iter      E             dE          RMSdq      gap      omega  full diag
   1    -27.9428703 -0.279429E+02  0.395E+00    4.37       0.0  T
   2    -27.9707101 -0.278398E-01  0.233E+00    4.45       1.0  T
   3    -27.9619378  0.877231E-02  0.949E-01    4.30       1.0  T
   4    -27.9709203 -0.898248E-02  0.442E-01    4.42       1.0  T
   5    -27.9738152 -0.289489E-02  0.893E-02    4.42       1.0  T
   6    -27.9739379 -0.122661E-03  0.383E-02    4.41       1.0  T
   7    -27.9739409 -0.298369E-05  0.158E-02    4.41       1.3  T
   8    -27.9739426 -0.170498E-05  0.464E-03    4.41       4.6  T
   9    -27.9739430 -0.396270E-06  0.799E-04    4.41      26.7  T
  10    -27.9739430 -0.804732E-09  0.348E-04    4.41      61.3  T

   *** convergence criteria satisfied after 10 iterations ***

         #    Occupation            Energy/Eh            Energy/eV
      -------------------------------------------------------------
         1        2.0000           -0.6368326             -17.3291
       ...           ...                  ...                  ...
        20        2.0000           -0.4418006             -12.0220
        21        2.0000           -0.4315501             -11.7431
        22        2.0000           -0.4225002             -11.4968
        23        2.0000           -0.4142692             -11.2728
        24        2.0000           -0.3957665             -10.7694
        25        2.0000           -0.3942739             -10.7287
        26        2.0000           -0.3809701             -10.3667 (HOMO)
        27                         -0.2189387              -5.9576 (LUMO)
        28                         -0.2181942              -5.9374
        29                         -0.2017794              -5.4907
        30                         -0.0944957              -2.5714
        31                          0.0891013               2.4246
       ...                                ...                  ...
        52                          0.6279641              17.0878
      -------------------------------------------------------------
                  HL-Gap            0.1620314 Eh            4.4091 eV
             Fermi-level           -0.2999544 Eh           -8.1622 eV

 SCC (total)                   0 d,  0 h,  0 min,  0.220 sec
 SCC setup                      ...        0 min,  0.022 sec (  9.997%)
 Dispersion                     ...        0 min,  0.026 sec ( 11.808%)
 classical contributions        ...        0 min,  0.016 sec (  7.248%)
 integral evaluation            ...        0 min,  0.023 sec ( 10.596%)
 iterations                     ...        0 min,  0.008 sec (  3.517%)
 molecular gradient             ...        0 min,  0.125 sec ( 56.746%)
 printout                       ...        0 min,  0.000 sec (  0.056%)

         :::::::::::::::::::::::::::::::::::::::::::::::::::::
         ::                     SUMMARY                     ::
         :::::::::::::::::::::::::::::::::::::::::::::::::::::
         :: total energy             -27.488785861499 Eh    ::
         :: gradient norm              0.041834842058 Eh/a0 ::
         :: HOMO-LUMO gap              4.409100070253 eV    ::
         ::.................................................::
         :: SCC energy               -27.973942958339 Eh    ::
         :: -> isotropic ES            0.003226160762 Eh    ::
         :: -> anisotropic ES          0.005789029626 Eh    ::
         :: -> anisotropic XC          0.020581364786 Eh    ::
         :: -> dispersion             -0.017319967234 Eh    ::
         :: repulsion energy           0.485145017342 Eh    ::
         :: add. restraining           0.000000000000 Eh    ::
         :: total charge              -0.000000000000 e     ::
         :::::::::::::::::::::::::::::::::::::::::::::::::::::

      ----------------------------------------------------------- 
     |                   =====================                   |
     |                        A N C O P T                        |
     |                   =====================                   |
     |               Approximate Normal Coordinate               |
     |                Rational Function Optimizer                |
      ----------------------------------------------------------- 

          ...................................................
          :                      SETUP                      :
          :.................................................:
          :   optimization level            normal          :
          :   max. optcycles                   200          :
          :   ANC micro-cycles                  20          :
          :   degrees of freedom                60          :
          :.................................................:
          :   RF solver                   davidson          :
          :   write xtbopt.log                true          :
          :   linear?                        false          :
          :   energy convergence         0.5000000E-05 Eh   :
          :   grad. convergence          0.1000000E-02 Eh/α :
          :   maximium RF displ.         1.0000000          :
          :   Hlow (freq-cutoff)         0.1000000E-01      :
          :   Hmax (freq-cutoff)         5.0000000          :
          :   S6 in model hess.         20.0000000          :
          ...................................................

generating ANC from model Hessian ...
Using Lindh-Hessian (1995)
 Shifting diagonal of input Hessian by    8.9101798860696784E-003
 Lowest  eigenvalues of input Hessian
    0.000000    0.000000    0.000000    0.000000    0.000000    0.000000
    0.010000    0.010759    0.011808    0.014607    0.017147    0.021022
    0.021866    0.023291    0.024535    0.030244    0.031140    0.031970
 Highest eigenvalues
    1.511827    1.569142    1.824853    1.856924    1.901547    1.942461


........................................................................
.............................. CYCLE    1 ..............................
........................................................................
   1    -27.9739430 -0.279739E+02  0.134E-04    4.41       0.0  T
   2    -27.9739430 -0.142574E-09  0.926E-05    4.41     230.2  T
   3    -27.9739430 -0.156511E-09  0.347E-05    4.41     614.0  T
     SCC iter.                  ...        0 min,  0.003 sec
     gradient                   ...        0 min,  0.149 sec
 * total energy  :   -27.4887859 Eh     change       -0.1914096E-09 Eh
   gradient norm :     0.0418348 Eh/α   predicted     0.0000000E+00 (-100.00%)
   displ. norm   :     0.1610755 α      lambda       -0.3865292E-02
   maximum displ.:     0.0730609 α      in ANC's #11, #32, #20, ...

........................................................................
.............................. CYCLE    2 ..............................
........................................................................
   1    -28.0028542 -0.280029E+02  0.164E-01    4.51       0.0  T
   2    -28.0028599 -0.571661E-05  0.982E-02    4.51       1.0  T
   3    -28.0028386  0.213108E-04  0.343E-02    4.51       1.0  T
   4    -28.0028623 -0.236965E-04  0.505E-03    4.51       4.2  T
   5    -28.0028627 -0.396316E-06  0.212E-03    4.51      10.1  T
   6    -28.0028627  0.149013E-08  0.959E-04    4.51      22.2  T
   7    -28.0028627 -0.135750E-07  0.214E-04    4.51      99.6  T
     SCC iter.                  ...        0 min,  0.005 sec
     gradient                   ...        0 min,  0.135 sec
 * total energy  :   -27.4911010 Eh     change       -0.2315151E-02 Eh
   gradient norm :     0.0095760 Eh/α   predicted    -0.1982799E-02 ( -14.36%)
   displ. norm   :     0.0916069 α      lambda       -0.3218126E-03
   maximum displ.:     0.0549431 α      in ANC's #4, #1, #11, ...

........................................................................
.............................. CYCLE    3 ..............................
........................................................................
   1    -28.0102185 -0.280102E+02  0.686E-02    4.53       0.0  T
   2    -28.0102192 -0.700384E-06  0.409E-02    4.53       1.0  T
   3    -28.0102170  0.217161E-05  0.107E-02    4.53       2.0  T
   4    -28.0102195 -0.242784E-05  0.189E-03    4.53      11.3  T
   5    -28.0102195 -0.575517E-07  0.758E-04    4.53      28.1  T
   6    -28.0102195  0.604018E-09  0.376E-04    4.53      56.7  T
     SCC iter.                  ...        0 min,  0.009 sec
     gradient                   ...        0 min,  0.119 sec
 * total energy  :   -27.4912699 Eh     change       -0.1688518E-03 Eh
   gradient norm :     0.0031564 Eh/α   predicted    -0.1622593E-03 (  -3.90%)
   displ. norm   :     0.0665401 α      lambda       -0.8570631E-04
   maximum displ.:     0.0388128 α      in ANC's #1, #4, #14, ...

........................................................................
.............................. CYCLE    4 ..............................
........................................................................
   1    -28.0113254 -0.280113E+02  0.423E-02    4.52       0.0  T
   2    -28.0113255 -0.154591E-06  0.252E-02    4.52       1.0  T
   3    -28.0113249  0.573577E-06  0.528E-03    4.52       4.0  T
   4    -28.0113256 -0.656065E-06  0.775E-04    4.52      27.5  T
   5    -28.0113256 -0.650423E-08  0.442E-04    4.52      48.2  T
     SCC iter.                  ...        0 min,  0.004 sec
     gradient                   ...        0 min,  0.148 sec
 * total energy  :   -27.4913107 Eh     change       -0.4087489E-04 Eh
   gradient norm :     0.0022806 Eh/α   predicted    -0.4304564E-04 (   5.31%)
   displ. norm   :     0.0536742 α      lambda       -0.3734874E-04
   maximum displ.:     0.0400168 α      in ANC's #1, #4, #2, ...

........................................................................
.............................. CYCLE    5 ..............................
........................................................................
   1    -28.0102284 -0.280102E+02  0.295E-02    4.52       0.0  T
   2    -28.0102284 -0.347523E-07  0.175E-02    4.52       1.2  T
   3    -28.0102283  0.453121E-07  0.167E-03    4.52      12.8  T
   4    -28.0102284 -0.628072E-07  0.387E-04    4.52      55.1  T
   5    -28.0102284 -0.225668E-09  0.154E-04    4.52     138.2  T
     SCC iter.                  ...        0 min,  0.006 sec
     gradient                   ...        0 min,  0.122 sec
 * total energy  :   -27.4913380 Eh     change       -0.2724426E-04 Eh
   gradient norm :     0.0012056 Eh/α   predicted    -0.1873859E-04 ( -31.22%)
   displ. norm   :     0.0787542 α      lambda       -0.1835696E-04
   maximum displ.:     0.0653324 α      in ANC's #1, #4, #2, ...

........................................................................
.............................. CYCLE    6 ..............................
........................................................................
   1    -28.0090289 -0.280090E+02  0.404E-02    4.51       0.0  T
   2    -28.0090290 -0.519227E-07  0.239E-02    4.51       1.0  T
   3    -28.0090289  0.456955E-07  0.178E-03    4.51      12.0  T
   4    -28.0090290 -0.702408E-07  0.498E-04    4.51      42.9  T
   5    -28.0090290  0.163816E-10  0.261E-04    4.51      81.6  T
     SCC iter.                  ...        0 min,  0.005 sec
     gradient                   ...        0 min,  0.148 sec
 * total energy  :   -27.4913540 Eh     change       -0.1597298E-04 Eh
   gradient norm :     0.0010978 Eh/α   predicted    -0.9208575E-05 ( -42.35%)
   displ. norm   :     0.0789000 α      lambda        0.1686414E-04
   maximum displ.:     0.0655100 α      in ANC's #1, #4, #2, ...

........................................................................
.............................. CYCLE    7 ..............................
........................................................................
   1    -28.0077294 -0.280077E+02  0.404E-02    4.50       0.0  T
   2    -28.0077294 -0.538836E-07  0.239E-02    4.50       1.0  T
   3    -28.0077294  0.457255E-07  0.179E-03    4.50      11.9  T
   4    -28.0077294 -0.708036E-07  0.488E-04    4.50      43.7  T
   5    -28.0077294 -0.196760E-09  0.214E-04    4.50      99.7  T
     SCC iter.                  ...        0 min,  0.004 sec
     gradient                   ...        0 min,  0.120 sec
 * total energy  :   -27.4913461 Eh     change        0.7843727E-05 Eh
   gradient norm :     0.0025336 Eh/α   predicted     0.8455324E-05 (   7.80%)
   displ. norm   :     0.0208752 α      lambda       -0.1744354E-04
   maximum displ.:     0.0164886 α      in ANC's #4, #1, #2, ...

........................................................................
.............................. CYCLE    8 ..............................
........................................................................
   1    -28.0087009 -0.280087E+02  0.145E-02    4.50       0.0  T
   2    -28.0087010 -0.932664E-08  0.862E-03    4.50       2.5  T
   3    -28.0087009  0.278116E-07  0.130E-03    4.50      16.4  T
   4    -28.0087010 -0.330588E-07  0.224E-04    4.50      95.0  T
   5    -28.0087010 -0.165738E-09  0.121E-04    4.50     175.7  T
     SCC iter.                  ...        0 min,  0.008 sec
     gradient                   ...        0 min,  0.125 sec
 * total energy  :   -27.4913596 Eh     change       -0.1353149E-04 Eh
   gradient norm :     0.0014441 Eh/α   predicted    -0.8727479E-05 ( -35.50%)
   displ. norm   :     0.0416076 α      lambda       -0.1652196E-04
   maximum displ.:     0.0350669 α      in ANC's #4, #1, #12, ...

........................................................................
.............................. CYCLE    9 ..............................
........................................................................
   1    -28.0104131 -0.280104E+02  0.257E-02    4.51       0.0  T
   2    -28.0104131 -0.337219E-07  0.152E-02    4.51       1.4  T
   3    -28.0104130  0.192773E-06  0.325E-03    4.51       6.6  T
   4    -28.0104132 -0.218504E-06  0.418E-04    4.51      51.0  T
   5    -28.0104132 -0.836888E-09  0.224E-04    4.51      95.1  T
     SCC iter.                  ...        0 min,  0.008 sec
     gradient                   ...        0 min,  0.144 sec
 * total energy  :   -27.4913702 Eh     change       -0.1052136E-04 Eh
   gradient norm :     0.0007095 Eh/α   predicted    -0.8269939E-05 ( -21.40%)
   displ. norm   :     0.0285025 α      lambda       -0.4013529E-05
   maximum displ.:     0.0263248 α      in ANC's #1, #2, #3, ...

........................................................................
.............................. CYCLE   10 ..............................
........................................................................
   1    -28.0100412 -0.280100E+02  0.118E-02    4.51       0.0  T
   2    -28.0100412 -0.436550E-08  0.693E-03    4.51       3.1  T
   3    -28.0100412  0.521219E-08  0.593E-04    4.51      36.0  T
   4    -28.0100412 -0.727879E-08  0.134E-04    4.51     159.4  T
     SCC iter.                  ...        0 min,  0.003 sec
     gradient                   ...        0 min,  0.151 sec
 * total energy  :   -27.4913755 Eh     change       -0.5343168E-05 Eh
   gradient norm :     0.0003867 Eh/α   predicted    -0.2008167E-05 ( -62.42%)
   displ. norm   :     0.0292435 α      lambda       -0.3211773E-05
   maximum displ.:     0.0271249 α      in ANC's #1, #2, #3, ...

........................................................................
.............................. CYCLE   11 ..............................
........................................................................
   1    -28.0096584 -0.280097E+02  0.121E-02    4.51       0.0  T
   2    -28.0096584 -0.444349E-08  0.708E-03    4.51       3.0  T
   3    -28.0096584  0.816868E-08  0.721E-04    4.51      29.6  T
   4    -28.0096584 -0.105144E-07  0.140E-04    4.51     152.1  T
     SCC iter.                  ...        0 min,  0.003 sec
     gradient                   ...        0 min,  0.005 sec
 * total energy  :   -27.4913796 Eh     change       -0.4068897E-05 Eh
   gradient norm :     0.0003836 Eh/α   predicted    -0.1607915E-05 ( -60.48%)
   displ. norm   :     0.0294198 α      lambda       -0.2891956E-05
   maximum displ.:     0.0246946 α      in ANC's #1, #2, #3, ...

   *** GEOMETRY OPTIMIZATION CONVERGED AFTER 11 ITERATIONS ***

------------------------------------------------------------------------
 total energy gain   :        -0.0025937 Eh       -1.6276 kcal/mol
 total RMSD          :         0.0958172 a0        0.0507 Å
 total power (kW/mol):        -0.6190728 (step)   -2.7616 (real)
------------------------------------------------------------------------

 ANCopt (total)                0 d,  0 h,  0 min,  2.466 sec
 optimizer setup                ...        0 min,  0.000 sec (  0.002%)
 model hessian                  ...        0 min,  0.003 sec (  0.136%)
 ANC generation                 ...        0 min,  0.006 sec (  0.239%)
 coordinate transformation      ...        0 min,  0.000 sec (  0.004%)
 single point calculation       ...        0 min,  2.293 sec ( 92.983%)
 optimization log               ...        0 min,  0.017 sec (  0.672%)
 hessian update                 ...        0 min,  0.146 sec (  5.916%)
 rational function              ...        0 min,  0.001 sec (  0.024%)

================
 final structure:
================
22
 xtb: 6.3.3 (4ae9cef)
C        -3.54681668852766   -0.21220949595013    1.01182464568359
C        -2.14630089981202   -0.19246416505563    0.47763184810693
C        -1.49163130664535   -1.37317522635060    0.15332615530515
C        -0.19555251737038   -1.35637469662217   -0.32958095084316
C         0.48029190342142   -0.15710192926619   -0.50504989093068
C         1.89892846472847   -0.12765216487822   -1.01038986610276
C         2.84787562670537    0.01239345231907    0.14266733400637
C         3.71199664831368    0.99920913992866    0.28371166544060
C        -0.16853416646147    1.02427311355332   -0.16988074604045
C        -1.46363540989974    1.00640899975824    0.31252072392672
H        -3.53112271216276   -0.28458811893210    2.10007302668053
H        -4.07705975182148    0.69879112787558    0.74331501881263
H        -4.09696483480208   -1.06765309953915    0.62603727335572
H        -2.00346210009281   -2.31746540159229    0.27678729557031
H         0.29295981568785   -2.28801934454768   -0.57997214987674
H         2.11571594451448   -1.05918378703630   -1.54067913165373
H         2.03520778458064    0.70636404673688   -1.70164346041216
H         2.77147910915399   -0.76289239946707    0.89419818454311
H         4.37264951677648    1.06390165654888    1.13155371199792
H         3.80115027798734    1.78430361506362   -0.44975744167481
H         0.34699928362078    1.96632238456813   -0.29228394361628
H        -1.95417598789467    1.93681329288523    0.56248569772115

 Bond Distances (Angstroems)
 ---------------------------
C1-C2=1.4991         C1-H11=1.0908        C1-H12=1.0877        C1-H13=1.0878        C2-C1=1.4991         C2-C3=1.3885         
C2-C10=1.3895        C3-C2=1.3885         C3-C4=1.3832         C3-H14=1.0812        C4-C3=1.3832         C4-C5=1.3877         
C4-H15=1.0813        C5-C4=1.3877         C5-C6=1.5062         C5-C9=1.3889         C6-C5=1.5062         C6-C7=1.4999         
C6-H16=1.0936        C6-H17=1.0918        C7-C6=1.4999         C7-C8=1.3192         C7-H18=1.0825        C8-C7=1.3192         
C8-H19=1.0768        C8-H20=1.0781        C9-C5=1.3889         C9-C10=1.3821        C9-H21=1.0808        C10-C2=1.3895        
C10-C9=1.3821        C10-H22=1.0811       H11-C1=1.0908        H12-C1=1.0877        H13-C1=1.0878        H14-C3=1.0812        
H15-C4=1.0813        H16-C6=1.0936        H17-C6=1.0918        H18-C7=1.0825        H19-C8=1.0768        H20-C8=1.0781        
H21-C9=1.0808        H22-C10=1.0811       
 C  H  Rav=1.0845 sigma=0.0054  Rmin=1.0768  Rmax=1.0936    12
 C  C  Rav=1.4144 sigma=0.0605  Rmin=1.3192  Rmax=1.5062    10

 selected bond angles (degree)
 --------------------
H11-C1-C2=110.06               H12-C1-C2=110.88               H12-C1-H11=107.99              H13-C1-C2=110.88               
H13-C1-H11=107.99              H13-C1-H12=108.94              C3-C2-C1=120.83                C10-C2-C1=120.85               
C10-C2-C3=118.31               C4-C3-C2=120.86                H14-C3-C2=119.53               H14-C3-C4=119.61               
C5-C4-C3=120.73                H15-C4-C3=119.58               H15-C4-C5=119.69               C6-C5-C4=121.20                
C9-C5-C4=118.49                C9-C5-C6=120.29                C7-C6-C5=109.86                H16-C6-C5=109.43               
H16-C6-C7=109.08               H17-C6-C5=110.18               H17-C6-C7=109.66               H17-C6-H16=108.60              
C8-C7-C6=124.50                H18-C7-C6=114.97               H18-C7-C8=120.51               H19-C8-C7=122.07               
H20-C8-C7=121.75               H20-C8-H19=116.18              C10-C9-C5=120.73               H21-C9-C5=119.42               
H21-C9-C10=119.85              C9-C10-C2=120.86               H22-C10-C2=119.48              H22-C10-C9=119.65              

 selected dihedral angles (degree)
 ---------------------------------
C3-C2-C1-H11= 89.58           C3-C2-C1-H12=209.00           C3-C2-C1-H13=330.15           C10-C2-C1-H11=270.50          
C10-C2-C1-H12= 29.92          C10-C2-C1-H13=151.08          C4-C3-C2-C1=180.52            C4-C3-C2-C10=359.61           
H14-C3-C2-C1=  0.74           H14-C3-C2-C10=179.83          C5-C4-C3-C2=359.81            C5-C4-C3-H14=179.59           
H15-C4-C3-C2=180.28           H15-C4-C3-H14=  0.06          C6-C5-C4-C3=179.06            C6-C5-C4-H15=358.59           
C9-C5-C4-C3=  0.75            C9-C5-C4-H15=180.28           C7-C6-C5-C4=261.74            C7-C6-C5-C9= 80.02            
H16-C6-C5-C4= 21.48           H16-C6-C5-C9=199.76           H17-C6-C5-C4=140.82           H17-C6-C5-C9=319.10           
C8-C7-C6-C5=238.65            C8-C7-C6-H16=118.70           C8-C7-C6-H17=359.89           H18-C7-C6-C5= 57.60           
H18-C7-C6-H16=297.64          H18-C7-C6-H17=178.83          H19-C8-C7-C6=179.67           H19-C8-C7-H18=  0.79          
H20-C8-C7-C6=359.21           H20-C8-C7-H18=180.32          C10-C9-C5-C4=359.25           C10-C9-C5-C6=180.92           
H21-C9-C5-C4=179.46           H21-C9-C5-C6=  1.13           C9-C10-C2-C1=179.48           C9-C10-C2-C3=  0.38           
H22-C10-C2-C1=359.31          H22-C10-C2-C3=180.21          C2-C10-C9-C5=  0.19           C2-C10-C9-H21=179.97          
H22-C10-C9-C5=180.36          H22-C10-C9-H21=  0.14         
           -------------------------------------------------
          |                Final Singlepoint                |
           -------------------------------------------------

          ...................................................
          :                      SETUP                      :
          :.................................................:
          :  # basis functions                  52          :
          :  # atomic orbitals                  52          :
          :  # shells                           32          :
          :  # electrons                        52          :
          :  max. iterations                   250          :
          :  Hamiltonian                  GFN2-xTB          :
          :  restarted?                      false          :
          :  GBSA solvation                  false          :
          :  PC potential                    false          :
          :  electronic temp.          300.0000000     K    :
          :  accuracy                    1.0000000          :
          :  -> integral cutoff          0.2500000E+02      :
          :  -> integral neglect         0.1000000E-07      :
          :  -> SCF convergence          0.1000000E-05 Eh   :
          :  -> wf. convergence          0.1000000E-03 e    :
          :  Broyden damping             0.4000000          :
          ...................................................

 iter      E             dE          RMSdq      gap      omega  full diag
   1    -28.0096584 -0.280097E+02  0.857E-05    4.51       0.0  T
   2    -28.0096584 -0.204281E-10  0.637E-05    4.51     334.9  T
   3    -28.0096584 -0.623110E-10  0.297E-05    4.51     717.7  T

   *** convergence criteria satisfied after 3 iterations ***

         #    Occupation            Energy/Eh            Energy/eV
      -------------------------------------------------------------
         1        2.0000           -0.6401488             -17.4193
       ...           ...                  ...                  ...
        20        2.0000           -0.4435792             -12.0704
        21        2.0000           -0.4306808             -11.7194
        22        2.0000           -0.4232662             -11.5177
        23        2.0000           -0.4132516             -11.2451
        24        2.0000           -0.3982102             -10.8359
        25        2.0000           -0.3964386             -10.7876
        26        2.0000           -0.3818152             -10.3897 (HOMO)
        27                         -0.2161536              -5.8818 (LUMO)
        28                         -0.2151250              -5.8539
        29                         -0.1956314              -5.3234
        30                         -0.0869210              -2.3652
        31                          0.1013370               2.7575
       ...                                ...                  ...
        52                          0.6629068              18.0386
      -------------------------------------------------------------
                  HL-Gap            0.1656617 Eh            4.5079 eV
             Fermi-level           -0.2989844 Eh           -8.1358 eV

 SCC (total)                   0 d,  0 h,  0 min,  0.161 sec
 SCC setup                      ...        0 min,  0.000 sec (  0.047%)
 Dispersion                     ...        0 min,  0.000 sec (  0.107%)
 classical contributions        ...        0 min,  0.000 sec (  0.032%)
 integral evaluation            ...        0 min,  0.021 sec ( 13.025%)
 iterations                     ...        0 min,  0.002 sec (  1.501%)
 molecular gradient             ...        0 min,  0.137 sec ( 85.210%)
 printout                       ...        0 min,  0.000 sec (  0.058%)

         :::::::::::::::::::::::::::::::::::::::::::::::::::::
         ::                     SUMMARY                     ::
         :::::::::::::::::::::::::::::::::::::::::::::::::::::
         :: total energy             -27.491379577606 Eh    ::
         :: gradient norm              0.000384096598 Eh/a0 ::
         :: HOMO-LUMO gap              4.507883370291 eV    ::
         ::.................................................::
         :: SCC energy               -28.009658414900 Eh    ::
         :: -> isotropic ES            0.003337266859 Eh    ::
         :: -> anisotropic ES          0.005369548676 Eh    ::
         :: -> anisotropic XC          0.019571707104 Eh    ::
         :: -> dispersion             -0.017507442829 Eh    ::
         :: repulsion energy           0.518264418503 Eh    ::
         :: add. restraining           0.000000000000 Eh    ::
         :: total charge              -0.000000000000 e     ::
         :::::::::::::::::::::::::::::::::::::::::::::::::::::

           -------------------------------------------------
          |                Property Printout                |
           -------------------------------------------------

    * Orbital Energies and Occupations

         #    Occupation            Energy/Eh            Energy/eV
      -------------------------------------------------------------
         1        2.0000           -0.6401488             -17.4193
       ...           ...                  ...                  ...
        14        2.0000           -0.4901079             -13.3365
        15        2.0000           -0.4807986             -13.0832
        16        2.0000           -0.4711138             -12.8197
        17        2.0000           -0.4708652             -12.8129
        18        2.0000           -0.4587663             -12.4837
        19        2.0000           -0.4534712             -12.3396
        20        2.0000           -0.4435792             -12.0704
        21        2.0000           -0.4306808             -11.7194
        22        2.0000           -0.4232662             -11.5177
        23        2.0000           -0.4132516             -11.2451
        24        2.0000           -0.3982102             -10.8359
        25        2.0000           -0.3964386             -10.7876
        26        2.0000           -0.3818152             -10.3897 (HOMO)
        27                         -0.2161536              -5.8818 (LUMO)
        28                         -0.2151250              -5.8539
        29                         -0.1956314              -5.3234
        30                         -0.0869210              -2.3652
        31                          0.1013370               2.7575
        32                          0.1102050               2.9988
        33                          0.1282249               3.4892
        34                          0.1372704               3.7353
        35                          0.1545184               4.2047
        36                          0.1634247               4.4470
        37                          0.1708582               4.6493
       ...                                ...                  ...
        52                          0.6629068              18.0386
      -------------------------------------------------------------
                  HL-Gap            0.1656617 Eh            4.5079 eV
             Fermi-level           -0.2989844 Eh           -8.1358 eV

     #   Z          covCN         q      C6AA      α(0)
     1   6 C        3.757    -0.108    22.615     6.780
     2   6 C        2.966     0.013    27.712     8.635
     3   6 C        2.924    -0.041    29.026     8.835
     4   6 C        2.923    -0.040    28.989     8.830
     5   6 C        2.974     0.011    27.763     8.643
     6   6 C        3.812    -0.063    21.691     6.629
     7   6 C        2.890    -0.022    28.551     8.760
     8   6 C        2.837    -0.095    30.371     9.031
     9   6 C        2.924    -0.039    28.974     8.827
    10   6 C        2.924    -0.041    29.016     8.834
    11   1 H        0.924     0.045     2.378     2.412
    12   1 H        0.925     0.041     2.435     2.440
    13   1 H        0.925     0.041     2.435     2.440
    14   1 H        0.926     0.027     2.623     2.533
    15   1 H        0.925     0.027     2.631     2.536
    16   1 H        0.924     0.043     2.406     2.426
    17   1 H        0.924     0.043     2.414     2.430
    18   1 H        0.925     0.031     2.576     2.510
    19   1 H        0.926     0.033     2.537     2.491
    20   1 H        0.926     0.035     2.513     2.479
    21   1 H        0.926     0.029     2.600     2.522
    22   1 H        0.926     0.028     2.619     2.531

 Mol. C6AA /au·bohr⁶  :       5084.313687
 Mol. C8AA /au·bohr⁸  :     120639.933027
 Mol. α(0) /au        :        113.553919


Wiberg/Mayer (AO) data.
largest (>0.10) Wiberg bond orders for each atom

 ---------------------------------------------------------------------------
     #   Z sym  total        # sym  WBO       # sym  WBO       # sym  WBO
 ---------------------------------------------------------------------------
     1   6 C    3.996 --     2 C    1.025    13 H    0.982    12 H    0.982
                            11 H    0.968
     2   6 C    3.988 --     3 C    1.413    10 C    1.407     1 C    1.025
                             5 C    0.106
     3   6 C    3.991 --     4 C    1.446     2 C    1.413    14 H    0.970
                             9 C    0.109
     4   6 C    3.991 --     3 C    1.446     5 C    1.413    15 H    0.969
                            10 C    0.108
     5   6 C    3.988 --     4 C    1.413     9 C    1.407     6 C    0.995
                             2 C    0.106
     6   6 C    3.997 --     7 C    1.010     5 C    0.995    17 H    0.969
                            16 H    0.959
     7   6 C    3.990 --     8 C    1.976     6 C    1.010    18 H    0.967
     8   6 C    3.989 --     7 C    1.976    19 H    0.976    20 H    0.975
     9   6 C    3.992 --    10 C    1.453     5 C    1.407    21 H    0.970
                             3 C    0.109
    10   6 C    3.992 --     9 C    1.453     2 C    1.407    22 H    0.970
                             4 C    0.108
    11   1 H    0.997 --     1 C    0.968
    12   1 H    0.998 --     1 C    0.982
    13   1 H    0.998 --     1 C    0.982
    14   1 H    0.999 --     3 C    0.970
    15   1 H    0.999 --     4 C    0.969
    16   1 H    0.998 --     6 C    0.959
    17   1 H    0.998 --     6 C    0.969
    18   1 H    0.999 --     7 C    0.967
    19   1 H    0.998 --     8 C    0.976
    20   1 H    0.999 --     8 C    0.975
    21   1 H    0.999 --     9 C    0.970
    22   1 H    0.999 --    10 C    0.970
 ---------------------------------------------------------------------------

Topologies differ in total number of bonds
Writing topology from bond orders to xtbtopo.mol

molecular dipole:
                 x           y           z       tot (Debye)
 q only:       -0.153      -0.042      -0.026
   full:       -0.164      -0.051       0.000       0.437
molecular quadrupole (traceless):
                xx          xy          yy          xz          yz          zz
 q only:        1.082      -0.081      -0.263      -1.714      -0.099      -0.819
  q+dip:        0.741       0.905       2.870      -2.737      -0.453      -3.610
   full:        0.623       0.189       1.002      -2.021      -0.314      -1.625

           -------------------------------------------------
          |                Geometry Summary                 |
           -------------------------------------------------

      molecular mass/u    :      132.2026480
   center of mass at/Å    :       -0.0061071      -0.0313509       0.0468181
  moments of inertia/u·Å² :        0.1366186E+03   0.7262158E+03   0.7991642E+03
rotational constants/cm⁻¹ :        0.1233919E+00   0.2321298E-01   0.2109408E-01

 * 19 selected distances

     #   Z          #   Z                                           value/Å
     2   6 C        3   6 C                                       1.3884686
     3   6 C        4   6 C                                       1.3832215
     4   6 C        5   6 C                                       1.3877356
     7   6 C        8   6 C                                       1.3192437
     5   6 C        9   6 C                                       1.3888703
     2   6 C       10   6 C                                       1.3894570 (max)
     9   6 C       10   6 C                                       1.3821424
     1   6 C       11   1 H                                       1.0907656
     1   6 C       12   1 H                                       1.0877395
     1   6 C       13   1 H                                       1.0877861
     3   6 C       14   1 H                                       1.0811556
     4   6 C       15   1 H                                       1.0813426
     6   6 C       16   1 H                                       1.0935971
     6   6 C       17   1 H                                       1.0917814
     7   6 C       18   1 H                                       1.0824524
     8   6 C       19   1 H                                       1.0767931 (min)
     8   6 C       20   1 H                                       1.0780995
     9   6 C       21   1 H                                       1.0808395
    10   6 C       22   1 H                                       1.0810942

 * 2 distinct bonds (by element types)

   Z      Z             #   av. dist./Å        max./Å        min./Å
   1 H    6 C          12     1.0844539     1.0935971     1.0767931
   6 C    6 C           7     1.3770199     1.3894570     1.3192437


optimized geometry written to: xtbopt.xyz


           -------------------------------------------------
          | TOTAL ENERGY              -27.491379577606 Eh   |
          | GRADIENT NORM               0.000384096598 Eh/α |
          | HOMO-LUMO GAP               4.507883370291 eV   |
           -------------------------------------------------

------------------------------------------------------------------------
 * finished run on 2022/03/17 at 02:19:23.397     
------------------------------------------------------------------------
 total:
 * wall-time:     0 d,  0 h,  0 min,  2.984 sec
 *  cpu-time:     0 d,  0 h,  1 min, 36.022 sec
 * ratio c/w:    32.182 speedup
 SCF:
 * wall-time:     0 d,  0 h,  0 min,  0.220 sec
 *  cpu-time:     0 d,  0 h,  0 min,  7.283 sec
 * ratio c/w:    33.096 speedup
 ANC optimizer:
 * wall-time:     0 d,  0 h,  0 min,  2.628 sec
 *  cpu-time:     0 d,  0 h,  1 min, 24.657 sec
 * ratio c/w:    32.214 speedup

