22
 energy: -27.488785861690 gnorm: 0.041834800712 xtb: 6.3.3 (4ae9cef)
C        -3.58070400000000   -0.22007900000000    0.99972900000000
C        -2.18110500000000   -0.19318700000000    0.46170000000000
C        -1.51615800000000   -1.38538800000000    0.15455700000000
C        -0.20072100000000   -1.36320400000000   -0.31597100000000
C         0.47501200000000   -0.14757400000000   -0.48296500000000
C         1.90103800000000   -0.11984100000000   -0.97851300000000
C         2.89354100000000    0.00808400000000    0.14270400000000
C         3.78441200000000    1.00223300000000    0.25535000000000
C        -0.18514200000000    1.04355300000000   -0.15345700000000
C        -1.50019200000000    1.02046000000000    0.31723200000000
H        -3.56064500000000   -0.29404400000000    2.09135700000000
H        -4.12575200000000    0.68638400000000    0.71603800000000
H        -4.13766500000000   -1.07265900000000    0.59707200000000
H        -2.01836100000000   -2.34178200000000    0.28093800000000
H         0.29444200000000   -2.30322900000000   -0.54822500000000
H         2.11672500000000   -1.04056500000000   -1.53495400000000
H         2.01111300000000    0.69770600000000   -1.70252700000000
H         2.87344300000000   -0.77009100000000    0.90318600000000
H         4.47426100000000    1.03544400000000    1.09311200000000
H         3.84424400000000    1.80188100000000   -0.47617400000000
H         0.32675700000000    1.99786400000000   -0.25587300000000
H        -1.98854500000000    1.95803500000000    0.57257900000000
22
 energy: -27.491101012360 gnorm: 0.009576032679 xtb: 6.3.3 (4ae9cef)
C        -3.57355027452432   -0.21924265968012    0.99311661620484
C        -2.16759382638169   -0.19398227029309    0.47081211183559
C        -1.50471704704252   -1.37452131705518    0.15745020626751
C        -0.19882752818359   -1.35310805141595   -0.30750498712410
C         0.47760253206198   -0.15003948497345   -0.47294447487335
C         1.89710900771856   -0.11772321505537   -0.98305567202519
C         2.88041446102369    0.01782682067590    0.13951684813031
C         3.76110035792659    0.99777359900117    0.25539902393781
C        -0.18088947849887    1.03021402437990   -0.14665968554282
C        -1.48639022550000    1.00823329746559    0.31813649678761
H        -3.56493191640446   -0.29279832967441    2.08106297869607
H        -4.11039812319461    0.68919446616885    0.71995893610622
H        -4.12296808169352   -1.07506440669486    0.60082890479102
H        -2.01221903816534   -2.32345707037504    0.27290746396275
H         0.29264179461066   -2.28646399853137   -0.54983681867901
H         2.10783565673765   -1.04744828502960   -1.52441761314824
H         2.01999548713119    0.71344274586917   -1.68502140799195
H         2.84682466585368   -0.76117993112110    0.89176435909863
H         4.45729783657664    1.03046612523567    1.07856841977901
H         3.83266783730272    1.78915989310800   -0.47396825463741
H         0.32850166926611    1.97820843765597   -0.26013578523969
H        -1.97950776662057    1.94051061033935    0.56091733366437
22
 energy: -27.491269864183 gnorm: 0.003156356925 xtb: 6.3.3 (4ae9cef)
C        -3.56794043650728   -0.21821124300170    0.99290362120067
C        -2.16055338005546   -0.19387245172746    0.47631034125039
C        -1.49833161798510   -1.37181175549926    0.16006440338035
C        -0.19695255265133   -1.35087876665785   -0.30760479623629
C         0.47863752426167   -0.15079050066624   -0.47530477133731
C         1.89512889458808   -0.11848317027993   -0.98929423384914
C         2.87491251849873    0.01473006223519    0.13642449279579
C         3.75447899211461    0.99064906611675    0.25362924929668
C        -0.17768814070351    1.02725694855272   -0.14669979088952
C        -1.47872368332021    1.00567241414460    0.32022322040824
H        -3.56414519422380   -0.29169699976842    2.08082188058903
H        -4.09887608206818    0.69126579146979    0.71995391855819
H        -4.11183355919100   -1.07499890103663    0.60077625073835
H        -2.00838038875610   -2.31802244292602    0.27353295566218
H         0.29459509605975   -2.28194318970902   -0.55305993754645
H         2.10249813479250   -1.04965189093047   -1.52583831602011
H         2.02137207265607    0.71666913317224   -1.68253319530660
H         2.82243604456163   -0.76097561153240    0.89001761764846
H         4.43524537607885    1.04231614047555    1.08609148801759
H         3.82477496707152    1.78468354970285   -0.47122102436415
H         0.33322881256386    1.97231670442425   -0.26320034352054
H        -1.97388539778526    1.93577811344148    0.56090196952418
22
 energy: -27.491310739068 gnorm: 0.002280630396 xtb: 6.3.3 (4ae9cef)
C        -3.56368215509541   -0.21739047381645    0.99452918903442
C        -2.15637447960470   -0.19386627664666    0.47891085725918
C        -1.49488307929812   -1.37186622608972    0.16110847556054
C        -0.19547290996745   -1.35151875070186   -0.30999585941643
C         0.47917558152264   -0.15166018521806   -0.48066761533177
C         1.89458915580428   -0.11923499682491   -0.99485816477377
C         2.86507150175191    0.01583739517670    0.13983299153501
C         3.74018841204509    0.99445366173198    0.26248035067425
C        -0.17538438382240    1.02665013582793   -0.14949181697496
C        -1.47423159761864    1.00542364732367    0.32090765785356
H        -3.56164553393821   -0.29067834281664    2.08275006948550
H        -4.09195847740958    0.69258200015221    0.72076523345018
H        -4.10560287864698   -1.07430580808525    0.60184118684159
H        -2.00590141004318   -2.31706865031646    0.27660790556484
H         0.29644827277055   -2.28182805807335   -0.55702202211634
H         2.10353861224952   -1.04981679659006   -1.52993954807763
H         2.02246124141059    0.71761229990711   -1.68409344089645
H         2.80553877419047   -0.76266481897984    0.88977816442352
H         4.42613269680636    1.04609074993054    1.09026406672237
H         3.82447946652719    1.77825069780844   -0.47274875447493
H         0.33723792993491    1.97035891746207   -0.26751704757772
H        -1.96972673956881    1.93464087883862    0.56345312123502
22
 energy: -27.491337983329 gnorm: 0.001205562039 xtb: 6.3.3 (4ae9cef)
C        -3.56037119093488   -0.21654824929140    0.99686935276204
C        -2.15364146299780   -0.19363587460447    0.47996561182433
C        -1.49308958718298   -1.37255534384454    0.16138488414224
C        -0.19442777010712   -1.35271174858673   -0.31292522223859
C         0.47975831713688   -0.15227112724806   -0.48584882864533
C         1.89509931193188   -0.12041416466486   -0.99966133867429
C         2.86096267388038    0.01375302869806    0.14008157890929
C         3.73544332702493    0.99318682303520    0.26537661277353
C        -0.17334389376060    1.02701849158494   -0.15248220749838
C        -1.47130389096702    1.00612791916166    0.32115512291763
H        -3.55834911712920   -0.28969526973332    2.08526697410953
H        -4.08828009758536    0.69358624624293    0.72256331246386
H        -4.10275492298308   -1.07315684879301    0.60389034834079
H        -2.00429289103580   -2.31760110408838    0.27987245092381
H         0.29751134681358   -2.28304653983426   -0.56095235706938
H         2.10528892988945   -1.05032336879339   -1.53484607081724
H         2.02460018350662    0.71642914421786   -1.68822573461794
H         2.79295033053864   -0.76282749135760    0.89144974666848
H         4.41404818431597    1.05224664048156    1.09939813841414
H         3.81999948877452    1.77700211152496   -0.47029492961364
H         0.34046488023516    1.97024321702604   -0.27169655957845
H        -1.96627414936412    1.93519450886684    0.56655411450354
22
 energy: -27.491353956312 gnorm: 0.001097797841 xtb: 6.3.3 (4ae9cef)
C        -3.55521018532204   -0.21507662222851    1.00122436143029
C        -2.14976174754968   -0.19334094134327    0.48047402008646
C        -1.49118555435561   -1.37347421090501    0.16079118558308
C        -0.19373201167566   -1.35448024532986   -0.31855082911180
C         0.47989201143953   -0.15360522093083   -0.49454132168712
C         1.89623501775379   -0.12234751268843   -1.00573508886923
C         2.85463890697942    0.01223618759920    0.14102181443198
C         3.72709045229669    0.99320961125690    0.27119272469716
C        -0.17081109982059    1.02683016677642   -0.15830506575913
C        -1.46735036399854    1.00672479491968    0.32049162181784
H        -3.55136646207730   -0.28797650594849    2.08958022654645
H        -4.08393413078350    0.69524006616469    0.72714187429259
H        -4.10020488523075   -1.07094420437290    0.60888794022315
H        -2.00228575946467   -2.31846355434286    0.28346505591891
H         0.29782803049959   -2.28515433344580   -0.56710793473729
H         2.10971697451062   -1.05156117344239   -1.54120966260018
H         2.02888682266033    0.71395321610157   -1.69473191440266
H         2.77816706876637   -0.76208219828105    0.89353996608901
H         4.39567314574418    1.05931318460398    1.11338119256319
H         3.81374602999212    1.77555612943485   -0.46611606449703
H         0.34453691788739    1.96946364585065   -0.27828330945391
H        -1.96057117825164    1.93598072055152    0.57028420743820
22
 energy: -27.491346112584 gnorm: 0.002533643792 xtb: 6.3.3 (4ae9cef)
C        -3.55003719262807   -0.21360305744072    1.00559522508075
C        -2.14587752906445   -0.19304486267814    0.48097894270159
C        -1.48927980489162   -1.37439241980785    0.16019011748650
C        -0.19303740311415   -1.35624922598862   -0.32419159080725
C         0.48002464647815   -0.15494045851140   -0.50325229695091
C         1.89737319428567   -0.12428331441298   -1.01181680915415
C         2.84830470358139    0.01071643922687    0.14196553890858
C         3.71872165453433    0.99323253231725    0.27702757564983
C        -0.16827884625251    1.02664165982354   -0.16414947458456
C        -1.46339463951449    1.00732268595394    0.31981379202864
H        -3.54435627165243   -0.28625272182424    2.09390929184705
H        -4.07958033209161    0.69689493529185    0.73174177297637
H        -4.09764786270706   -1.06873116872420    0.61391185844673
H        -2.00027562071089   -2.31932509402401    0.28705681000346
H         0.29814289889798   -2.28726322674918   -0.57327740548981
H         2.11415235916655   -1.05280169681010   -1.54757891315274
H         2.03318291901669    0.71147518905951   -1.70124459519536
H         2.76336541812023   -0.76134135397310    0.89563194137834
H         4.37726986756113    1.06638004494177    1.12739299725903
H         3.80748229969272    1.77411395616834   -0.46191383722447
H         0.34860799102020    1.96868356798313   -0.28489625929710
H        -1.95486444972766    1.93676859017840    0.57400031808943
22
 energy: -27.491359644073 gnorm: 0.001444147632 xtb: 6.3.3 (4ae9cef)
C        -3.55077634400153   -0.21380026826499    1.00537647584130
C        -2.14684586845559   -0.19308080356942    0.48028127213983
C        -1.49004276798658   -1.37388012492456    0.15925792158873
C        -0.19356736630613   -1.35570880308424   -0.32341635752513
C         0.47995917510341   -0.15495093952129   -0.50115546497098
C         1.89720002742274   -0.12414243462473   -1.00993892624099
C         2.84954129199631    0.01166740370829    0.14188218129938
C         3.71961698934588    0.99424793857387    0.27667780056224
C        -0.16900112535689    1.02614849258759   -0.16344884222911
C        -1.46441735575062    1.00685963437135    0.31879210299279
H        -3.54411625766222   -0.28644667517692    2.09363339405415
H        -4.08015230849547    0.69675438495207    0.73228429745225
H        -4.09806468856440   -1.06918909076710    0.61444833322245
H        -2.00105666181001   -2.31870191086457    0.28453136463109
H         0.29728087909500   -2.28668619003257   -0.57252207287057
H         2.11319865877108   -1.05334397018847   -1.54482928946443
H         2.03231021220449    0.71168080188603   -1.69936625717508
H         2.76791295779263   -0.76130248329621    0.89497588113707
H         4.38157141623668    1.06340648220025    1.12386487560588
H         3.80839496684774    1.77576807978365   -0.46122015541842
H         0.34716186431773    1.96832778310687   -0.28432558543808
H        -1.95610969474419    1.93637369314518    0.57111205080558
22
 energy: -27.491370165437 gnorm: 0.000709482049 xtb: 6.3.3 (4ae9cef)
C        -3.55047842671783   -0.21356019727820    1.00752375560396
C        -2.14808071593940   -0.19295603931875    0.47851601850938
C        -1.49174678545316   -1.37289340229065    0.15588110943808
C        -0.19516131248850   -1.35512613614954   -0.32469144848036
C         0.47982582046654   -0.15569750199508   -0.49972385096144
C         1.89752883519767   -0.12502023839865   -1.00721280484347
C         2.85076256223006    0.01344982495973    0.14201297406058
C         3.71850012788428    0.99741633992829    0.27861243980692
C        -0.17007654430650    1.02475851430354   -0.16499801385808
C        -1.46574677090565    1.00599018990129    0.31505115029795
H        -3.53893125645354   -0.28606516962752    2.09568842004730
H        -4.07992408489949    0.69724639099895    0.73724405787025
H        -4.09834031075281   -1.06938741140254    0.61965853866043
H        -2.00313901018680   -2.31738525087129    0.27769969278145
H         0.29434506283070   -2.28631148640750   -0.57421297433274
H         2.11277433282368   -1.05606006602193   -1.53913873088344
H         2.03195751452858    0.71021486619019   -1.69734781971664
H         2.77637574803456   -0.76194253643725    0.89350443263272
H         4.38378604191744    1.05967177775906    1.12253575679813
H         3.80836772144760    1.78055172501824   -0.45678406465137
H         0.34476667653592    1.96711780893601   -0.28640373443733
H        -1.95736722579325    1.93598899820369    0.56348009565770
22
 energy: -27.491375508605 gnorm: 0.000386716192 xtb: 6.3.3 (4ae9cef)
C        -3.54867448361333   -0.21288926074708    1.00963871494150
C        -2.14720112352753   -0.19271270561405    0.47808144619253
C        -1.49169314871540   -1.37303559190349    0.15461964098351
C        -0.19535455153524   -1.35574917058714   -0.32710209364289
C         0.48006119226548   -0.15639725795311   -0.50234483929757
C         1.89822303769676   -0.12633066584642   -1.00878285861937
C         2.84934225638094    0.01292899069923    0.14233271479155
C         3.71528349496195    0.99831342528231    0.28112061253430
C        -0.16930436097174    1.02451591333339   -0.16739097729101
C        -1.46469627162700    1.00619707012737    0.31381756361757
H        -3.53508836361549   -0.28533800299781    2.09784528635596
H        -4.07850934350804    0.69801639383332    0.74023206874744
H        -4.09766814021668   -1.06852126263831    0.62278920890761
H        -2.00330758675781   -2.31742708455134    0.27724440069418
H         0.29365608151653   -2.28716278090537   -0.57706131524952
H         2.11422849016630   -1.05761609304675   -1.53989520338309
H         2.03356116905894    0.70829428489294   -1.69948035272353
H         2.77396966350566   -0.76240714423548    0.89384733800657
H         4.37828304132524    1.06178436345115    1.12697853077771
H         3.80478258228785    1.78241945163652   -0.45332296099830
H         0.34588466219795    1.96672093229952   -0.28928509194895
H        -1.95578029727524    1.93639719547070    0.56301316660375
22
 energy: -27.491379577503 gnorm: 0.000383645066 xtb: 6.3.3 (4ae9cef)
C        -3.54681668852766   -0.21220949595013    1.01182464568359
C        -2.14630089981202   -0.19246416505563    0.47763184810693
C        -1.49163130664535   -1.37317522635060    0.15332615530515
C        -0.19555251737038   -1.35637469662217   -0.32958095084316
C         0.48029190342142   -0.15710192926619   -0.50504989093068
C         1.89892846472847   -0.12765216487822   -1.01038986610276
C         2.84787562670537    0.01239345231907    0.14266733400637
C         3.71199664831368    0.99920913992866    0.28371166544060
C        -0.16853416646147    1.02427311355332   -0.16988074604045
C        -1.46363540989974    1.00640899975824    0.31252072392672
H        -3.53112271216276   -0.28458811893210    2.10007302668053
H        -4.07705975182148    0.69879112787558    0.74331501881263
H        -4.09696483480208   -1.06765309953915    0.62603727335572
H        -2.00346210009281   -2.31746540159229    0.27678729557031
H         0.29295981568785   -2.28801934454768   -0.57997214987674
H         2.11571594451448   -1.05918378703630   -1.54067913165373
H         2.03520778458064    0.70636404673688   -1.70164346041216
H         2.77147910915399   -0.76289239946707    0.89419818454311
H         4.37264951677648    1.06390165654888    1.13155371199792
H         3.80115027798734    1.78430361506362   -0.44975744167481
H         0.34699928362078    1.96632238456813   -0.29228394361628
H        -1.95417598789467    1.93681329288523    0.56248569772115
