      -----------------------------------------------------------      
     |                   =====================                   |     
     |                           x T B                           |     
     |                   =====================                   |     
     |                         S. Grimme                         |     
     |          Mulliken Center for Theoretical Chemistry        |     
     |                    University of Bonn                     |     
      -----------------------------------------------------------      

   * xtb version 6.3.3 (4ae9cef) compiled by 'conda@95abc7406d43' on 2020-10-14

   xtb is free software: you can redistribute it and/or modify it under
   the terms of the GNU Lesser General Public License as published by
   the Free Software Foundation, either version 3 of the License, or
   (at your option) any later version.
   
   xtb is distributed in the hope that it will be useful,
   but WITHOUT ANY WARRANTY; without even the implied warranty of
   MERCHANTABILITY or FITNESS FOR A PARTICULAR PURPOSE.  See the
   GNU Lesser General Public License for more details.
   
   Cite this work as:
   * C. Bannwarth, E. Caldeweyher, S. Ehlert, A. Hansen, P. Pracht,
     J. Seibert, S. Spicher, S. Grimme, WIREs Comput. Mol. Sci., 2020,
     e01493. DOI: 10.1002/wcms.1493
   
   for GFN2-xTB:
   * S. Grimme, C. Bannwarth, P. Shushkov, J. Chem. Theory Comput., 2017,
     13, 1989-2009. DOI: 10.1021/acs.jctc.7b00118
   for GFN1-xTB:
   * C. Bannwarth, S. Ehlert and S. Grimme., J. Chem. Theory Comput., 2019,
     15, 1652-1671. DOI: 10.1021/acs.jctc.8b01176
   for GFN0-xTB:
   * P. Pracht, E. Caldeweyher, S. Ehlert, S. Grimme, ChemRxiv, 2019, preprint.
     DOI: 10.26434/chemrxiv.8326202.v1
   for GFN-FF:
   * S. Spicher and S. Grimme, Angew. Chem. Int. Ed., 2020, 59, 15665-15673.
     DOI: 10.1002/anie.202004239
   
   for DFT-D4:
   * E. Caldeweyher, C. Bannwarth and S. Grimme, J. Chem. Phys., 2017,
     147, 034112. DOI: 10.1063/1.4993215
   * E. Caldeweyher, S. Ehlert, A. Hansen, H. Neugebauer, S. Spicher,
     C. Bannwarth and S. Grimme, J. Chem. Phys., 2019, 150, 154122.
     DOI: 10.1063/1.5090222
   * E. Caldeweyher, J.-M. Mewes, S. Ehlert and S. Grimme, Phys. Chem. Chem. Phys.
     2020, 22, 8499-8512. DOI: 10.1039/D0CP00502A
   
   for sTDA-xTB:
   * S. Grimme and C. Bannwarth, J. Chem. Phys., 2016, 145, 054103.
     DOI: 10.1063/1.4959605
   
   in the mass-spec context:
   * V. Asgeirsson, C. Bauer and S. Grimme, Chem. Sci., 2017, 8, 4879.
     DOI: 10.1039/c7sc00601b
   * J. Koopman and S. Grimme, ACS Omega 2019, 4, 12, 15120-15133.
     DOI: 10.1021/acsomega.9b02011
   
   for metadynamics refer to:
   * S. Grimme, J. Chem. Theory Comput., 2019, 155, 2847-2862
     DOI: 10.1021/acs.jctc.9b00143
   
   with help from (in alphabetical order)
   C. Bannwarth, F. Bohle, G. Brandenburg, E. Caldeweyher, M. Checinski,
   S. Dohm, S. Ehlert, S. Ehrlich, F. März, H. Neugebauer, J. Pisarek,
   P. Pracht, P. Shushkov, and S. Spicher.
   
 * started run on 2022/03/16 at 22:28:08.795     

           -------------------------------------------------
          |                Calculation Setup                |
           -------------------------------------------------

          program call               : xtb acid_204.xyz --opt --chrg 0 --uhf 0 --gfn 2
          coordinate file            : acid_204.xyz
          omp threads                :                    64
          number of atoms            :                    66
          number of electrons        :                   230
          charge                     :                     0
          spin                       :                   0.0
          first test random number   :      0.14487968111185

   ID    Z sym.   atoms
    1    6 C      1, 2, 6-15, 19-22, 24-26, 28-30, 32, 33, 37-39, 41-43
    2    9 F      3-5, 16-18
    3    7 N      23, 36
    4    8 O      27, 31, 34, 35, 40, 44
    5    1 H      45-66

           -------------------------------------------------
          |                 G F N 2 - x T B                 |
           -------------------------------------------------

        Reference                      10.1021/acs.jctc.8b01176
      * Hamiltonian:
        H0-scaling (s, p, d)           1.850000    2.230000    2.230000
        zeta-weighting                 0.500000
      * Dispersion:
        s8                             2.700000
        a1                             0.520000
        a2                             5.000000
        s9                             5.000000
      * Repulsion:
        kExp                           1.500000    1.000000
        rExp                           1.000000
      * Coulomb:
        alpha                          2.000000
        third order                    shell-resolved
        anisotropic                    true
        a3                             3.000000
        a5                             4.000000
        cn-shift                       1.200000
        cn-exp                         4.000000
        max-rad                        5.000000


          ...................................................
          :                      SETUP                      :
          :.................................................:
          :  # basis functions                 198          :
          :  # atomic orbitals                 198          :
          :  # shells                          110          :
          :  # electrons                       230          :
          :  max. iterations                   250          :
          :  Hamiltonian                  GFN2-xTB          :
          :  restarted?                      false          :
          :  GBSA solvation                  false          :
          :  PC potential                    false          :
          :  electronic temp.          300.0000000     K    :
          :  accuracy                    1.0000000          :
          :  -> integral cutoff          0.2500000E+02      :
          :  -> integral neglect         0.1000000E-07      :
          :  -> SCF convergence          0.1000000E-05 Eh   :
          :  -> wf. convergence          0.1000000E-03 e    :
          :  Broyden damping             0.4000000          :
          ...................................................

 iter      E             dE          RMSdq      gap      omega  full diag
   1   -135.2559060 -0.135256E+03  0.457E+00    3.30       0.0  T
   2   -135.4995634 -0.243657E+00  0.266E+00    3.06       1.0  T
   3   -135.5090756 -0.951218E-02  0.139E+00    3.29       1.0  T
   4   -135.5257946 -0.167189E-01  0.376E-01    2.88       1.0  T
   5   -135.5339221 -0.812752E-02  0.101E-01    2.81       1.0  T
   6   -135.5341297 -0.207596E-03  0.496E-02    2.86       1.0  T
   7   -135.5341871 -0.574089E-04  0.187E-02    2.84       1.0  T
   8   -135.5341877 -0.594382E-06  0.837E-03    2.85       1.5  T
   9   -135.5341911 -0.343702E-05  0.324E-03    2.85       3.8  T
  10   -135.5341913 -0.151783E-06  0.125E-03    2.85       9.9  T
  11   -135.5341913 -0.458988E-07  0.487E-04    2.85      25.3  T
  12   -135.5341913 -0.302134E-08  0.263E-04    2.85      46.7  T

   *** convergence criteria satisfied after 12 iterations ***

         #    Occupation            Energy/Eh            Energy/eV
      -------------------------------------------------------------
         1        2.0000           -0.8690469             -23.6480
       ...           ...                  ...                  ...
       109        2.0000           -0.4293493             -11.6832
       110        2.0000           -0.4196602             -11.4195
       111        2.0000           -0.4153269             -11.3016
       112        2.0000           -0.4098217             -11.1518
       113        2.0000           -0.4085998             -11.1186
       114        2.0000           -0.4008805             -10.9085
       115        2.0000           -0.3945493             -10.7362 (HOMO)
       116                         -0.2897392              -7.8842 (LUMO)
       117                         -0.2724143              -7.4128
       118                         -0.2681461              -7.2966
       119                         -0.2629878              -7.1563
       120                         -0.2585656              -7.0359
       ...                                ...                  ...
       198                          0.6543471              17.8057
      -------------------------------------------------------------
                  HL-Gap            0.1048101 Eh            2.8520 eV
             Fermi-level           -0.3421442 Eh           -9.3102 eV

 SCC (total)                   0 d,  0 h,  0 min,  0.514 sec
 SCC setup                      ...        0 min,  0.016 sec (  3.074%)
 Dispersion                     ...        0 min,  0.021 sec (  4.056%)
 classical contributions        ...        0 min,  0.016 sec (  3.102%)
 integral evaluation            ...        0 min,  0.094 sec ( 18.339%)
 iterations                     ...        0 min,  0.231 sec ( 44.853%)
 molecular gradient             ...        0 min,  0.118 sec ( 22.934%)
 printout                       ...        0 min,  0.019 sec (  3.625%)

         :::::::::::::::::::::::::::::::::::::::::::::::::::::
         ::                     SUMMARY                     ::
         :::::::::::::::::::::::::::::::::::::::::::::::::::::
         :: total energy            -134.149551377442 Eh    ::
         :: gradient norm              0.121660171934 Eh/a0 ::
         :: HOMO-LUMO gap              2.852028320592 eV    ::
         ::.................................................::
         :: SCC energy              -135.534191312637 Eh    ::
         :: -> isotropic ES            0.221949263878 Eh    ::
         :: -> anisotropic ES          0.002717500932 Eh    ::
         :: -> anisotropic XC         -0.001849802281 Eh    ::
         :: -> dispersion             -0.089169160938 Eh    ::
         :: repulsion energy           1.381097612946 Eh    ::
         :: add. restraining           0.000000000000 Eh    ::
         :: total charge               0.000000000000 e     ::
         :::::::::::::::::::::::::::::::::::::::::::::::::::::

      ----------------------------------------------------------- 
     |                   =====================                   |
     |                        A N C O P T                        |
     |                   =====================                   |
     |               Approximate Normal Coordinate               |
     |                Rational Function Optimizer                |
      ----------------------------------------------------------- 

          ...................................................
          :                      SETUP                      :
          :.................................................:
          :   optimization level            normal          :
          :   max. optcycles                   200          :
          :   ANC micro-cycles                  20          :
          :   degrees of freedom               192          :
          :.................................................:
          :   RF solver                   davidson          :
          :   write xtbopt.log                true          :
          :   linear?                        false          :
          :   energy convergence         0.5000000E-05 Eh   :
          :   grad. convergence          0.1000000E-02 Eh/α :
          :   maximium RF displ.         1.0000000          :
          :   Hlow (freq-cutoff)         0.1000000E-01      :
          :   Hmax (freq-cutoff)         5.0000000          :
          :   S6 in model hess.         20.0000000          :
          ...................................................

generating ANC from model Hessian ...
Using Lindh-Hessian (1995)
 Shifting diagonal of input Hessian by    9.8556797161721658E-003
 Lowest  eigenvalues of input Hessian
    0.000000    0.000000    0.000000    0.000000    0.000000    0.000000
    0.010000    0.010103    0.010206    0.010400    0.010446    0.010572
    0.010726    0.011109    0.011227    0.011660    0.011834    0.012204
 Highest eigenvalues
    1.927682    2.014993    2.019033    2.199235    2.263102    2.281185


........................................................................
.............................. CYCLE    1 ..............................
........................................................................
   1   -135.5341913 -0.135534E+03  0.999E-05    2.85       0.0  T
   2   -135.5341913 -0.138385E-09  0.664E-05    2.85     185.4  T
   3   -135.5341913 -0.940190E-10  0.416E-05    2.85     296.0  T
     SCC iter.                  ...        0 min,  0.060 sec
     gradient                   ...        0 min,  0.109 sec
 * total energy  :  -134.1495514 Eh     change       -0.1916391E-08 Eh
   gradient norm :     0.1216620 Eh/α   predicted     0.0000000E+00 (-100.00%)
   displ. norm   :     0.3694127 α      lambda       -0.2296308E-01
   maximum displ.:     0.1097036 α      in ANC's #56, #22, #43, ...

........................................................................
.............................. CYCLE    2 ..............................
........................................................................
   1   -135.6233016 -0.135623E+03  0.165E-01    3.14       0.0  T
   2   -135.6234575 -0.155842E-03  0.103E-01    3.09       1.0  T
   3   -135.6234081  0.493667E-04  0.563E-02    3.08       1.0  T
   4   -135.6235279 -0.119757E-03  0.108E-02    3.08       1.1  T
   5   -135.6235332 -0.530496E-05  0.330E-03    3.08       3.7  T
   6   -135.6235333 -0.153569E-06  0.179E-03    3.08       6.9  T
   7   -135.6235333 -0.226431E-07  0.717E-04    3.08      17.2  T
   8   -135.6235334 -0.199231E-07  0.296E-04    3.08      41.6  T
     SCC iter.                  ...        0 min,  0.155 sec
     gradient                   ...        0 min,  0.130 sec
 * total energy  :  -134.1656247 Eh     change       -0.1607335E-01 Eh
   gradient norm :     0.0475234 Eh/α   predicted    -0.1304838E-01 ( -18.82%)
   displ. norm   :     0.3653023 α      lambda       -0.7812854E-02
   maximum displ.:     0.1682401 α      in ANC's #22, #21, #43, ...

........................................................................
.............................. CYCLE    3 ..............................
........................................................................
   1   -135.6694537 -0.135669E+03  0.129E-01    3.21       0.0  T
   2   -135.6695445 -0.907810E-04  0.816E-02    3.18       1.0  T
   3   -135.6695137  0.307577E-04  0.427E-02    3.18       1.0  T
   4   -135.6695845 -0.708140E-04  0.781E-03    3.18       1.6  T
   5   -135.6695874 -0.284009E-05  0.232E-03    3.17       5.3  T
   6   -135.6695875 -0.658179E-07  0.124E-03    3.18       9.9  T
   7   -135.6695875 -0.129296E-07  0.481E-04    3.18      25.6  T
   8   -135.6695875 -0.836198E-08  0.209E-04    3.18      59.0  T
     SCC iter.                  ...        0 min,  0.154 sec
     gradient                   ...        0 min,  0.135 sec
 * total energy  :  -134.1704067 Eh     change       -0.4781937E-02 Eh
   gradient norm :     0.0137981 Eh/α   predicted    -0.4427726E-02 (  -7.41%)
   displ. norm   :     0.2815057 α      lambda       -0.1647992E-02
   maximum displ.:     0.1394346 α      in ANC's #22, #21, #30, ...

........................................................................
.............................. CYCLE    4 ..............................
........................................................................
   1   -135.6746235 -0.135675E+03  0.876E-02    3.19       0.0  T
   2   -135.6746450 -0.215183E-04  0.527E-02    3.18       1.0  T
   3   -135.6746310  0.140629E-04  0.187E-02    3.18       1.0  T
   4   -135.6746493 -0.183740E-04  0.451E-03    3.18       2.7  T
   5   -135.6746507 -0.131513E-05  0.143E-03    3.18       8.6  T
   6   -135.6746507 -0.170005E-07  0.733E-04    3.18      16.8  T
   7   -135.6746507 -0.562895E-08  0.223E-04    3.18      55.2  T
     SCC iter.                  ...        0 min,  0.136 sec
     gradient                   ...        0 min,  0.134 sec
 * total energy  :  -134.1715840 Eh     change       -0.1177376E-02 Eh
   gradient norm :     0.0102772 Eh/α   predicted    -0.8893315E-03 ( -24.46%)
   displ. norm   :     0.3358361 α      lambda       -0.1100690E-02
   maximum displ.:     0.1330904 α      in ANC's #22, #20, #8, ...

........................................................................
.............................. CYCLE    5 ..............................
........................................................................
   1   -135.6743139 -0.135674E+03  0.105E-01    3.18       0.0  T
   2   -135.6743308 -0.169986E-04  0.620E-02    3.17       1.0  T
   3   -135.6743156  0.152711E-04  0.181E-02    3.18       1.0  T
   4   -135.6743346 -0.189817E-04  0.440E-03    3.17       2.8  T
   5   -135.6743357 -0.111298E-05  0.168E-03    3.17       7.3  T
   6   -135.6743357 -0.125030E-07  0.791E-04    3.17      15.6  T
   7   -135.6743357 -0.990136E-08  0.240E-04    3.17      51.3  T
     SCC iter.                  ...        0 min,  0.136 sec
     gradient                   ...        0 min,  0.160 sec
 * total energy  :  -134.1723402 Eh     change       -0.7561814E-03 Eh
   gradient norm :     0.0096031 Eh/α   predicted    -0.6124181E-03 ( -19.01%)
   displ. norm   :     0.3014868 α      lambda       -0.6142919E-03
   maximum displ.:     0.1331880 α      in ANC's #20, #8, #11, ...

........................................................................
.............................. CYCLE    6 ..............................
........................................................................
   1   -135.6729900 -0.135673E+03  0.960E-02    3.17       0.0  T
   2   -135.6729963 -0.635323E-05  0.568E-02    3.17       1.0  T
   3   -135.6729823  0.140210E-04  0.161E-02    3.17       1.0  T
   4   -135.6729994 -0.170951E-04  0.284E-03    3.17       4.3  T
   5   -135.6729996 -0.211113E-06  0.154E-03    3.17       8.0  T
   6   -135.6729996 -0.108206E-07  0.602E-04    3.17      20.4  T
   7   -135.6729996 -0.650365E-08  0.196E-04    3.17      62.9  T
     SCC iter.                  ...        0 min,  0.142 sec
     gradient                   ...        0 min,  0.133 sec
 * total energy  :  -134.1727863 Eh     change       -0.4460907E-03 Eh
   gradient norm :     0.0102169 Eh/α   predicted    -0.3350674E-03 ( -24.89%)
   displ. norm   :     0.3494646 α      lambda       -0.5771392E-03
   maximum displ.:     0.1633327 α      in ANC's #20, #8, #3, ...

........................................................................
.............................. CYCLE    7 ..............................
........................................................................
   1   -135.6727418 -0.135673E+03  0.102E-01    3.19       0.0  T
   2   -135.6727529 -0.110143E-04  0.599E-02    3.19       1.0  T
   3   -135.6727378  0.150130E-04  0.177E-02    3.19       1.0  T
   4   -135.6727565 -0.186265E-04  0.356E-03    3.19       3.5  T
   5   -135.6727569 -0.466134E-06  0.167E-03    3.19       7.4  T
   6   -135.6727569 -0.169410E-07  0.850E-04    3.19      14.5  T
   7   -135.6727570 -0.896253E-08  0.227E-04    3.19      54.2  T
     SCC iter.                  ...        0 min,  0.142 sec
     gradient                   ...        0 min,  0.139 sec
 * total energy  :  -134.1732172 Eh     change       -0.4309274E-03 Eh
   gradient norm :     0.0091977 Eh/α   predicted    -0.3238469E-03 ( -24.85%)
   displ. norm   :     0.4067860 α      lambda       -0.6046018E-03
   maximum displ.:     0.1687309 α      in ANC's #20, #3, #8, ...

........................................................................
.............................. CYCLE    8 ..............................
........................................................................
   1   -135.6732447 -0.135673E+03  0.112E-01    3.19       0.0  T
   2   -135.6732521 -0.742738E-05  0.664E-02    3.20       1.0  T
   3   -135.6732333  0.188381E-04  0.190E-02    3.20       1.0  T
   4   -135.6732564 -0.230658E-04  0.306E-03    3.20       4.0  T
   5   -135.6732565 -0.142178E-06  0.175E-03    3.20       7.0  T
   6   -135.6732565 -0.198904E-07  0.674E-04    3.20      18.3  T
   7   -135.6732565 -0.547095E-08  0.217E-04    3.20      56.6  T
     SCC iter.                  ...        0 min,  0.135 sec
     gradient                   ...        0 min,  0.121 sec
 * total energy  :  -134.1736862 Eh     change       -0.4689711E-03 Eh
   gradient norm :     0.0118608 Eh/α   predicted    -0.3523295E-03 ( -24.87%)
   displ. norm   :     0.4782499 α      lambda       -0.7511355E-03
   maximum displ.:     0.2078990 α      in ANC's #3, #8, #2, ...

........................................................................
.............................. CYCLE    9 ..............................
........................................................................
   1   -135.6763060 -0.135676E+03  0.110E-01    3.27       0.0  T
   2   -135.6763206 -0.146251E-04  0.642E-02    3.26       1.0  T
   3   -135.6763032  0.174214E-04  0.193E-02    3.26       1.0  T
   4   -135.6763247 -0.214914E-04  0.397E-03    3.26       3.1  T
   5   -135.6763253 -0.609619E-06  0.174E-03    3.26       7.1  T
   6   -135.6763253 -0.174167E-07  0.912E-04    3.26      13.5  T
   7   -135.6763253 -0.799091E-08  0.228E-04    3.26      54.0  T
     SCC iter.                  ...        0 min,  0.136 sec
     gradient                   ...        0 min,  0.133 sec
 * total energy  :  -134.1742321 Eh     change       -0.5458484E-03 Eh
   gradient norm :     0.0103267 Eh/α   predicted    -0.4614693E-03 ( -15.46%)
   displ. norm   :     0.6308970 α      lambda       -0.7837530E-03
   maximum displ.:     0.2758351 α      in ANC's #3, #8, #20, ...

........................................................................
.............................. CYCLE   10 ..............................
........................................................................
   1   -135.6713254 -0.135671E+03  0.161E-01    3.13       0.0  T
   2   -135.6713533 -0.279136E-04  0.951E-02    3.16       1.0  T
   3   -135.6713176  0.357150E-04  0.280E-02    3.15       1.0  T
   4   -135.6713631 -0.455507E-04  0.535E-03    3.16       2.3  T
   5   -135.6713640 -0.858508E-06  0.288E-03    3.16       4.3  T
   6   -135.6713641 -0.921736E-07  0.119E-03    3.16      10.4  T
   7   -135.6713641 -0.775759E-08  0.347E-04    3.16      35.5  T
   8   -135.6713641 -0.423020E-08  0.148E-04    3.16      83.1  T
     SCC iter.                  ...        0 min,  0.153 sec
     gradient                   ...        0 min,  0.144 sec
 * total energy  :  -134.1746383 Eh     change       -0.4062651E-03 Eh
   gradient norm :     0.0220999 Eh/α   predicted    -0.5478635E-03 (  34.85%)
   displ. norm   :     0.2983618 α      lambda       -0.8036395E-03
   maximum displ.:     0.1556109 α      in ANC's #3, #4, #2, ...

........................................................................
.............................. CYCLE   11 ..............................
........................................................................
   1   -135.6782729 -0.135678E+03  0.543E-02    3.27       0.0  T
   2   -135.6782970 -0.240767E-04  0.328E-02    3.25       1.0  T
   3   -135.6782983 -0.135033E-05  0.171E-02    3.26       1.0  T
   4   -135.6783023 -0.400810E-05  0.370E-03    3.25       3.3  T
   5   -135.6783030 -0.666757E-06  0.134E-03    3.25       9.2  T
   6   -135.6783030 -0.340232E-07  0.707E-04    3.25      17.4  T
   7   -135.6783030 -0.293420E-08  0.260E-04    3.25      47.4  T
     SCC iter.                  ...        0 min,  0.136 sec
     gradient                   ...        0 min,  0.133 sec
 * total energy  :  -134.1751291 Eh     change       -0.4908141E-03 Eh
   gradient norm :     0.0109624 Eh/α   predicted    -0.4376133E-03 ( -10.84%)
   displ. norm   :     0.5272140 α      lambda       -0.6451575E-03
   maximum displ.:     0.2647715 α      in ANC's #3, #8, #2, ...

........................................................................
.............................. CYCLE   12 ..............................
........................................................................
   1   -135.6752927 -0.135675E+03  0.107E-01    3.30       0.0  T
   2   -135.6753265 -0.338310E-04  0.622E-02    3.28       1.0  T
   3   -135.6753128  0.136684E-04  0.214E-02    3.28       1.0  T
   4   -135.6753296 -0.167269E-04  0.630E-03    3.28       2.0  T
   5   -135.6753320 -0.244223E-05  0.165E-03    3.28       7.5  T
   6   -135.6753320 -0.174451E-07  0.904E-04    3.28      13.6  T
   7   -135.6753320 -0.447722E-08  0.382E-04    3.28      32.3  T
     SCC iter.                  ...        0 min,  0.136 sec
     gradient                   ...        0 min,  0.133 sec
 * total energy  :  -134.1755747 Eh     change       -0.4455719E-03 Eh
   gradient norm :     0.0094190 Eh/α   predicted    -0.4122505E-03 (  -7.48%)
   displ. norm   :     0.6027824 α      lambda       -0.6221762E-03
   maximum displ.:     0.3061571 α      in ANC's #3, #2, #4, ...

........................................................................
.............................. CYCLE   13 ..............................
........................................................................
   1   -135.6727350 -0.135673E+03  0.113E-01    3.21       0.0  T
   2   -135.6727607 -0.256788E-04  0.665E-02    3.22       1.0  T
   3   -135.6727375  0.232336E-04  0.253E-02    3.21       1.0  T
   4   -135.6727683 -0.308053E-04  0.484E-03    3.22       2.5  T
   5   -135.6727693 -0.106970E-05  0.209E-03    3.22       5.9  T
   6   -135.6727694 -0.637701E-07  0.110E-03    3.22      11.2  T
   7   -135.6727694 -0.707428E-08  0.325E-04    3.22      37.8  T
   8   -135.6727694 -0.336783E-08  0.133E-04    3.22      92.7  T
     SCC iter.                  ...        0 min,  0.157 sec
     gradient                   ...        0 min,  0.144 sec
 * total energy  :  -134.1759943 Eh     change       -0.4196065E-03 Eh
   gradient norm :     0.0128733 Eh/α   predicted    -0.4241300E-03 (   1.08%)
   displ. norm   :     0.4934433 α      lambda       -0.6132523E-03
   maximum displ.:     0.2695822 α      in ANC's #3, #2, #4, ...

........................................................................
.............................. CYCLE   14 ..............................
........................................................................
   1   -135.6743708 -0.135674E+03  0.851E-02    3.24       0.0  T
   2   -135.6743903 -0.194939E-04  0.503E-02    3.24       1.0  T
   3   -135.6743810  0.923823E-05  0.186E-02    3.25       1.0  T
   4   -135.6743932 -0.121129E-04  0.458E-03    3.24       2.7  T
   5   -135.6743943 -0.111528E-05  0.147E-03    3.24       8.4  T
   6   -135.6743943 -0.401716E-07  0.790E-04    3.24      15.6  T
   7   -135.6743943 -0.322902E-08  0.228E-04    3.24      54.0  T
     SCC iter.                  ...        0 min,  0.136 sec
     gradient                   ...        0 min,  0.110 sec
 * total energy  :  -134.1764357 Eh     change       -0.4413719E-03 Eh
   gradient norm :     0.0096627 Eh/α   predicted    -0.3812875E-03 ( -13.61%)
   displ. norm   :     0.5069041 α      lambda       -0.4943475E-03
   maximum displ.:     0.2926612 α      in ANC's #3, #2, #4, ...

........................................................................
.............................. CYCLE   15 ..............................
........................................................................
   1   -135.6784211 -0.135678E+03  0.798E-02    3.30       0.0  T
   2   -135.6784320 -0.108931E-04  0.471E-02    3.29       1.0  T
   3   -135.6784184  0.136363E-04  0.170E-02    3.29       1.0  T
   4   -135.6784353 -0.169405E-04  0.318E-03    3.29       3.9  T
   5   -135.6784358 -0.492733E-06  0.126E-03    3.29       9.7  T
   6   -135.6784358 -0.163263E-07  0.614E-04    3.29      20.0  T
   7   -135.6784358 -0.147352E-08  0.204E-04    3.29      60.2  T
     SCC iter.                  ...        0 min,  0.136 sec
     gradient                   ...        0 min,  0.144 sec
 * total energy  :  -134.1767803 Eh     change       -0.3446533E-03 Eh
   gradient norm :     0.0095267 Eh/α   predicted    -0.3106913E-03 (  -9.85%)
   displ. norm   :     0.6762917 α      lambda       -0.4873654E-03
   maximum displ.:     0.3821485 α      in ANC's #3, #2, #4, ...

........................................................................
.............................. CYCLE   16 ..............................
........................................................................
   1   -135.6710651 -0.135671E+03  0.121E-01    3.22       0.0  T
   2   -135.6710803 -0.151223E-04  0.714E-02    3.24       1.0  T
   3   -135.6710512  0.290858E-04  0.245E-02    3.24       1.0  T
   4   -135.6710868 -0.355815E-04  0.386E-03    3.24       3.2  T
   5   -135.6710873 -0.520770E-06  0.184E-03    3.24       6.7  T
   6   -135.6710873 -0.218056E-07  0.855E-04    3.24      14.4  T
   7   -135.6710873 -0.692239E-08  0.273E-04    3.24      45.2  T
     SCC iter.                  ...        0 min,  0.156 sec
     gradient                   ...        0 min,  0.132 sec
 * total energy  :  -134.1770882 Eh     change       -0.3078451E-03 Eh
   gradient norm :     0.0102789 Eh/α   predicted    -0.3551389E-03 (  15.36%)
   displ. norm   :     0.4309964 α      lambda       -0.4538131E-03
   maximum displ.:     0.2632916 α      in ANC's #3, #2, #4, ...

........................................................................
.............................. CYCLE   17 ..............................
........................................................................
   1   -135.6780654 -0.135678E+03  0.673E-02    3.26       0.0  T
   2   -135.6780708 -0.537238E-05  0.395E-02    3.26       1.0  T
   3   -135.6780619  0.885993E-05  0.139E-02    3.26       1.0  T
   4   -135.6780727 -0.107901E-04  0.229E-03    3.26       5.4  T
   5   -135.6780729 -0.192580E-06  0.101E-03    3.26      12.2  T
   6   -135.6780729 -0.544551E-08  0.488E-04    3.26      25.2  T
   7   -135.6780729 -0.318340E-08  0.167E-04    3.26      73.8  T
     SCC iter.                  ...        0 min,  0.137 sec
     gradient                   ...        0 min,  0.161 sec
 * total energy  :  -134.1773976 Eh     change       -0.3094454E-03 Eh
   gradient norm :     0.0078245 Eh/α   predicted    -0.2690614E-03 ( -13.05%)
   displ. norm   :     0.5648869 α      lambda       -0.4018215E-03
   maximum displ.:     0.3548688 α      in ANC's #3, #2, #4, ...

........................................................................
.............................. CYCLE   18 ..............................
........................................................................
   1   -135.6778041 -0.135678E+03  0.878E-02    3.29       0.0  T
   2   -135.6778113 -0.720667E-05  0.515E-02    3.29       1.0  T
   3   -135.6777955  0.158348E-04  0.181E-02    3.29       1.0  T
   4   -135.6778145 -0.190164E-04  0.246E-03    3.29       5.0  T
   5   -135.6778147 -0.180149E-06  0.117E-03    3.29      10.5  T
   6   -135.6778147 -0.973128E-08  0.567E-04    3.29      21.7  T
   7   -135.6778147 -0.262233E-08  0.214E-04    3.29      57.6  T
     SCC iter.                  ...        0 min,  0.136 sec
     gradient                   ...        0 min,  0.138 sec
 * total energy  :  -134.1777072 Eh     change       -0.3095314E-03 Eh
   gradient norm :     0.0058050 Eh/α   predicted    -0.2650214E-03 ( -14.38%)
   displ. norm   :     0.6297929 α      lambda       -0.3845734E-03
   maximum displ.:     0.4024212 α      in ANC's #3, #2, #4, ...

........................................................................
.............................. CYCLE   19 ..............................
........................................................................
   1   -135.6772009 -0.135677E+03  0.952E-02    3.28       0.0  T
   2   -135.6772101 -0.922907E-05  0.557E-02    3.28       1.0  T
   3   -135.6771978  0.123411E-04  0.160E-02    3.28       1.0  T
   4   -135.6772126 -0.148429E-04  0.330E-03    3.28       3.7  T
   5   -135.6772131 -0.499147E-06  0.136E-03    3.28       9.0  T
   6   -135.6772131 -0.211334E-07  0.718E-04    3.28      17.1  T
   7   -135.6772131 -0.412240E-08  0.187E-04    3.28      65.9  T
     SCC iter.                  ...        0 min,  0.138 sec
     gradient                   ...        0 min,  0.122 sec
 * total energy  :  -134.1780159 Eh     change       -0.3087082E-03 Eh
   gradient norm :     0.0063621 Eh/α   predicted    -0.2685560E-03 ( -13.01%)
   displ. norm   :     0.5849199 α      lambda       -0.4507606E-03
   maximum displ.:     0.3698585 α      in ANC's #3, #2, #4, ...

........................................................................
.............................. CYCLE   20 ..............................
........................................................................
   1   -135.6814777 -0.135681E+03  0.868E-02    3.33       0.0  T
   2   -135.6814868 -0.909968E-05  0.514E-02    3.32       1.0  T
   3   -135.6814817  0.509801E-05  0.123E-02    3.33       1.0  T
   4   -135.6814887 -0.701663E-05  0.232E-03    3.32       5.3  T
   5   -135.6814889 -0.200237E-06  0.123E-03    3.32      10.0  T
   6   -135.6814890 -0.291445E-07  0.549E-04    3.32      22.4  T
   7   -135.6814890 -0.413897E-08  0.163E-04    3.32      75.6  T
     SCC iter.                  ...        0 min,  0.139 sec
     gradient                   ...        0 min,  0.130 sec
 * total energy  :  -134.1783116 Eh     change       -0.2957398E-03 Eh
   gradient norm :     0.0081736 Eh/α   predicted    -0.3024928E-03 (   2.28%)
   displ. norm   :     0.6750909 α      lambda       -0.3986048E-03
   maximum displ.:     0.4303976 α      in ANC's #3, #2, #4, ...
 * RMSD in coord.:     0.9825349 α      energy gain  -0.2876023E-01 Eh

generating ANC from model Hessian ...
Using Lindh-Hessian (1995)
 Shifting diagonal of input Hessian by    9.8710162899370013E-003
 Lowest  eigenvalues of input Hessian
    0.000000    0.000000    0.000000    0.000000    0.000000    0.000000
    0.010000    0.010126    0.010268    0.010485    0.010497    0.010604
    0.010806    0.011142    0.011305    0.011426    0.011808    0.012142
 Highest eigenvalues
    2.026988    2.054369    2.056543    2.327648    2.360770    2.371580


........................................................................
.............................. CYCLE   21 ..............................
........................................................................
   1   -135.6739453 -0.135674E+03  0.101E-01    3.25       0.0  T
   2   -135.6739556 -0.103366E-04  0.594E-02    3.27       1.0  T
   3   -135.6739421  0.135146E-04  0.176E-02    3.26       1.0  T
   4   -135.6739591 -0.169902E-04  0.320E-03    3.27       3.8  T
   5   -135.6739595 -0.400498E-06  0.156E-03    3.27       7.9  T
   6   -135.6739595 -0.237018E-07  0.646E-04    3.27      19.1  T
   7   -135.6739595 -0.383218E-08  0.203E-04    3.27      60.5  T
     SCC iter.                  ...        0 min,  0.140 sec
     gradient                   ...        0 min,  0.133 sec
 * total energy  :  -134.1785629 Eh     change       -0.2512764E-03 Eh
   gradient norm :     0.0099465 Eh/α   predicted     0.0000000E+00 (-100.00%)
   displ. norm   :     0.0706934 α      lambda       -0.1884360E-03
   maximum displ.:     0.0380443 α      in ANC's #12, #3, #7, ...

........................................................................
.............................. CYCLE   22 ..............................
........................................................................
   1   -135.6787228 -0.135679E+03  0.189E-02    3.30       0.0  T
   2   -135.6787252 -0.232690E-05  0.116E-02    3.30       1.1  T
   3   -135.6787246  0.547861E-06  0.596E-03    3.29       2.1  T
   4   -135.6787257 -0.105182E-05  0.139E-03    3.30       8.9  T
   5   -135.6787258 -0.971538E-07  0.386E-04    3.29      31.9  T
   6   -135.6787258 -0.404157E-08  0.189E-04    3.29      65.3  T
     SCC iter.                  ...        0 min,  0.118 sec
     gradient                   ...        0 min,  0.159 sec
 * total energy  :  -134.1786974 Eh     change       -0.1345365E-03 Eh
   gradient norm :     0.0032853 Eh/α   predicted    -0.9476655E-04 ( -29.56%)
   displ. norm   :     0.1262002 α      lambda       -0.1332065E-03
   maximum displ.:     0.0698858 α      in ANC's #12, #3, #7, ...

........................................................................
.............................. CYCLE   23 ..............................
........................................................................
   1   -135.6819643 -0.135682E+03  0.257E-02    3.32       0.0  T
   2   -135.6819662 -0.187108E-05  0.155E-02    3.31       1.0  T
   3   -135.6819642  0.201091E-05  0.723E-03    3.31       1.7  T
   4   -135.6819668 -0.268804E-05  0.117E-03    3.31      10.5  T
   5   -135.6819669 -0.596050E-07  0.436E-04    3.31      28.2  T
   6   -135.6819669 -0.344625E-08  0.211E-04    3.31      58.5  T
     SCC iter.                  ...        0 min,  0.119 sec
     gradient                   ...        0 min,  0.153 sec
 * total energy  :  -134.1787911 Eh     change       -0.9372580E-04 Eh
   gradient norm :     0.0034790 Eh/α   predicted    -0.6766461E-04 ( -27.81%)
   displ. norm   :     0.1728099 α      lambda       -0.1065901E-03
   maximum displ.:     0.0987183 α      in ANC's #12, #3, #7, ...

........................................................................
.............................. CYCLE   24 ..............................
........................................................................
   1   -135.6826403 -0.135683E+03  0.340E-02    3.32       0.0  T
   2   -135.6826415 -0.120874E-05  0.202E-02    3.32       1.0  T
   3   -135.6826383  0.313176E-05  0.765E-03    3.32       1.6  T
   4   -135.6826421 -0.379311E-05  0.989E-04    3.32      12.4  T
   5   -135.6826422 -0.247447E-07  0.491E-04    3.32      25.1  T
   6   -135.6826422 -0.256080E-08  0.209E-04    3.32      58.9  T
     SCC iter.                  ...        0 min,  0.123 sec
     gradient                   ...        0 min,  0.115 sec
 * total energy  :  -134.1788775 Eh     change       -0.8640020E-04 Eh
   gradient norm :     0.0049113 Eh/α   predicted    -0.5488667E-04 ( -36.47%)
   displ. norm   :     0.2584238 α      lambda       -0.1442194E-03
   maximum displ.:     0.1417527 α      in ANC's #12, #3, #7, ...

........................................................................
.............................. CYCLE   25 ..............................
........................................................................
   1   -135.6814381 -0.135681E+03  0.514E-02    3.32       0.0  T
   2   -135.6814403 -0.212128E-05  0.304E-02    3.32       1.0  T
   3   -135.6814345  0.575723E-05  0.106E-02    3.32       1.2  T
   4   -135.6814414 -0.694322E-05  0.140E-03    3.32       8.8  T
   5   -135.6814415 -0.478491E-07  0.713E-04    3.32      17.3  T
   6   -135.6814415 -0.339506E-08  0.276E-04    3.32      44.6  T
     SCC iter.                  ...        0 min,  0.118 sec
     gradient                   ...        0 min,  0.125 sec
 * total energy  :  -134.1790008 Eh     change       -0.1232158E-03 Eh
   gradient norm :     0.0050501 Eh/α   predicted    -0.7696269E-04 ( -37.54%)
   displ. norm   :     0.3931819 α      lambda       -0.2069073E-03
   maximum displ.:     0.2109223 α      in ANC's #12, #3, #7, ...

........................................................................
.............................. CYCLE   26 ..............................
........................................................................
   1   -135.6782308 -0.135678E+03  0.797E-02    3.32       0.0  T
   2   -135.6782361 -0.527812E-05  0.469E-02    3.32       1.0  T
   3   -135.6782218  0.142152E-04  0.175E-02    3.32       1.0  T
   4   -135.6782390 -0.171852E-04  0.216E-03    3.32       5.7  T
   5   -135.6782392 -0.126249E-06  0.107E-03    3.32      11.5  T
   6   -135.6782392 -0.537170E-08  0.420E-04    3.32      29.3  T
   7   -135.6782392 -0.247999E-08  0.161E-04    3.32      76.5  T
     SCC iter.                  ...        0 min,  0.136 sec
     gradient                   ...        0 min,  0.135 sec
 * total energy  :  -134.1791655 Eh     change       -0.1647233E-03 Eh
   gradient norm :     0.0056166 Eh/α   predicted    -0.1194493E-03 ( -27.48%)
   displ. norm   :     0.4005278 α      lambda       -0.1975934E-03
   maximum displ.:     0.2138344 α      in ANC's #3, #12, #7, ...

........................................................................
.............................. CYCLE   27 ..............................
........................................................................
   1   -135.6753223 -0.135675E+03  0.813E-02    3.32       0.0  T
   2   -135.6753280 -0.575417E-05  0.477E-02    3.32       1.0  T
   3   -135.6753123  0.157233E-04  0.188E-02    3.32       1.0  T
   4   -135.6753314 -0.190619E-04  0.219E-03    3.32       5.6  T
   5   -135.6753315 -0.136764E-06  0.106E-03    3.32      11.6  T
   6   -135.6753315 -0.468202E-08  0.431E-04    3.32      28.5  T
   7   -135.6753315 -0.250941E-08  0.153E-04    3.32      80.3  T
     SCC iter.                  ...        0 min,  0.138 sec
     gradient                   ...        0 min,  0.147 sec
 * total energy  :  -134.1793150 Eh     change       -0.1495250E-03 Eh
   gradient norm :     0.0073268 Eh/α   predicted    -0.1146524E-03 ( -23.32%)
   displ. norm   :     0.3387580 α      lambda       -0.2213339E-03
   maximum displ.:     0.1869302 α      in ANC's #3, #7, #12, ...

........................................................................
.............................. CYCLE   28 ..............................
........................................................................
   1   -135.6752125 -0.135675E+03  0.674E-02    3.32       0.0  T
   2   -135.6752170 -0.447102E-05  0.395E-02    3.32       1.0  T
   3   -135.6752066  0.103206E-04  0.152E-02    3.32       1.0  T
   4   -135.6752192 -0.125612E-04  0.200E-03    3.32       6.1  T
   5   -135.6752193 -0.138725E-06  0.887E-04    3.32      13.9  T
   6   -135.6752193 -0.296981E-08  0.368E-04    3.32      33.5  T
     SCC iter.                  ...        0 min,  0.115 sec
     gradient                   ...        0 min,  0.137 sec
 * total energy  :  -134.1794894 Eh     change       -0.1743969E-03 Eh
   gradient norm :     0.0075103 Eh/α   predicted    -0.1233672E-03 ( -29.26%)
   displ. norm   :     0.3610367 α      lambda       -0.2703556E-03
   maximum displ.:     0.1976639 α      in ANC's #3, #7, #12, ...

........................................................................
.............................. CYCLE   29 ..............................
........................................................................
   1   -135.6777961 -0.135678E+03  0.694E-02    3.32       0.0  T
   2   -135.6778014 -0.530482E-05  0.408E-02    3.33       1.0  T
   3   -135.6777909  0.105204E-04  0.151E-02    3.33       1.0  T
   4   -135.6778037 -0.128089E-04  0.228E-03    3.33       5.4  T
   5   -135.6778039 -0.194776E-06  0.960E-04    3.33      12.8  T
   6   -135.6778039 -0.523377E-08  0.435E-04    3.33      28.3  T
     SCC iter.                  ...        0 min,  0.117 sec
     gradient                   ...        0 min,  0.138 sec
 * total energy  :  -134.1796924 Eh     change       -0.2029688E-03 Eh
   gradient norm :     0.0065772 Eh/α   predicted    -0.1528011E-03 ( -24.72%)
   displ. norm   :     0.4767839 α      lambda       -0.2275723E-03
   maximum displ.:     0.2576601 α      in ANC's #3, #7, #12, ...

........................................................................
.............................. CYCLE   30 ..............................
........................................................................
   1   -135.6767466 -0.135677E+03  0.911E-02    3.34       0.0  T
   2   -135.6767545 -0.793144E-05  0.535E-02    3.34       1.0  T
   3   -135.6767328  0.217016E-04  0.217E-02    3.34       1.0  T
   4   -135.6767590 -0.262146E-04  0.257E-03    3.34       4.8  T
   5   -135.6767592 -0.198359E-06  0.121E-03    3.35      10.2  T
   6   -135.6767592 -0.100491E-07  0.569E-04    3.35      21.6  T
   7   -135.6767592 -0.303098E-08  0.198E-04    3.35      62.3  T
     SCC iter.                  ...        0 min,  0.138 sec
     gradient                   ...        0 min,  0.122 sec
 * total energy  :  -134.1798547 Eh     change       -0.1622804E-03 Eh
   gradient norm :     0.0071278 Eh/α   predicted    -0.1396676E-03 ( -13.93%)
   displ. norm   :     0.3497461 α      lambda       -0.2952403E-03
   maximum displ.:     0.1724853 α      in ANC's #7, #3, #8, ...

........................................................................
.............................. CYCLE   31 ..............................
........................................................................
   1   -135.6843483 -0.135684E+03  0.654E-02    3.35       0.0  T
   2   -135.6843593 -0.110340E-04  0.389E-02    3.36       1.0  T
   3   -135.6843479  0.113895E-04  0.179E-02    3.35       1.0  T
   4   -135.6843632 -0.152346E-04  0.308E-03    3.36       4.0  T
   5   -135.6843636 -0.410982E-06  0.114E-03    3.36      10.8  T
   6   -135.6843636 -0.200249E-07  0.607E-04    3.36      20.3  T
   7   -135.6843636 -0.318818E-08  0.233E-04    3.36      52.7  T
     SCC iter.                  ...        0 min,  0.143 sec
     gradient                   ...        0 min,  0.145 sec
 * total energy  :  -134.1799797 Eh     change       -0.1249935E-03 Eh
   gradient norm :     0.0066196 Eh/α   predicted    -0.1656788E-03 (  32.55%)
   displ. norm   :     0.4243170 α      lambda       -0.1924056E-03
   maximum displ.:     0.2287231 α      in ANC's #3, #7, #12, ...

........................................................................
.............................. CYCLE   32 ..............................
........................................................................
   1   -135.6787038 -0.135679E+03  0.810E-02    3.36       0.0  T
   2   -135.6787097 -0.594064E-05  0.473E-02    3.37       1.0  T
   3   -135.6786909  0.188065E-04  0.213E-02    3.36       1.0  T
   4   -135.6787138 -0.229430E-04  0.203E-03    3.36       6.1  T
   5   -135.6787139 -0.912706E-07  0.105E-03    3.37      11.7  T
   6   -135.6787139 -0.613883E-08  0.511E-04    3.37      24.1  T
   7   -135.6787139 -0.341569E-08  0.171E-04    3.37      71.9  T
     SCC iter.                  ...        0 min,  0.140 sec
     gradient                   ...        0 min,  0.125 sec
 * total energy  :  -134.1800940 Eh     change       -0.1143686E-03 Eh
   gradient norm :     0.0063849 Eh/α   predicted    -0.1135340E-03 (  -0.73%)
   displ. norm   :     0.1205990 α      lambda       -0.1108859E-03
   maximum displ.:     0.0601472 α      in ANC's #7, #3, #5, ...

........................................................................
.............................. CYCLE   33 ..............................
........................................................................
   1   -135.6789899 -0.135679E+03  0.196E-02    3.36       0.0  T
   2   -135.6789909 -0.999350E-06  0.117E-02    3.36       1.1  T
   3   -135.6789899  0.101348E-05  0.515E-03    3.36       2.4  T
   4   -135.6789912 -0.130796E-05  0.983E-04    3.36      12.5  T
   5   -135.6789912 -0.439709E-07  0.336E-04    3.36      36.7  T
   6   -135.6789912 -0.182146E-08  0.182E-04    3.36      67.6  T
     SCC iter.                  ...        0 min,  0.122 sec
     gradient                   ...        0 min,  0.122 sec
 * total energy  :  -134.1801839 Eh     change       -0.8986550E-04 Eh
   gradient norm :     0.0042913 Eh/α   predicted    -0.5624997E-04 ( -37.41%)
   displ. norm   :     0.2853177 α      lambda       -0.1704605E-03
   maximum displ.:     0.1461291 α      in ANC's #7, #3, #5, ...

........................................................................
.............................. CYCLE   34 ..............................
........................................................................
   1   -135.6797108 -0.135680E+03  0.460E-02    3.37       0.0  T
   2   -135.6797143 -0.350098E-05  0.273E-02    3.37       1.0  T
   3   -135.6797087  0.559210E-05  0.115E-02    3.37       1.1  T
   4   -135.6797156 -0.695219E-05  0.170E-03    3.37       7.2  T
   5   -135.6797157 -0.110916E-06  0.686E-04    3.37      17.9  T
   6   -135.6797157 -0.574829E-08  0.380E-04    3.37      32.4  T
     SCC iter.                  ...        0 min,  0.118 sec
     gradient                   ...        0 min,  0.127 sec
 * total energy  :  -134.1802962 Eh     change       -0.1123060E-03 Eh
   gradient norm :     0.0035661 Eh/α   predicted    -0.9216865E-04 ( -17.93%)
   displ. norm   :     0.3248509 α      lambda       -0.8842289E-04
   maximum displ.:     0.1701037 α      in ANC's #7, #3, #5, ...

........................................................................
.............................. CYCLE   35 ..............................
........................................................................
   1   -135.6790367 -0.135679E+03  0.527E-02    3.37       0.0  T
   2   -135.6790383 -0.160848E-05  0.309E-02    3.37       1.0  T
   3   -135.6790333  0.492192E-05  0.999E-03    3.37       1.2  T
   4   -135.6790392 -0.583045E-05  0.125E-03    3.37       9.9  T
   5   -135.6790392 -0.315593E-07  0.654E-04    3.37      18.8  T
   6   -135.6790392 -0.301145E-08  0.316E-04    3.37      38.9  T
     SCC iter.                  ...        0 min,  0.119 sec
     gradient                   ...        0 min,  0.140 sec
 * total energy  :  -134.1803609 Eh     change       -0.6466597E-04 Eh
   gradient norm :     0.0045155 Eh/α   predicted    -0.4888049E-04 ( -24.41%)
   displ. norm   :     0.3241622 α      lambda       -0.1175768E-03
   maximum displ.:     0.1561613 α      in ANC's #7, #5, #3, ...

........................................................................
.............................. CYCLE   36 ..............................
........................................................................
   1   -135.6811092 -0.135681E+03  0.522E-02    3.38       0.0  T
   2   -135.6811115 -0.231591E-05  0.308E-02    3.38       1.0  T
   3   -135.6811069  0.465259E-05  0.937E-03    3.38       1.3  T
   4   -135.6811125 -0.560005E-05  0.144E-03    3.38       8.5  T
   5   -135.6811125 -0.692202E-07  0.698E-04    3.38      17.6  T
   6   -135.6811125 -0.286832E-08  0.348E-04    3.38      35.4  T
     SCC iter.                  ...        0 min,  0.121 sec
     gradient                   ...        0 min,  0.149 sec
 * total energy  :  -134.1804428 Eh     change       -0.8198469E-04 Eh
   gradient norm :     0.0040331 Eh/α   predicted    -0.6496960E-04 ( -20.75%)
   displ. norm   :     0.4595533 α      lambda       -0.1097464E-03
   maximum displ.:     0.2429299 α      in ANC's #7, #3, #5, ...

........................................................................
.............................. CYCLE   37 ..............................
........................................................................
   1   -135.6773829 -0.135677E+03  0.782E-02    3.39       0.0  T
   2   -135.6773866 -0.373546E-05  0.457E-02    3.39       1.0  T
   3   -135.6773785  0.808599E-05  0.131E-02    3.39       1.0  T
   4   -135.6773882 -0.962416E-05  0.186E-03    3.39       6.6  T
   5   -135.6773883 -0.890775E-07  0.917E-04    3.39      13.4  T
   6   -135.6773883 -0.160955E-08  0.453E-04    3.39      27.2  T
     SCC iter.                  ...        0 min,  0.117 sec
     gradient                   ...        0 min,  0.133 sec
 * total energy  :  -134.1804939 Eh     change       -0.5108833E-04 Eh
   gradient norm :     0.0048318 Eh/α   predicted    -0.6646394E-04 (  30.10%)
   displ. norm   :     0.1379370 α      lambda       -0.1085742E-03
   maximum displ.:     0.0826207 α      in ANC's #5, #17, #6, ...

........................................................................
.............................. CYCLE   38 ..............................
........................................................................
   1   -135.6817089 -0.135682E+03  0.298E-02    3.39       0.0  T
   2   -135.6817115 -0.259643E-05  0.174E-02    3.39       1.0  T
   3   -135.6817095  0.201782E-05  0.793E-03    3.39       1.6  T
   4   -135.6817122 -0.272835E-05  0.146E-03    3.39       8.4  T
   5   -135.6817123 -0.972099E-07  0.543E-04    3.39      22.7  T
   6   -135.6817123 -0.403182E-08  0.298E-04    3.39      41.3  T
     SCC iter.                  ...        0 min,  0.117 sec
     gradient                   ...        0 min,  0.147 sec
 * total energy  :  -134.1805429 Eh     change       -0.4899254E-04 Eh
   gradient norm :     0.0038434 Eh/α   predicted    -0.5532129E-04 (  12.92%)
   displ. norm   :     0.1179275 α      lambda       -0.4772193E-04
   maximum displ.:     0.0569938 α      in ANC's #5, #7, #3, ...

........................................................................
.............................. CYCLE   39 ..............................
........................................................................
   1   -135.6815256 -0.135682E+03  0.251E-02    3.39       0.0  T
   2   -135.6815265 -0.868304E-06  0.145E-02    3.39       1.0  T
   3   -135.6815250  0.149263E-05  0.668E-03    3.39       1.8  T
   4   -135.6815269 -0.190535E-05  0.731E-04    3.39      16.8  T
   5   -135.6815269 -0.135482E-07  0.374E-04    3.39      32.9  T
   6   -135.6815269 -0.955566E-09  0.173E-04    3.39      71.2  T
     SCC iter.                  ...        0 min,  0.118 sec
     gradient                   ...        0 min,  0.136 sec
 * total energy  :  -134.1805664 Eh     change       -0.2351063E-04 Eh
   gradient norm :     0.0033106 Eh/α   predicted    -0.2419773E-04 (   2.92%)
   displ. norm   :     0.1187226 α      lambda       -0.3707560E-04
   maximum displ.:     0.0577425 α      in ANC's #5, #3, #12, ...

........................................................................
.............................. CYCLE   40 ..............................
........................................................................
   1   -135.6807536 -0.135681E+03  0.218E-02    3.38       0.0  T
   2   -135.6807542 -0.568119E-06  0.128E-02    3.38       1.0  T
   3   -135.6807534  0.789801E-06  0.428E-03    3.38       2.9  T
   4   -135.6807544 -0.977839E-06  0.724E-04    3.38      17.0  T
   5   -135.6807544 -0.196060E-07  0.329E-04    3.38      37.4  T
     SCC iter.                  ...        0 min,  0.096 sec
     gradient                   ...        0 min,  0.150 sec
 * total energy  :  -134.1805920 Eh     change       -0.2561458E-04 Eh
   gradient norm :     0.0026087 Eh/α   predicted    -0.1880236E-04 ( -26.60%)
   displ. norm   :     0.1508041 α      lambda       -0.4235614E-04
   maximum displ.:     0.0774937 α      in ANC's #12, #5, #3, ...

........................................................................
.............................. CYCLE   41 ..............................
........................................................................
   1   -135.6801564 -0.135680E+03  0.288E-02    3.38       0.0  T
   2   -135.6801574 -0.102037E-05  0.169E-02    3.38       1.0  T
   3   -135.6801565  0.896903E-06  0.435E-03    3.38       2.8  T
   4   -135.6801576 -0.113102E-05  0.946E-04    3.38      13.0  T
   5   -135.6801577 -0.455393E-07  0.420E-04    3.38      29.3  T
   6   -135.6801577 -0.978503E-09  0.195E-04    3.38      63.1  T
     SCC iter.                  ...        0 min,  0.115 sec
     gradient                   ...        0 min,  0.152 sec
 * total energy  :  -134.1806169 Eh     change       -0.2489353E-04 Eh
   gradient norm :     0.0025507 Eh/α   predicted    -0.2166303E-04 ( -12.98%)
   displ. norm   :     0.0879907 α      lambda       -0.2378213E-04
   maximum displ.:     0.0381665 α      in ANC's #5, #12, #1, ...

........................................................................
.............................. CYCLE   42 ..............................
........................................................................
   1   -135.6813168 -0.135681E+03  0.166E-02    3.38       0.0  T
   2   -135.6813175 -0.707161E-06  0.966E-03    3.38       1.3  T
   3   -135.6813171  0.394279E-06  0.370E-03    3.38       3.3  T
   4   -135.6813177 -0.524583E-06  0.840E-04    3.38      14.7  T
   5   -135.6813177 -0.357963E-07  0.288E-04    3.38      42.8  T
     SCC iter.                  ...        0 min,  0.100 sec
     gradient                   ...        0 min,  0.109 sec
 * total energy  :  -134.1806307 Eh     change       -0.1379390E-04 Eh
   gradient norm :     0.0023766 Eh/α   predicted    -0.1198551E-04 ( -13.11%)
   displ. norm   :     0.1131899 α      lambda       -0.1907605E-04
   maximum displ.:     0.0575387 α      in ANC's #5, #3, #12, ...
 * RMSD in coord.:     0.6030494 α      energy gain  -0.2319127E-02 Eh

generating ANC from model Hessian ...
Using Lindh-Hessian (1995)
 Shifting diagonal of input Hessian by    9.8838299769978821E-003
 Lowest  eigenvalues of input Hessian
    0.000000    0.000000    0.000000    0.000000    0.000000    0.000000
    0.010000    0.010171    0.010329    0.010492    0.010545    0.010643
    0.010793    0.011179    0.011283    0.011513    0.011762    0.012175
 Highest eigenvalues
    2.030880    2.061135    2.065654    2.333280    2.359426    2.385416


........................................................................
.............................. CYCLE   43 ..............................
........................................................................
   1   -135.6809489 -0.135681E+03  0.207E-02    3.38       0.0  T
   2   -135.6809493 -0.362127E-06  0.122E-02    3.38       1.0  T
   3   -135.6809490  0.271526E-06  0.240E-03    3.38       5.1  T
   4   -135.6809493 -0.354545E-06  0.556E-04    3.38      22.1  T
   5   -135.6809494 -0.136548E-07  0.272E-04    3.38      45.3  T
     SCC iter.                  ...        0 min,  0.098 sec
     gradient                   ...        0 min,  0.121 sec
 * total energy  :  -134.1806447 Eh     change       -0.1396563E-04 Eh
   gradient norm :     0.0017358 Eh/α   predicted     0.0000000E+00 (-100.00%)
   displ. norm   :     0.0312750 α      lambda       -0.1163244E-04
   maximum displ.:     0.0116761 α      in ANC's #8, #24, #1, ...

........................................................................
.............................. CYCLE   44 ..............................
........................................................................
   1   -135.6818560 -0.135682E+03  0.861E-03    3.38       0.0  T
   2   -135.6818561 -0.140588E-06  0.502E-03    3.38       2.5  T
   3   -135.6818561  0.669978E-07  0.148E-03    3.38       8.3  T
   4   -135.6818562 -0.873597E-07  0.390E-04    3.38      31.5  T
   5   -135.6818562 -0.713595E-08  0.135E-04    3.38      91.1  T
     SCC iter.                  ...        0 min,  0.098 sec
     gradient                   ...        0 min,  0.140 sec
 * total energy  :  -134.1806573 Eh     change       -0.1257398E-04 Eh
   gradient norm :     0.0006646 Eh/α   predicted    -0.5822305E-05 ( -53.70%)
   displ. norm   :     0.0731916 α      lambda       -0.1394923E-04
   maximum displ.:     0.0286371 α      in ANC's #8, #24, #1, ...

........................................................................
.............................. CYCLE   45 ..............................
........................................................................
   1   -135.6821813 -0.135682E+03  0.172E-02    3.38       0.0  T
   2   -135.6821817 -0.335539E-06  0.101E-02    3.38       1.2  T
   3   -135.6821813  0.358261E-06  0.277E-03    3.38       4.4  T
   4   -135.6821818 -0.437868E-06  0.596E-04    3.38      20.6  T
   5   -135.6821818 -0.178860E-07  0.234E-04    3.38      52.6  T
     SCC iter.                  ...        0 min,  0.098 sec
     gradient                   ...        0 min,  0.128 sec
 * total energy  :  -134.1806728 Eh     change       -0.1552565E-04 Eh
   gradient norm :     0.0011352 Eh/α   predicted    -0.7003220E-05 ( -54.89%)
   displ. norm   :     0.1338385 α      lambda       -0.1801970E-04
   maximum displ.:     0.0532512 α      in ANC's #8, #1, #11, ...

........................................................................
.............................. CYCLE   46 ..............................
........................................................................
   1   -135.6820116 -0.135682E+03  0.288E-02    3.38       0.0  T
   2   -135.6820123 -0.740634E-06  0.169E-02    3.38       1.0  T
   3   -135.6820114  0.892504E-06  0.403E-03    3.38       3.1  T
   4   -135.6820125 -0.108961E-05  0.882E-04    3.38      13.9  T
   5   -135.6820126 -0.379266E-07  0.397E-04    3.38      31.0  T
   6   -135.6820126 -0.914525E-09  0.198E-04    3.38      62.1  T
     SCC iter.                  ...        0 min,  0.117 sec
     gradient                   ...        0 min,  0.129 sec
 * total energy  :  -134.1806927 Eh     change       -0.1989941E-04 Eh
   gradient norm :     0.0017681 Eh/α   predicted    -0.9092414E-05 ( -54.31%)
   displ. norm   :     0.2114607 α      lambda       -0.2338775E-04
   maximum displ.:     0.0816311 α      in ANC's #8, #1, #25, ...

........................................................................
.............................. CYCLE   47 ..............................
........................................................................
   1   -135.6813653 -0.135681E+03  0.428E-02    3.38       0.0  T
   2   -135.6813667 -0.144125E-05  0.252E-02    3.39       1.0  T
   3   -135.6813645  0.223199E-05  0.620E-03    3.38       2.0  T
   4   -135.6813672 -0.268347E-05  0.126E-03    3.39       9.8  T
   5   -135.6813672 -0.694046E-07  0.574E-04    3.39      21.5  T
   6   -135.6813672 -0.172116E-08  0.283E-04    3.39      43.5  T
     SCC iter.                  ...        0 min,  0.117 sec
     gradient                   ...        0 min,  0.046 sec
 * total energy  :  -134.1807173 Eh     change       -0.2463945E-04 Eh
   gradient norm :     0.0019652 Eh/α   predicted    -0.1192681E-04 ( -51.59%)
   displ. norm   :     0.2146939 α      lambda       -0.2308000E-04
   maximum displ.:     0.0796922 α      in ANC's #1, #8, #25, ...

........................................................................
.............................. CYCLE   48 ..............................
........................................................................
   1   -135.6807086 -0.135681E+03  0.398E-02    3.38       0.0  T
   2   -135.6807097 -0.112943E-05  0.235E-02    3.38       1.0  T
   3   -135.6807078  0.187707E-05  0.587E-03    3.38       2.1  T
   4   -135.6807101 -0.226020E-05  0.112E-03    3.38      11.0  T
   5   -135.6807102 -0.439011E-07  0.525E-04    3.38      23.4  T
   6   -135.6807102 -0.110404E-08  0.255E-04    3.38      48.3  T
     SCC iter.                  ...        0 min,  0.126 sec
     gradient                   ...        0 min,  0.147 sec
 * total energy  :  -134.1807418 Eh     change       -0.2449286E-04 Eh
   gradient norm :     0.0019524 Eh/α   predicted    -0.1177904E-04 ( -51.91%)
   displ. norm   :     0.1849655 α      lambda       -0.2554905E-04
   maximum displ.:     0.0736235 α      in ANC's #1, #8, #4, ...

........................................................................
.............................. CYCLE   49 ..............................
........................................................................
   1   -135.6809407 -0.135681E+03  0.309E-02    3.38       0.0  T
   2   -135.6809413 -0.557889E-06  0.183E-02    3.38       1.0  T
   3   -135.6809403  0.963215E-06  0.442E-03    3.38       2.8  T
   4   -135.6809415 -0.116803E-05  0.783E-04    3.38      15.7  T
   5   -135.6809415 -0.163008E-07  0.388E-04    3.38      31.8  T
   6   -135.6809415 -0.764629E-09  0.179E-04    3.38      68.9  T
     SCC iter.                  ...        0 min,  0.118 sec
     gradient                   ...        0 min,  0.129 sec
 * total energy  :  -134.1807684 Eh     change       -0.2660459E-04 Eh
   gradient norm :     0.0017306 Eh/α   predicted    -0.1296968E-04 ( -51.25%)
   displ. norm   :     0.1563894 α      lambda       -0.1954720E-04
   maximum displ.:     0.0658381 α      in ANC's #1, #4, #25, ...

........................................................................
.............................. CYCLE   50 ..............................
........................................................................
   1   -135.6811824 -0.135681E+03  0.250E-02    3.38       0.0  T
   2   -135.6811828 -0.367605E-06  0.148E-02    3.38       1.0  T
   3   -135.6811823  0.480462E-06  0.314E-03    3.38       3.9  T
   4   -135.6811829 -0.590563E-06  0.653E-04    3.38      18.9  T
   5   -135.6811829 -0.145391E-07  0.315E-04    3.38      39.1  T
     SCC iter.                  ...        0 min,  0.099 sec
     gradient                   ...        0 min,  0.151 sec
 * total energy  :  -134.1807891 Eh     change       -0.2070714E-04 Eh
   gradient norm :     0.0018033 Eh/α   predicted    -0.9886062E-05 ( -52.26%)
   displ. norm   :     0.2134068 α      lambda       -0.2083382E-04
   maximum displ.:     0.0925962 α      in ANC's #1, #4, #25, ...

........................................................................
.............................. CYCLE   51 ..............................
........................................................................
   1   -135.6809446 -0.135681E+03  0.339E-02    3.38       0.0  T
   2   -135.6809453 -0.710189E-06  0.200E-02    3.38       1.0  T
   3   -135.6809441  0.118567E-05  0.481E-03    3.38       2.6  T
   4   -135.6809455 -0.141983E-05  0.927E-04    3.38      13.3  T
   5   -135.6809456 -0.321271E-07  0.428E-04    3.38      28.7  T
   6   -135.6809456 -0.891134E-09  0.189E-04    3.38      65.3  T
     SCC iter.                  ...        0 min,  0.120 sec
     gradient                   ...        0 min,  0.113 sec
 * total energy  :  -134.1808103 Eh     change       -0.2116344E-04 Eh
   gradient norm :     0.0019842 Eh/α   predicted    -0.1063469E-04 ( -49.75%)
   displ. norm   :     0.1794702 α      lambda       -0.2297008E-04
   maximum displ.:     0.0828084 α      in ANC's #1, #4, #12, ...

........................................................................
.............................. CYCLE   52 ..............................
........................................................................
   1   -135.6820495 -0.135682E+03  0.295E-02    3.38       0.0  T
   2   -135.6820504 -0.960554E-06  0.175E-02    3.38       1.0  T
   3   -135.6820485  0.191962E-05  0.624E-03    3.38       2.0  T
   4   -135.6820508 -0.232556E-05  0.101E-03    3.38      12.1  T
   5   -135.6820509 -0.410372E-07  0.437E-04    3.38      28.2  T
   6   -135.6820509 -0.916373E-09  0.201E-04    3.38      61.2  T
     SCC iter.                  ...        0 min,  0.121 sec
     gradient                   ...        0 min,  0.130 sec
 * total energy  :  -134.1808326 Eh     change       -0.2224812E-04 Eh
   gradient norm :     0.0013458 Eh/α   predicted    -0.1165238E-04 ( -47.63%)
   displ. norm   :     0.4353197 α      lambda       -0.3204458E-04
   maximum displ.:     0.1966182 α      in ANC's #1, #4, #25, ...

........................................................................
.............................. CYCLE   53 ..............................
........................................................................
   1   -135.6784093 -0.135678E+03  0.722E-02    3.38       0.0  T
   2   -135.6784126 -0.330093E-05  0.425E-02    3.37       1.0  T
   3   -135.6784072  0.538100E-05  0.109E-02    3.38       1.1  T
   4   -135.6784137 -0.647594E-05  0.202E-03    3.37       6.1  T
   5   -135.6784138 -0.121071E-06  0.958E-04    3.37      12.9  T
   6   -135.6784138 -0.223986E-08  0.414E-04    3.37      29.7  T
     SCC iter.                  ...        0 min,  0.117 sec
     gradient                   ...        0 min,  0.138 sec
 * total energy  :  -134.1808258 Eh     change        0.6723019E-05 Eh
   gradient norm :     0.0056979 Eh/α   predicted    -0.1738677E-04 (-358.62%)
   displ. norm   :     0.1135448 α      lambda       -0.6138625E-04
   maximum displ.:     0.0408040 α      in ANC's #25, #1, #8, ...

........................................................................
.............................. CYCLE   54 ..............................
........................................................................
   1   -135.6807961 -0.135681E+03  0.207E-02    3.38       0.0  T
   2   -135.6807967 -0.574577E-06  0.120E-02    3.38       1.0  T
   3   -135.6807962  0.492242E-06  0.371E-03    3.38       3.3  T
   4   -135.6807968 -0.599939E-06  0.832E-04    3.38      14.8  T
   5   -135.6807968 -0.268269E-07  0.304E-04    3.38      40.5  T
     SCC iter.                  ...        0 min,  0.101 sec
     gradient                   ...        0 min,  0.137 sec
 * total energy  :  -134.1808646 Eh     change       -0.3876932E-04 Eh
   gradient norm :     0.0021542 Eh/α   predicted    -0.3109021E-04 ( -19.81%)
   displ. norm   :     0.0655473 α      lambda       -0.2076646E-04
   maximum displ.:     0.0335120 α      in ANC's #1, #4, #6, ...

........................................................................
.............................. CYCLE   55 ..............................
........................................................................
   1   -135.6818682 -0.135682E+03  0.115E-02    3.38       0.0  T
   2   -135.6818684 -0.195510E-06  0.672E-03    3.38       1.8  T
   3   -135.6818683  0.118474E-06  0.174E-03    3.38       7.1  T
   4   -135.6818684 -0.155161E-06  0.447E-04    3.38      27.5  T
   5   -135.6818684 -0.886470E-08  0.193E-04    3.38      63.6  T
     SCC iter.                  ...        0 min,  0.102 sec
     gradient                   ...        0 min,  0.145 sec
 * total energy  :  -134.1808798 Eh     change       -0.1519995E-04 Eh
   gradient norm :     0.0009711 Eh/α   predicted    -0.1042868E-04 ( -31.39%)
   displ. norm   :     0.2086955 α      lambda       -0.1910055E-04
   maximum displ.:     0.1104588 α      in ANC's #1, #4, #6, ...

........................................................................
.............................. CYCLE   56 ..............................
........................................................................
   1   -135.6825757 -0.135683E+03  0.335E-02    3.38       0.0  T
   2   -135.6825764 -0.692726E-06  0.197E-02    3.38       1.0  T
   3   -135.6825758  0.601635E-06  0.361E-03    3.38       3.4  T
   4   -135.6825766 -0.797830E-06  0.889E-04    3.38      13.8  T
   5   -135.6825766 -0.250782E-07  0.476E-04    3.38      25.9  T
     SCC iter.                  ...        0 min,  0.098 sec
     gradient                   ...        0 min,  0.134 sec
 * total energy  :  -134.1809000 Eh     change       -0.2021365E-04 Eh
   gradient norm :     0.0013030 Eh/α   predicted    -0.9750200E-05 ( -51.76%)
   displ. norm   :     0.3406684 α      lambda       -0.2145158E-04
   maximum displ.:     0.1776459 α      in ANC's #1, #4, #7, ...

........................................................................
.............................. CYCLE   57 ..............................
........................................................................
   1   -135.6810429 -0.135681E+03  0.536E-02    3.38       0.0  T
   2   -135.6810444 -0.145089E-05  0.316E-02    3.38       1.0  T
   3   -135.6810429  0.147238E-05  0.576E-03    3.38       2.1  T
   4   -135.6810448 -0.192490E-05  0.140E-03    3.38       8.8  T
   5   -135.6810449 -0.535574E-07  0.735E-04    3.38      16.8  T
   6   -135.6810449 -0.315111E-08  0.294E-04    3.38      41.8  T
     SCC iter.                  ...        0 min,  0.117 sec
     gradient                   ...        0 min,  0.134 sec
 * total energy  :  -134.1809211 Eh     change       -0.2104097E-04 Eh
   gradient norm :     0.0021051 Eh/α   predicted    -0.1128159E-04 ( -46.38%)
   displ. norm   :     0.1016889 α      lambda       -0.1365278E-04
   maximum displ.:     0.0569835 α      in ANC's #1, #4, #6, ...

........................................................................
.............................. CYCLE   58 ..............................
........................................................................
   1   -135.6811434 -0.135681E+03  0.156E-02    3.38       0.0  T
   2   -135.6811435 -0.159065E-06  0.918E-03    3.38       1.3  T
   3   -135.6811433  0.225916E-06  0.230E-03    3.38       5.4  T
   4   -135.6811436 -0.282964E-06  0.444E-04    3.38      27.7  T
   5   -135.6811436 -0.515340E-08  0.227E-04    3.38      54.3  T
     SCC iter.                  ...        0 min,  0.098 sec
     gradient                   ...        0 min,  0.125 sec
 * total energy  :  -134.1809331 Eh     change       -0.1202443E-04 Eh
   gradient norm :     0.0019953 Eh/α   predicted    -0.6897378E-05 ( -42.64%)
   displ. norm   :     0.4113104 α      lambda       -0.4098571E-04
   maximum displ.:     0.2320250 α      in ANC's #1, #4, #6, ...

........................................................................
.............................. CYCLE   59 ..............................
........................................................................
   1   -135.6812127 -0.135681E+03  0.659E-02    3.37       0.0  T
   2   -135.6812154 -0.266200E-05  0.387E-02    3.37       1.0  T
   3   -135.6812109  0.446859E-05  0.101E-02    3.37       1.2  T
   4   -135.6812165 -0.556416E-05  0.180E-03    3.37       6.8  T
   5   -135.6812165 -0.723445E-07  0.946E-04    3.37      13.0  T
   6   -135.6812165 -0.595116E-08  0.425E-04    3.37      29.0  T
     SCC iter.                  ...        0 min,  0.117 sec
     gradient                   ...        0 min,  0.136 sec
 * total energy  :  -134.1809700 Eh     change       -0.3692762E-04 Eh
   gradient norm :     0.0024123 Eh/α   predicted    -0.2203501E-04 ( -40.33%)
   displ. norm   :     0.1898063 α      lambda       -0.1845456E-04
   maximum displ.:     0.1082096 α      in ANC's #1, #4, #6, ...

........................................................................
.............................. CYCLE   60 ..............................
........................................................................
   1   -135.6808232 -0.135681E+03  0.300E-02    3.37       0.0  T
   2   -135.6808236 -0.418770E-06  0.176E-02    3.37       1.0  T
   3   -135.6808231  0.586231E-06  0.358E-03    3.37       3.4  T
   4   -135.6808238 -0.753823E-06  0.782E-04    3.37      15.7  T
   5   -135.6808238 -0.134800E-07  0.418E-04    3.37      29.5  T
     SCC iter.                  ...        0 min,  0.098 sec
     gradient                   ...        0 min,  0.043 sec
 * total energy  :  -134.1809858 Eh     change       -0.1580950E-04 Eh
   gradient norm :     0.0025158 Eh/α   predicted    -0.9561168E-05 ( -39.52%)
   displ. norm   :     0.3876794 α      lambda       -0.6230452E-04
   maximum displ.:     0.2259925 α      in ANC's #1, #6, #4, ...

........................................................................
.............................. CYCLE   61 ..............................
........................................................................
   1   -135.6821397 -0.135682E+03  0.673E-02    3.38       0.0  T
   2   -135.6821424 -0.269545E-05  0.395E-02    3.38       1.0  T
   3   -135.6821384  0.397981E-05  0.905E-03    3.38       1.4  T
   4   -135.6821434 -0.497427E-05  0.193E-03    3.38       6.4  T
   5   -135.6821435 -0.110400E-06  0.977E-04    3.38      12.6  T
   6   -135.6821435 -0.367046E-08  0.407E-04    3.38      30.2  T
     SCC iter.                  ...        0 min,  0.117 sec
     gradient                   ...        0 min,  0.133 sec
 * total energy  :  -134.1810247 Eh     change       -0.3884974E-04 Eh
   gradient norm :     0.0022784 Eh/α   predicted    -0.3583847E-04 (  -7.75%)
   displ. norm   :     0.4719786 α      lambda       -0.4177057E-04
   maximum displ.:     0.2737285 α      in ANC's #1, #4, #6, ...

........................................................................
.............................. CYCLE   62 ..............................
........................................................................
   1   -135.6779361 -0.135678E+03  0.784E-02    3.36       0.0  T
   2   -135.6779396 -0.349732E-05  0.459E-02    3.37       1.0  T
   3   -135.6779334  0.620270E-05  0.119E-02    3.36       1.0  T
   4   -135.6779411 -0.769316E-05  0.214E-03    3.37       5.8  T
   5   -135.6779412 -0.100202E-06  0.112E-03    3.37      10.9  T
   6   -135.6779412 -0.462347E-08  0.489E-04    3.37      25.2  T
   7   -135.6779412 -0.475234E-08  0.164E-04    3.37      74.9  T
     SCC iter.                  ...        0 min,  0.136 sec
     gradient                   ...        0 min,  0.122 sec
 * total energy  :  -134.1810289 Eh     change       -0.4256820E-05 Eh
   gradient norm :     0.0057528 Eh/α   predicted    -0.2553888E-04 ( 499.95%)
   displ. norm   :     0.0919989 α      lambda       -0.5288327E-04
   maximum displ.:     0.0387577 α      in ANC's #1, #4, #7, ...

........................................................................
.............................. CYCLE   63 ..............................
........................................................................
   1   -135.6811721 -0.135681E+03  0.182E-02    3.38       0.0  T
   2   -135.6811728 -0.658103E-06  0.106E-02    3.38       1.2  T
   3   -135.6811723  0.501782E-06  0.400E-03    3.38       3.1  T
   4   -135.6811729 -0.652600E-06  0.827E-04    3.38      14.9  T
   5   -135.6811729 -0.298196E-07  0.336E-04    3.38      36.6  T
     SCC iter.                  ...        0 min,  0.098 sec
     gradient                   ...        0 min,  0.120 sec
 * total energy  :  -134.1810588 Eh     change       -0.2985790E-04 Eh
   gradient norm :     0.0021603 Eh/α   predicted    -0.2666815E-04 ( -10.68%)
   displ. norm   :     0.1376441 α      lambda       -0.1769242E-04
   maximum displ.:     0.0885267 α      in ANC's #1, #4, #6, ...

........................................................................
.............................. CYCLE   64 ..............................
........................................................................
   1   -135.6818273 -0.135682E+03  0.235E-02    3.38       0.0  T
   2   -135.6818277 -0.462245E-06  0.139E-02    3.38       1.0  T
   3   -135.6818266  0.112575E-05  0.470E-03    3.38       2.6  T
   4   -135.6818280 -0.136024E-05  0.713E-04    3.38      17.3  T
   5   -135.6818280 -0.126327E-07  0.368E-04    3.38      33.5  T
   6   -135.6818280 -0.976456E-09  0.170E-04    3.38      72.4  T
     SCC iter.                  ...        0 min,  0.117 sec
     gradient                   ...        0 min,  0.131 sec
 * total energy  :  -134.1810726 Eh     change       -0.1385485E-04 Eh
   gradient norm :     0.0013395 Eh/α   predicted    -0.9015863E-05 ( -34.93%)
   displ. norm   :     0.3942744 α      lambda       -0.2292678E-04
   maximum displ.:     0.2539166 α      in ANC's #1, #4, #12, ...

........................................................................
[...]
         :: gradient norm              0.000329878677 Eh/a0 ::
         :: HOMO-LUMO gap              3.320201506111 eV    ::
         ::.................................................::
         :: SCC energy              -135.683830767522 Eh    ::
         :: -> isotropic ES            0.220270956778 Eh    ::
         :: -> anisotropic ES         -0.001213791080 Eh    ::
         :: -> anisotropic XC         -0.009260735726 Eh    ::
         :: -> dispersion             -0.092568640348 Eh    ::
         :: repulsion energy           1.496138962704 Eh    ::
         :: add. restraining           0.000000000000 Eh    ::
         :: total charge              -0.000000000000 e     ::
         :::::::::::::::::::::::::::::::::::::::::::::::::::::

           -------------------------------------------------
          |                Property Printout                |
           -------------------------------------------------

    * Orbital Energies and Occupations

         #    Occupation            Energy/Eh            Energy/eV
      -------------------------------------------------------------
         1        2.0000           -0.8739986             -23.7827
       ...           ...                  ...                  ...
       103        2.0000           -0.4452822             -12.1167
       104        2.0000           -0.4409220             -11.9981
       105        2.0000           -0.4395920             -11.9619
       106        2.0000           -0.4332666             -11.7898
       107        2.0000           -0.4314245             -11.7397
       108        2.0000           -0.4295719             -11.6892
       109        2.0000           -0.4267420             -11.6122
       110        2.0000           -0.4210008             -11.4560
       111        2.0000           -0.4095595             -11.1447
       112        2.0000           -0.4065178             -11.0619
       113        2.0000           -0.4016687             -10.9300
       114        2.0000           -0.4009590             -10.9107
       115        2.0000           -0.3996168             -10.8741 (HOMO)
       116                         -0.2776016              -7.5539 (LUMO)
       117                         -0.2602370              -7.0814
       118                         -0.2579492              -7.0192
       119                         -0.2550478              -6.9402
       120                         -0.2527583              -6.8779
       121                         -0.2491072              -6.7786
       122                         -0.2437901              -6.6339
       123                         -0.2163413              -5.8869
       124                         -0.2154014              -5.8614
       125                         -0.1590056              -4.3268
       126                         -0.1404209              -3.8210
       ...                                ...                  ...
       198                          0.6813453              18.5403
      -------------------------------------------------------------
                  HL-Gap            0.1220152 Eh            3.3202 eV
             Fermi-level           -0.3386092 Eh           -9.2140 eV

     #   Z          covCN         q      C6AA      α(0)
     1   6 C        2.977    -0.024    28.588     8.770
     2   6 C        3.336     0.486    17.297     6.587
     3   9 F        0.791    -0.207    11.304     3.971
     4   9 F        0.792    -0.201    11.240     3.960
     5   9 F        0.791    -0.223    11.477     4.002
     6   6 C        2.923    -0.018    28.468     8.750
     7   6 C        2.920    -0.020    28.498     8.754
     8   6 C        2.919    -0.014    28.373     8.735
     9   6 C        2.927    -0.020    28.509     8.756
    10   6 C        2.972     0.028    27.376     8.582
    11   6 C        3.834     0.048    19.753     6.323
    12   6 C        3.835     0.048    19.752     6.323
    13   6 C        2.970     0.029    27.351     8.578
    14   6 C        2.976    -0.024    28.588     8.770
    15   6 C        3.336     0.485    17.302     6.588
    16   9 F        0.791    -0.226    11.502     4.006
    17   9 F        0.791    -0.203    11.271     3.966
    18   9 F        0.792    -0.202    11.251     3.962
    19   6 C        2.924    -0.020    28.498     8.754
    20   6 C        2.920    -0.021    28.536     8.760
    21   6 C        2.919    -0.016    28.421     8.742
    22   6 C        2.928    -0.026    28.656     8.779
    23   7 N        2.762    -0.116    23.520     7.203
    24   6 C        2.765     0.266    22.510     7.770
    25   6 C        3.057    -0.056    29.344     8.884
    26   6 C        3.075     0.084    26.052     8.368
    27   8 O        1.729    -0.169    16.847     5.542
    28   6 C        3.104     0.117    25.310     8.243
    29   6 C        3.753    -0.121    22.871     6.820
    30   6 C        3.018    -0.088    30.191     9.013
    31   8 O        0.861    -0.431    22.305     6.332
    32   6 C        3.763     0.086    19.203     6.247
    33   6 C        2.692     0.351    21.040     7.507
    34   8 O        1.659    -0.350    19.908     6.023
    35   8 O        0.856    -0.397    21.614     6.233
    36   7 N        2.776    -0.125    23.716     7.233
    37   6 C        2.757     0.272    22.403     7.751
    38   6 C        3.064    -0.052    29.230     8.866
    39   6 C        3.064     0.082    26.102     8.378
    40   8 O        1.731    -0.167    16.817     5.537
    41   6 C        3.101     0.120    25.256     8.235
    42   6 C        3.753    -0.120    22.860     6.818
    43   6 C        3.019    -0.080    29.975     8.981
    44   8 O        0.859    -0.413    21.934     6.279
    45   1 H        0.926     0.068     2.106     2.269
    46   1 H        0.926     0.059     2.216     2.328
    47   1 H        0.926     0.057     2.233     2.337
    48   1 H        0.926     0.051     2.311     2.377
    49   1 H        0.924     0.065     2.138     2.287
    50   1 H        0.924     0.066     2.133     2.284
    51   1 H        0.926     0.067     2.119     2.276
    52   1 H        0.926     0.056     2.243     2.342
    53   1 H        0.926     0.054     2.275     2.358
    54   1 H        0.926     0.063     2.160     2.298
    55   1 H        0.926     0.076     2.025     2.225
    56   1 H        0.925     0.067     2.121     2.278
    57   1 H        0.925     0.063     2.168     2.303
    58   1 H        0.925     0.068     2.112     2.273
    59   1 H        0.927     0.044     2.392     2.419
    60   1 H        0.924     0.082     1.962     2.190
    61   1 H        0.804     0.346     0.598     1.215
    62   1 H        0.926     0.066     2.130     2.282
    63   1 H        0.925     0.069     2.101     2.267
    64   1 H        0.925     0.059     2.205     2.322
    65   1 H        0.925     0.068     2.102     2.268
    66   1 H        0.926     0.037     2.493     2.469

 Mol. C6AA /au·bohr⁶  :      56901.503856
 Mol. C8AA /au·bohr⁸  :    1364440.857542
 Mol. α(0) /au        :        366.352377


Wiberg/Mayer (AO) data.
largest (>0.10) Wiberg bond orders for each atom

 ---------------------------------------------------------------------------
     #   Z sym  total        # sym  WBO       # sym  WBO       # sym  WBO
 ---------------------------------------------------------------------------
     1   6 C    3.969 --     6 C    1.411    10 C    1.386     2 C    0.953
                             8 C    0.104
     2   6 C    3.820 --     4 F    0.956     1 C    0.953     3 F    0.943
                             5 F    0.929
     3   9 F    1.073 --     2 C    0.943
     4   9 F    1.078 --     2 C    0.956
     5   9 F    1.056 --     2 C    0.929
     6   6 C    3.987 --     7 C    1.445     1 C    1.411    45 H    0.966
                             9 C    0.109
     7   6 C    3.989 --     6 C    1.445     8 C    1.431    46 H    0.969
                            10 C    0.108
     8   6 C    3.990 --     9 C    1.450     7 C    1.431    47 H    0.969
                             1 C    0.104
     9   6 C    3.990 --     8 C    1.450    10 C    1.407    48 H    0.966
                             6 C    0.109
    10   6 C    3.986 --     9 C    1.407     1 C    1.386    11 C    0.997
                             7 C    0.108
    11   6 C    3.967 --    10 C    0.997    36 N    0.958    12 C    0.951
                            49 H    0.950
    12   6 C    3.967 --    13 C    0.996    23 N    0.954    50 H    0.952
                            11 C    0.951
    13   6 C    3.986 --    22 C    1.409    14 C    1.383    12 C    0.996
                            20 C    0.108
    14   6 C    3.969 --    19 C    1.414    13 C    1.383    15 C    0.952
                            21 C    0.105
    15   6 C    3.820 --    18 F    0.955    14 C    0.952    17 F    0.947
                            16 F    0.927
    16   9 F    1.053 --    15 C    0.927
    17   9 F    1.078 --    15 C    0.947
    18   9 F    1.077 --    15 C    0.955
    19   6 C    3.987 --    20 C    1.443    14 C    1.414    51 H    0.966
                            22 C    0.109
    20   6 C    3.989 --    19 C    1.443    21 C    1.434    52 H    0.969
                            13 C    0.108
    21   6 C    3.990 --    22 C    1.448    20 C    1.434    53 H    0.969
                            14 C    0.105
    22   6 C    3.988 --    21 C    1.448    13 C    1.409    54 H    0.960
                            19 C    0.109
    23   7 N    3.442 --    24 C    1.178    32 C    0.997    12 C    0.954
                            31 O    0.179
    24   6 C    3.948 --    31 O    1.665    23 N    1.178    25 C    1.025
    25   6 C    3.974 --    26 C    1.530    30 C    1.240    24 C    1.025
    26   6 C    3.914 --    25 C    1.530    27 O    1.170    55 H    0.963
                            28 C    0.128
    27   8 O    2.461 --    26 C    1.170    28 C    1.106
    28   6 C    3.910 --    30 C    1.595    27 O    1.106    29 C    1.031
                            26 C    0.128
    29   6 C    3.992 --    28 C    1.031    57 H    0.983    56 H    0.969
                            58 H    0.967
    30   6 C    3.978 --    28 C    1.595    25 C    1.240    59 H    0.967
    31   8 O    2.008 --    24 C    1.665    23 N    0.179
    32   6 C    3.968 --    23 N    0.997    36 N    0.972    60 H    0.940
                            33 C    0.906
    33   6 C    3.917 --    35 O    1.763    34 O    1.165    32 C    0.906
    34   8 O    2.237 --    33 C    1.165    61 H    0.853    35 O    0.181
    35   8 O    2.050 --    33 C    1.763    34 O    0.181
    36   7 N    3.426 --    37 C    1.159    32 C    0.972    11 C    0.958
                            44 O    0.173
    37   6 C    3.945 --    44 O    1.701    36 N    1.159    38 C    1.004
    38   6 C    3.976 --    39 C    1.554    43 C    1.239    37 C    1.004
    39   6 C    3.915 --    38 C    1.554    40 O    1.157    62 H    0.965
                            41 C    0.128
    40   8 O    2.460 --    39 C    1.157    41 C    1.114
    41   6 C    3.911 --    43 C    1.589    40 O    1.114    42 C    1.030
                            39 C    0.128
    42   6 C    3.992 --    41 C    1.030    64 H    0.984    63 H    0.968
                            65 H    0.968
    43   6 C    3.976 --    41 C    1.589    38 C    1.239    66 H    0.972
    44   8 O    2.032 --    37 C    1.701    36 N    0.173
    45   1 H    0.995 --     6 C    0.966
    46   1 H    0.996 --     7 C    0.969
    47   1 H    0.996 --     8 C    0.969
    48   1 H    0.997 --     9 C    0.966
    49   1 H    0.995 --    11 C    0.950
    50   1 H    0.995 --    12 C    0.952
    51   1 H    0.995 --    19 C    0.966
    52   1 H    0.996 --    20 C    0.969
    53   1 H    0.996 --    21 C    0.969
    54   1 H    0.996 --    22 C    0.960
    55   1 H    0.994 --    26 C    0.963
    56   1 H    0.995 --    29 C    0.969
    57   1 H    0.996 --    29 C    0.983
    58   1 H    0.995 --    29 C    0.967
    59   1 H    0.998 --    30 C    0.967
    60   1 H    0.993 --    32 C    0.940
    61   1 H    0.880 --    34 O    0.853
    62   1 H    0.996 --    39 C    0.965
    63   1 H    0.995 --    42 C    0.968
    64   1 H    0.996 --    42 C    0.984
    65   1 H    0.995 --    42 C    0.968
    66   1 H    0.999 --    43 C    0.972
 ---------------------------------------------------------------------------

Topologies differ in total number of bonds
Writing topology from bond orders to xtbtopo.mol

molecular dipole:
                 x           y           z       tot (Debye)
 q only:        0.833       1.857      -0.546
   full:        1.049       2.113      -0.457       6.108
molecular quadrupole (traceless):
                xx          xy          yy          xz          yz          zz
 q only:       18.694      -4.502      10.993       2.834     -16.311     -29.687
  q+dip:       21.483      -4.237       7.024       9.494     -17.060     -28.507
   full:       21.648      -4.831       5.977       7.240     -16.419     -27.625

           -------------------------------------------------
          |                Geometry Summary                 |
           -------------------------------------------------

      molecular mass/u    :      620.4970284
   center of mass at/Å    :       -0.1258393      -0.4962909       0.1616819
  moments of inertia/u·Å² :        0.4893105E+04   0.7216609E+04   0.9593100E+04
rotational constants/cm⁻¹ :        0.3445181E-02   0.2335949E-02   0.1757266E-02

 * 63 selected distances

     #   Z          #   Z                                           value/Å
     2   6 C        3   9 F                                       1.3458088
     2   6 C        4   9 F                                       1.3388028
     2   6 C        5   9 F                                       1.3538101
     1   6 C        6   6 C                                       1.3895947
     6   6 C        7   6 C                                       1.3811042
     7   6 C        8   6 C                                       1.3836219
     8   6 C        9   6 C                                       1.3805182
     1   6 C       10   6 C                                       1.3946855
     9   6 C       10   6 C                                       1.3902253
    11   6 C       12   6 C                                       1.5417521 (max)
    13   6 C       14   6 C                                       1.3964019
    15   6 C       16   9 F                                       1.3547795
    15   6 C       17   9 F                                       1.3435964
    15   6 C       18   9 F                                       1.3398200
    14   6 C       19   6 C                                       1.3897711
    19   6 C       20   6 C                                       1.3811830
    20   6 C       21   6 C                                       1.3829874
    13   6 C       22   6 C                                       1.3896147
    21   6 C       22   6 C                                       1.3809872
    12   6 C       23   7 N                                       1.4658572
    23   7 N       24   6 C                                       1.3683636
    25   6 C       26   6 C                                       1.3735624
    26   6 C       27   8 O                                       1.3317308
    27   8 O       28   6 C                                       1.3526255
    28   6 C       29   6 C                                       1.4855749
    25   6 C       30   6 C                                       1.4285670
    28   6 C       30   6 C                                       1.3621600
    24   6 C       31   8 O                                       1.2174377
    23   7 N       32   6 C                                       1.4372267
    33   6 C       34   8 O                                       1.3255616
    33   6 C       35   8 O                                       1.2011118
    11   6 C       36   7 N                                       1.4601927
    32   6 C       36   7 N                                       1.4490152
    36   7 N       37   6 C                                       1.3742424
    38   6 C       39   6 C                                       1.3665441
    39   6 C       40   8 O                                       1.3360038
    40   8 O       41   6 C                                       1.3502607
    41   6 C       42   6 C                                       1.4858017
    38   6 C       43   6 C                                       1.4266125
    41   6 C       43   6 C                                       1.3618029
    37   6 C       44   8 O                                       1.2122214
     6   6 C       45   1 H                                       1.0787621
     7   6 C       46   1 H                                       1.0786583
     8   6 C       47   1 H                                       1.0792632
     9   6 C       48   1 H                                       1.0797015
    11   6 C       49   1 H                                       1.0955238
    12   6 C       50   1 H                                       1.0955291
    19   6 C       51   1 H                                       1.0787582
    20   6 C       52   1 H                                       1.0787351
    21   6 C       53   1 H                                       1.0794551
    22   6 C       54   1 H                                       1.0776889
    26   6 C       55   1 H                                       1.0713920
    29   6 C       56   1 H                                       1.0889524
    29   6 C       57   1 H                                       1.0854830
    29   6 C       58   1 H                                       1.0891343
    30   6 C       59   1 H                                       1.0676850
    32   6 C       60   1 H                                       1.0967203
    34   8 O       61   1 H                                       0.9723470 (min)
    39   6 C       62   1 H                                       1.0711226
    42   6 C       63   1 H                                       1.0889642
    42   6 C       64   1 H                                       1.0854973
    42   6 C       65   1 H                                       1.0890539
    43   6 C       66   1 H                                       1.0711941

 * 6 distinct bonds (by element types)

   Z      Z             #   av. dist./Å        max./Å        min./Å
   1 H    6 C          21     1.0822512     1.0967203     1.0676850
   6 C    6 C          21     1.4034796     1.5417521     1.3618029
   6 C    7 N           6     1.4258163     1.4658572     1.3683636
   1 H    8 O           1     0.9723470     0.9723470     0.9723470
   6 C    8 O           8     1.2908692     1.3526255     1.2011118
   6 C    9 F           6     1.3461029     1.3547795     1.3388028


optimized geometry written to: xtbopt.xyz


           -------------------------------------------------
          | TOTAL ENERGY             -134.184565651661 Eh   |
          | GRADIENT NORM               0.000329878677 Eh/α |
          | HOMO-LUMO GAP               3.320201506111 eV   |
           -------------------------------------------------

------------------------------------------------------------------------
 * finished run on 2022/03/16 at 22:29:05.337     
------------------------------------------------------------------------
 total:
 * wall-time:     0 d,  0 h,  0 min, 56.542 sec
 *  cpu-time:     0 d,  0 h, 21 min, 23.429 sec
 * ratio c/w:    22.699 speedup
 SCF:
 * wall-time:     0 d,  0 h,  0 min,  0.515 sec
 *  cpu-time:     0 d,  0 h,  0 min,  8.987 sec
 * ratio c/w:    17.465 speedup
 ANC optimizer:
 * wall-time:     0 d,  0 h,  0 min, 55.890 sec
 *  cpu-time:     0 d,  0 h, 21 min, 10.303 sec
 * ratio c/w:    22.729 speedup

