84
 energy: -130.448339648620 gnorm: 0.139551971916 xtb: 6.3.3 (4ae9cef)
C        -1.30531700000000    2.09694000000000   -2.23628300000000
C        -1.99542900000000    3.25266400000000   -2.61503300000000
C        -2.87802700000000    3.88689200000000   -1.72860800000000
C        -3.58224700000000    5.04730300000000   -2.09372500000000
C        -4.46431500000000    5.65923400000000   -1.19964200000000
C        -4.65056700000000    5.12192900000000    0.07034400000000
C        -3.95756300000000    3.97008300000000    0.44622600000000
C        -3.06644800000000    3.34179300000000   -0.44103100000000
C        -2.36030300000000    2.18149500000000   -0.07454900000000
C        -1.46837200000000    1.54841000000000   -0.95754900000000
C        -0.71163700000000    0.28790500000000   -0.57693500000000
C         0.16192000000000    0.42568600000000    0.69873900000000
C         1.42914000000000    1.24425200000000    0.72287400000000
C         2.07344200000000    1.70001400000000   -0.43768500000000
C         3.26047000000000    2.45283300000000   -0.36974800000000
C         3.92740500000000    2.87242700000000   -1.53385500000000
C         5.11567800000000    3.60076200000000   -1.45283500000000
C         5.64800600000000    3.92547800000000   -0.20756300000000
C         4.99501700000000    3.52051400000000    0.95839800000000
C         3.80387700000000    2.78101300000000    0.89208400000000
C         3.14578900000000    2.35698400000000    2.05376800000000
C         1.97621200000000    1.60017400000000    1.96864800000000
N         0.19408000000000   -0.96642900000000    1.19220200000000
C         1.19923200000000   -1.92140700000000    1.14934500000000
C         2.53157600000000   -1.58360600000000    0.63499900000000
C         3.57708900000000   -1.33976800000000    1.52970400000000
C         4.85233900000000   -1.00640400000000    1.04694600000000
C         5.94543700000000   -0.69174300000000    2.03100400000000
C         5.06563100000000   -0.93315100000000   -0.34626300000000
C         6.39909100000000   -0.52998100000000   -0.91454200000000
C         4.01974000000000   -1.26093300000000   -1.22664600000000
C         2.75476300000000   -1.58998100000000   -0.74066900000000
O         1.01639300000000   -3.09248700000000    1.47707200000000
C        -1.14938300000000   -1.50373000000000    0.99614600000000
C        -2.00261900000000   -1.25635300000000    2.27151900000000
O        -3.09868000000000   -0.49507800000000    2.07088800000000
O        -1.74516600000000   -1.63010800000000    3.40761900000000
N        -1.61233700000000   -0.82867700000000   -0.22976800000000
C        -2.38071700000000   -1.44501100000000   -1.20017300000000
C        -3.30451700000000   -2.50987400000000   -0.76384200000000
C        -4.57187700000000   -2.15174100000000   -0.30501000000000
C        -5.45692000000000   -3.14759300000000    0.10576800000000
C        -5.08452500000000   -4.50372200000000    0.06051400000000
C        -6.07921000000000   -5.53432700000000    0.52560500000000
C        -3.78865000000000   -4.85712800000000   -0.37958900000000
C        -3.32868200000000   -6.29170300000000   -0.42566400000000
C        -2.91322900000000   -3.85032100000000   -0.81943900000000
O        -2.36365500000000   -1.13599900000000   -2.38729100000000
H        -0.65323200000000    1.61898000000000   -2.96496200000000
H        -1.84843100000000    3.64785800000000   -3.61741000000000
H        -3.45069700000000    5.48142800000000   -3.08292500000000
H        -5.00697200000000    6.55236300000000   -1.49888000000000
H        -5.33979900000000    5.59032800000000    0.76825000000000
H        -4.11857200000000    3.56487300000000    1.44248900000000
H        -2.52789300000000    1.76050800000000    0.91385700000000
H        -0.09938100000000   -0.05987300000000   -1.42044000000000
H        -0.46671400000000    0.93309400000000    1.44730800000000
H         1.67369500000000    1.45485500000000   -1.41682400000000
H         3.53006800000000    2.62400800000000   -2.51558000000000
H         5.62784200000000    3.90945300000000   -2.36083000000000
H         6.56944900000000    4.49859500000000   -0.14176700000000
H         5.42524400000000    3.78779300000000    1.92198000000000
H         3.54149500000000    2.60617000000000    3.03729500000000
H         1.49602600000000    1.26944400000000    2.88944700000000
H         3.38537000000000   -1.39167400000000    2.60056500000000
H         6.86192200000000   -1.23416200000000    1.77965500000000
H         6.14822600000000    0.38466800000000    2.04059400000000
H         5.66361200000000   -0.99311700000000    3.04763600000000
H         7.12890100000000   -1.33324400000000   -0.76672200000000
H         6.32728300000000   -0.32325600000000   -1.98822400000000
H         6.76094400000000    0.38779100000000   -0.43816500000000
H         4.18710300000000   -1.24545400000000   -2.30249300000000
H         1.95352600000000   -1.83907100000000   -1.42976100000000
H        -1.14366500000000   -2.58421900000000    0.83086700000000
H        -3.50906700000000   -0.44765700000000    2.95911100000000
H        -4.86925400000000   -1.10763200000000   -0.27641900000000
H        -6.44468000000000   -2.86179500000000    0.46149000000000
H        -5.90879100000000   -5.77005900000000    1.58133600000000
H        -7.10511300000000   -5.16450800000000    0.41292800000000
H        -6.01068500000000   -6.45342700000000   -0.06644900000000
H        -2.23638000000000   -6.35371700000000   -0.43740100000000
H        -3.66740400000000   -6.83347500000000    0.46375500000000
H        -3.72005500000000   -6.78465900000000   -1.32052600000000
H        -1.92585400000000   -4.10873900000000   -1.19926000000000
84
 energy: -130.467377060220 gnorm: 0.054545783160 xtb: 6.3.3 (4ae9cef)
C        -1.30909572120136    2.10353948603900   -2.23225929254999
C        -1.98836115195697    3.24079924871901   -2.61214411136571
C        -2.87347309537446    3.88469054465381   -1.73013775344339
C        -3.58364357902105    5.04627478344073   -2.09054000279945
C        -4.45274278833960    5.64502887081563   -1.20508091809456
C        -4.63946989774532    5.10359127161445    0.06852166776693
C        -3.95665697656954    3.96773636947463    0.44681802409000
C        -3.06130499148395    3.33267977777885   -0.43608650991117
C        -2.35217232725764    2.16884851869386   -0.07665156141777
C        -1.47307018422671    1.55251270586223   -0.95216360428551
C        -0.71261033617652    0.29786213006859   -0.57316812910265
C         0.14963807602205    0.42030551833911    0.70955451765049
C         1.44350062285232    1.20876988325996    0.70694953933359
C         2.07252924792399    1.66865263032857   -0.43695375347916
C         3.25433279374738    2.43761135187292   -0.37447470918994
C         3.92739944628396    2.86801576522632   -1.53409038307242
C         5.09955356632956    3.58837475231790   -1.44733725959256
C         5.63357628347783    3.91716545003065   -0.19952573258141
C         4.99305222599142    3.51815258784165    0.95304739002892
C         3.80158212595729    2.77071348668669    0.89191551559646
C         3.13122281310033    2.33484067130193    2.04761809558255
C         1.98468688557998    1.57781806168034    1.95480945786805
N         0.19204555352391   -0.97862709746252    1.17834492746277
C         1.19142716446540   -1.92414960776003    1.13195475370581
C         2.53333925851289   -1.54797549800084    0.63444310825398
C         3.58060475254982   -1.31522319652610    1.51590221253643
C         4.84864864619939   -0.99613419838258    1.04053778961910
C         5.94398790782459   -0.69387555842163    2.02092498124782
C         5.06277914456960   -0.92886299725949   -0.34315085495625
C         6.39468000088725   -0.52861837153934   -0.90718196137332
C         4.02323963262497   -1.25050847060500   -1.21260297943815
C         2.76200519287403   -1.55988282108832   -0.73446746177521
O         0.98316944334655   -3.07899808919445    1.45992963604318
C        -1.15821611608586   -1.48626634702823    0.99724569938046
C        -1.99427526165809   -1.22653714302791    2.26182832995554
O        -3.09971771823579   -0.49158716483873    2.06309391510422
O        -1.72582493197192   -1.63056450358212    3.36309238656538
N        -1.61713754888344   -0.81339095079115   -0.21930767002472
C        -2.36893211325090   -1.42926348728456   -1.18914374147651
C        -3.29007354043071   -2.50588604509714   -0.73078507051501
C        -4.56065925092292   -2.15923372352263   -0.28946239812354
C        -5.44294833177512   -3.15418371786325    0.09806124240114
C        -5.07804668962181   -4.49936139808417    0.05971173412733
C        -6.07036544977266   -5.53176614023254    0.51790926667983
C        -3.79456524601828   -4.84925234198064   -0.38233231742633
C        -3.33629368217038   -6.28106887081958   -0.42073493923288
C        -2.92044015983687   -3.84488777965761   -0.79689663042062
O        -2.34363598363978   -1.09198957705931   -2.35869435064160
H        -0.65665927481824    1.62317872983687   -2.95007609820414
H        -1.84461682979944    3.63805372220216   -3.60840141009370
H        -3.44918871748037    5.47480786944478   -3.07548919662896
H        -4.99308916201192    6.53648957218401   -1.49843729446019
H        -5.32426916358905    5.57626334310123    0.76154792591333
H        -4.11422929752366    3.56135310798296    1.43739745663773
H        -2.52292250265903    1.74694769247685    0.90511630950562
H        -0.09920428188151   -0.03337884447478   -1.42346965121865
H        -0.48436837163469    0.92871656576784    1.45546531423514
H         1.66524857764835    1.44207675734549   -1.41137736731503
H         3.52736472647006    2.62283196452850   -2.50887961028903
H         5.61013079509605    3.90139213284208   -2.34941309419671
H         6.55243339946599    4.48705259774536   -0.13752682499655
H         5.41670166320492    3.78105737876638    1.91442392993484
H         3.52265299862959    2.59385040237523    3.02388704204409
H         1.49355934974294    1.26168811236435    2.86769932506613
H         3.39472448042009   -1.37861779433224    2.58038984101691
H         6.86057725626204   -1.22603958828438    1.76732318775437
H         6.15579559680047    0.37647158987593    2.02875338107894
H         5.65258466634197   -0.98796891761275    3.03025142786216
H         7.12802964751636   -1.32207248169139   -0.75674845403675
H         6.31925089128218   -0.33452950723933   -1.97741103966082
H         6.76188556358444    0.37917975169271   -0.42779022209864
H         4.19486941980314   -1.24285719863641   -2.28188770811470
H         1.96569952995197   -1.82063270587892   -1.42017382638459
H        -1.13496502544222   -2.57468239184993    0.85397636541185
H        -3.53333114818488   -0.43772056847137    2.93585725464578
H        -4.85888865440816   -1.11996580399833   -0.26528907851756
H        -6.42980545039435   -2.87623517376562    0.44721681607458
H        -5.90280478042519   -5.77586923178162    1.56826386537409
H        -7.08906212907581   -5.15448607372948    0.41908284296734
H        -5.99793763947056   -6.44907700677241   -0.06522844641059
H        -2.24832079833503   -6.33738746482638   -0.44685141701615
H        -3.67644069080901   -6.82798582148585    0.45850304836086
H        -3.72377712546933   -6.77995332875886   -1.30985141946926
H        -1.94089322982497   -4.10783915587968   -1.17769326948194
84
 energy: -130.473134263095 gnorm: 0.014533422554 xtb: 6.3.3 (4ae9cef)
C        -1.30313301586764    2.10504647862982   -2.22787012081655
C        -1.97807724475406    3.22847879721843   -2.60851253224847
C        -2.86731925401832    3.87686707079304   -1.72873530315000
C        -3.58051383303439    5.03980249006214   -2.08716327935219
C        -4.44143417847083    5.63158299711478   -1.20764264775097
C        -4.62873075882171    5.08662799518781    0.07072746863534
C        -3.95416245000515    3.95990951845190    0.44853639211324
C        -3.05621978808278    3.32104511425595   -0.43299512751583
C        -2.34550506053832    2.15556425802662   -0.07610191327545
C        -1.47162978526420    1.55322595073872   -0.94433921241180
C        -0.71301385199809    0.30221490059214   -0.56920428831853
C         0.14188683142107    0.41380277738823    0.71406334827671
C         1.44485815460231    1.18422976806617    0.69307412363229
C         2.06687317879618    1.63691762017230   -0.43998452301444
C         3.25053823673553    2.40743325069321   -0.37821920945573
C         3.92270074145725    2.85188545142369   -1.53615108263622
C         5.08038762111664    3.57345456271689   -1.44601610500806
C         5.61722141865030    3.90335803196963   -0.19383091762207
C         4.98533127773001    3.50353863556473    0.94945497694875
C         3.79795273773264    2.74416408702283    0.88978554329286
C         3.11990234272655    2.30052161954530    2.04308222221681
C         1.98589755809725    1.54939257813803    1.94624492281276
N         0.18807688015140   -0.98647005880523    1.16209621247746
C         1.18449087150529   -1.92465484386838    1.12090247746878
C         2.53109686701080   -1.51406152559003    0.63746542980128
C         3.58098329171179   -1.28535742608095    1.50990877952190
C         4.84524603093115   -0.97343535713741    1.03726999634198
C         5.94596998246880   -0.68798827613996    2.01243205522357
C         5.06174299260359   -0.91150826581604   -0.34155798641297
C         6.39697594065317   -0.52529191387987   -0.89993869006882
C         4.02290470053530   -1.22417397375438   -1.20496640619126
C         2.76308316434373   -1.52566707989942   -0.73003211589576
O         0.94876873838430   -3.07484645202535    1.42514788818703
C        -1.16992710621224   -1.46880211603984    0.99699680552693
C        -1.99969695163696   -1.21173712906520    2.25265456630423
O        -3.09848407806431   -0.47872296423697    2.04694131832038
O        -1.70133465854893   -1.61457948385342    3.33867410086334
N        -1.62334412644855   -0.80071662220715   -0.21285697146561
C        -2.36421770894021   -1.40896344054604   -1.18549924852156
C        -3.27690804022446   -2.49851632090853   -0.71111917128013
C        -4.54918740421492   -2.15891132507901   -0.27431060933492
C        -5.42932184105678   -3.15442387083528    0.10183707083219
C        -5.07000690329929   -4.49448009754881    0.06500634191225
C        -6.06161420620858   -5.52969900907727    0.51111059367860
C        -3.79043208557544   -4.84064617570575   -0.37322526237017
C        -3.33899567452577   -6.27100613315726   -0.41896023793169
C        -2.91794997575228   -3.83719854375538   -0.77562679340937
O        -2.33422760621487   -1.04036703828537   -2.34036728615774
H        -0.64779770661991    1.61827002450188   -2.93416372342056
H        -1.84104263336955    3.63107549906359   -3.60125703719694
H        -3.43869555370856    5.46029590194419   -3.07197600292561
H        -4.98293699314598    6.52155618913755   -1.49447070503416
H        -5.31310754383840    5.56345276172041    0.75757885688208
H        -4.10533432388815    3.54736918735701    1.43531845657288
H        -2.52435416416904    1.73260478691976    0.90141392004252
H        -0.09980085407691   -0.01731223903356   -1.42330135193600
H        -0.48894564202851    0.92158401119510    1.46234751960652
H         1.66190796391909    1.41736031289191   -1.41493897354140
H         3.51419689971153    2.60946861220024   -2.50545610767655
H         5.59056696204672    3.89412640401165   -2.34267079704755
H         6.53237566857120    4.47540040745583   -0.13695638379034
H         5.39676352741605    3.76429970438591    1.91408952822188
H         3.50813258789079    2.57529428447040    3.01335978938827
H         1.48709830538060    1.23099469600503    2.84998124415753
H         3.39996524384990   -1.34992266052089    2.57199448831423
H         6.85701517842296   -1.22131525320452    1.75067811225172
H         6.16961079796576    0.37874540345104    2.01768751674531
H         5.64800831760658   -0.97967463070047    3.01624645655213
H         7.12903454028042   -1.31632225034989   -0.73990788594336
H         6.32141638965058   -0.34272682776604   -1.96886755651559
H         6.76584815538280    0.37777864880285   -0.41887178677532
H         4.20130443092873   -1.22962079720378   -2.27044265162597
H         1.96740544071268   -1.78428489240502   -1.41413070965367
H        -1.13547111010919   -2.56408874437409    0.87913210861995
H        -3.56549824670942   -0.40635118929365    2.89923351188966
H        -4.84616156250627   -1.12187392605621   -0.24546749546454
H        -6.42171658960055   -2.88396044295787    0.43400644256694
H        -5.89009811151249   -5.78622687186045    1.55713231048257
H        -7.07526246161017   -5.14469538035978    0.42438391236913
H        -5.98602897212796   -6.44014729416216   -0.07615653789535
H        -2.25383506891611   -6.32455115322016   -0.45983428773767
H        -3.67790439409462   -6.81712090968242    0.45752151420323
H        -3.73475869419643   -6.77087449401473   -1.30342533687090
H        -1.93939975509418   -4.10544438882279   -1.14799595058753
84
 energy: -130.474961513279 gnorm: 0.013237041226 xtb: 6.3.3 (4ae9cef)
C        -1.29077292591869    2.10268428130778   -2.22483492499080
C        -1.96810093016372    3.22232979533863   -2.60636604638210
C        -2.86068585151171    3.86793159028938   -1.72601520347894
C        -3.57411482984813    5.03073365316646   -2.08531627703387
C        -4.43537943874416    5.62131783142828   -1.20671019155884
C        -4.62401839186356    5.07486914819320    0.07323222010670
C        -3.95097145217299    3.94882622539147    0.45035880595517
C        -3.05200821564782    3.31172694961561   -0.43209712605773
C        -2.34272280683496    2.14606445320384   -0.07436587692129
C        -1.46542991194638    1.55057694158818   -0.94066501532391
C        -0.71177549882284    0.30056227547996   -0.56709022410393
C         0.13788688525583    0.40664896595724    0.71562156793697
C         1.44223103436701    1.16357242603422    0.68780571023034
C         2.06287800282885    1.60999236013310   -0.44545139766938
C         3.24756479739096    2.37822258386196   -0.38120129945263
C         3.91544027945183    2.82879307574696   -1.53979804189917
C         5.06715451678983    3.55718164810579   -1.44865642980164
C         5.60409877480093    3.88709380479272   -0.19417384222141
C         4.97600050101924    3.48054882210514    0.94777252767858
C         3.79270679217487    2.71491850486268    0.88643747518067
C         3.11600953001001    2.26944446610705    2.04145585971947
C         1.98427357050129    1.51934127760099    1.94430993116815
N         0.18392434312423   -0.99193787938904    1.15330853580762
C         1.18032720960387   -1.92728609481246    1.10920001025178
C         2.52706301973444   -1.49406484027398    0.63880360172220
C         3.57643216127054   -1.25867669495786    1.51045283858583
C         4.84149332979206   -0.94823186812102    1.03776295868913
C         5.94836816891400   -0.67439195652723    2.00833757940690
C         5.06124423875714   -0.89038570687722   -0.34037633790970
C         6.40222828745365   -0.51844896512829   -0.89347128025587
C         4.01998372418049   -1.19435966754010   -1.20403900331242
C         2.75971155005249   -1.49547472612485   -0.72959697400511
O         0.93785567958441   -3.08207493726669    1.39062631540996
C        -1.17806208596606   -1.46192901053668    0.99751168120725
C        -1.99823234133315   -1.18011816397798    2.25363027206154
O        -3.10452254487715   -0.46656318091751    2.02956387049146
O        -1.69758532217514   -1.58731905137284    3.33833674100171
N        -1.62645733134151   -0.79539468215701   -0.21042056448150
C        -2.36890412270943   -1.39277208891419   -1.18534720416405
C        -3.27171813750347   -2.48940224935625   -0.70526038737024
C        -4.54294761652165   -2.15163577684521   -0.26294150275445
C        -5.42270925883330   -3.14842918435525    0.10978465469634
C        -5.06356514216402   -4.48832671822617    0.06943981499390
C        -6.05360024564738   -5.52771875235575    0.50623400659455
C        -3.78183983825797   -4.83176864609921   -0.36454591621602
C        -3.33520789580615   -6.26225959343235   -0.41708664566423
C        -2.90940789202080   -3.82711244997109   -0.76283677786523
O        -2.34452221211437   -1.00345547555750   -2.33339158828141
H        -0.63006375202270    1.61247452451812   -2.92344881589053
H        -1.83503766956312    3.62906558369122   -3.59822467845860
H        -3.42660410749020    5.44684042604041   -3.07144733606786
H        -4.97741356452077    6.51177717359724   -1.48937065136797
H        -5.30818792431041    5.55493659439782    0.75744975048608
H        -4.09810998714738    3.53036261951800    1.43571069990484
H        -2.52798307943011    1.72031225985875    0.90105274227941
H        -0.09930728174851   -0.01845931360748   -1.42082224067915
H        -0.48819747163566    0.91529972283332    1.46684176823419
H         1.66027812024971    1.39176665018548   -1.42218598509461
H         3.50053560839565    2.58657048489106   -2.50685276676884
H         5.57390957382817    3.88931339120108   -2.34281179484453
H         6.51414711036244    4.46680217724453   -0.14005322430000
H         5.37909521329684    3.74080802006702    1.91631533122891
H         3.50754302385871    2.54657185029709    3.00946028318007
H         1.47978135906919    1.19419670252321    2.84212568024578
H         3.39793764624049   -1.32022324120044    2.57322054719696
H         6.85159804337101   -1.21765401633258    1.73949932443395
H         6.18547512189104    0.38992014268353    2.01133932625043
H         5.65072087567494   -0.96383765668609    3.01207045405312
H         7.12837093422170   -1.31274976192085   -0.72042803800982
H         6.33425643545864   -0.34566794069980   -1.96416011512785
H         6.77349599721046    0.38542715835626   -0.41567520966599
H         4.20068813922302   -1.20016991646623   -2.26889371104101
H         1.96301213469968   -1.74624759047414   -1.41463622306509
H        -1.14826501133931   -2.56002302439041    0.89364184929884
H        -3.60135240464788   -0.38510342754657    2.86445553512284
H        -4.83915608662364   -1.11470222539236   -0.22877680057693
H        -6.41781505904161   -2.88146855126687    0.43604373886268
H        -5.87468709159070   -5.80005114469716    1.54774548586326
H        -7.06635314778122   -5.13882517275223    0.43132550771495
H        -5.98012923555429   -6.42921979835621   -0.09486979472882
H        -2.25109736758799   -6.31845759469759   -0.47227431145131
H        -3.66791251604801   -6.80742492054308    0.46231092333817
H        -3.74505263104679   -6.75899373230622   -1.29749824234924
H        -1.92773210423300   -4.09700817178489   -1.12610990792670
84
 energy: -130.476417570542 gnorm: 0.009425681661 xtb: 6.3.3 (4ae9cef)
C        -1.27305697778040    2.09966643422201   -2.22038233923179
C        -1.95393961680863    3.21756010289182   -2.60307697621715
C        -2.85161903313122    3.85662073792737   -1.72218787588584
C        -3.56473041546985    5.01888454795014   -2.08284901554407
C        -4.42835127105881    5.60866307088951   -1.20420497154699
C        -4.61943671764118    5.06098647907454    0.07589653905284
C        -3.94738102163936    3.93332204869863    0.45209926204136
C        -3.04729339265867    3.30011556658708   -0.43174023338010
C        -2.34085772502217    2.13429177366609   -0.07281119800013
C        -1.45720761927467    1.54527338776309   -0.93797725231851
C        -0.71106067436434    0.29495265251855   -0.56328111773933
C         0.13433699176569    0.39559272513217    0.71855053950322
C         1.43757129421595    1.14040291457240    0.68622149093149
C         2.05747586798167    1.57883545075344   -0.45071217803718
C         3.24435794772789    2.34125040605769   -0.38418652547414
C         3.90561204450818    2.79616697066031   -1.54449941884081
C         5.05142963394713    3.53503352723003   -1.45328725287148
C         5.58814382542468    3.86443067518935   -0.19756548688733
C         4.96613254662237    3.44686851764842    0.94510131167398
C         3.78804563955888    2.67504561635275    0.88224648268631
C         3.11802007292991    2.22792194912884    2.04114192088229
C         1.98312909776026    1.48287862671574    1.94494841914931
N         0.17847916913685   -1.00065302050210    1.14806575827385
C         1.17697449356470   -1.93232420322440    1.09222146428424
C         2.52269222793947   -1.47510915951127    0.63900833596760
C         3.56958454339213   -1.22900253827410    1.51208936142768
C         4.83555529375177   -0.91550053407687    1.03939625572035
C         5.94857459435998   -0.65124437258112    2.00542876460266
C         5.05900123520391   -0.85877465825512   -0.33865094881068
C         6.40800509926347   -0.50536626568657   -0.88479646830681
C         4.01497218618472   -1.15083375803835   -1.20490900933633
C         2.75586634954897   -1.45942544137830   -0.73059538752676
O         0.93572275933005   -3.09552023963245    1.34261096295169
C        -1.18737052585730   -1.46022454277909    0.99960531585091
C        -2.01213937943647   -1.16004473512756    2.25182945902133
O        -3.11327945838687   -0.45098741743336    2.00231213741043
O        -1.69815038029992   -1.53071237124157    3.34691181642684
N        -1.62932594576988   -0.79514802659150   -0.20869889146399
C        -2.38037889464161   -1.37550379219974   -1.18583558825280
C        -3.27124904106711   -2.47802669205205   -0.70379731170768
C        -4.54054538907488   -2.14138043853606   -0.25357891104583
C        -5.41776480154834   -3.13964234841683    0.12171542666364
C        -5.05577763849251   -4.47964844166862    0.07533391249734
C        -6.04289062715560   -5.52562448262781    0.50014599672951
C        -3.77040118260909   -4.81966096510506   -0.35405345640886
C        -3.32714883815701   -6.25027481247108   -0.41313872537855
C        -2.89900020506311   -3.81319274004917   -0.75087029986981
O        -2.36826968812207   -0.96264542599089   -2.32629675170842
H        -0.60423599491590    1.60808490467985   -2.91062395317510
H        -1.82260601541351    3.62902419423629   -3.59373779138568
H        -3.41171629918361    5.43220189342769   -3.06988994610636
H        -4.97138387376126    6.49952086286012   -1.48337618309478
H        -5.30458340641032    5.54333177811043    0.75757723445681
H        -4.09174281373263    3.50822131789801    1.43577534571394
H        -2.53245696536564    1.70370706206582    0.89968547868069
H        -0.09821894673252   -0.02751739744046   -1.41460251824600
H        -0.48777779054472    0.90607532043506    1.47166720130446
H         1.65611337818945    1.35998231845145   -1.42833673767809
H         3.48540518749794    2.55117748659906   -2.50932911690295
H         5.55365546495704    3.87921947526630   -2.34558816411357
H         6.49225683508879    4.45351440822711   -0.14611238480583
H         5.36353974987746    3.70482407842783    1.91706179303626
H         3.51756404510687    2.50013183579722    3.00732540038502
H         1.47458720983870    1.14613311967949    2.83650642563440
H         3.39306405007390   -1.28507137321521    2.57615770000725
H         6.84150477737834   -1.20993557118490    1.73080202025542
H         6.20376860559378    0.40953164907875    2.00379567188575
H         5.65379346144472   -0.93465070557877    3.01177252709841
H         7.12465915804380   -1.30498919089613   -0.69205626978783
H         6.35390186578579   -0.34698172999525   -1.95893186004653
H         6.78321123706395    0.40186539399506   -0.41511362884987
H         4.19555730703101   -1.14718712698437   -2.26997240862552
H         1.95796245808439   -1.69983431902002   -1.41797136451159
H        -1.16825191555785   -2.55906957274618    0.90824222320637
H        -3.63406698993689   -0.33881397789424    2.81878074732946
H        -4.83615846431215   -1.10414419964960   -0.21409113560754
H        -6.41308946599816   -2.87580167379271    0.44961868221674
H        -5.85094866218523   -5.82414982634023    1.53329491962816
H        -7.05588207211292   -5.13278841627729    0.44576091061316
H        -5.97700479984442   -6.41261675890676   -0.12505934303515
H        -2.24425389224205   -6.31073023698740   -0.49070956684259
H        -3.64530372323733   -6.79381290395997    0.47351457904513
H        -3.75873606254966   -6.74422869664205   -1.28567150832795
H        -1.91318109060688   -4.08251517990320   -1.10506232131212
84
 energy: -130.477235223229 gnorm: 0.008322862871 xtb: 6.3.3 (4ae9cef)
C        -1.25761728626517    2.09826471985256   -2.21628521530711
C        -1.93978204911955    3.21651654970084   -2.59915735914732
C        -2.84295321631814    3.84891268323472   -1.71924433772040
C        -3.55626226061255    5.01062510381077   -2.08028908725583
C        -4.42296171904288    5.59841459529837   -1.20173222869348
C        -4.61697418992487    5.04927090884361    0.07683980951999
C        -3.94554742252995    3.91982577877916    0.45215536129142
C        -3.04346988366495    3.29058888304142   -0.43197639222060
C        -2.33894278877967    2.12444420241765   -0.07327190859458
C        -1.45009097249386    1.53945281441296   -0.93770317212070
C        -0.70942957048361    0.28745258632982   -0.56128223045489
C         0.13241014938917    0.38553040277480    0.72215549130623
C         1.43435311926753    1.12546438756572    0.68976238440453
C         2.05258658044026    1.55871406417448   -0.45094072776677
C         3.24264573188217    2.31395373114439   -0.38530565371682
C         3.89867016852992    2.76896110591930   -1.54769946247659
C         5.04138276812149    3.51422430252072   -1.45816303911235
C         5.57913766935725    3.84283156276749   -0.20319323259335
C         4.96449912868399    3.41640889846626    0.94142836235650
C         3.78906042331348    2.64215996213071    0.87983144414419
C         3.12768423939376    2.19243185327294    2.04242023801128