      -----------------------------------------------------------      
     |                   =====================                   |     
     |                           x T B                           |     
     |                   =====================                   |     
     |                         S. Grimme                         |     
     |          Mulliken Center for Theoretical Chemistry        |     
     |                    University of Bonn                     |     
      -----------------------------------------------------------      

   * xtb version 6.3.3 (4ae9cef) compiled by 'conda@95abc7406d43' on 2020-10-14

   xtb is free software: you can redistribute it and/or modify it under
   the terms of the GNU Lesser General Public License as published by
   the Free Software Foundation, either version 3 of the License, or
   (at your option) any later version.
   
   xtb is distributed in the hope that it will be useful,
   but WITHOUT ANY WARRANTY; without even the implied warranty of
   MERCHANTABILITY or FITNESS FOR A PARTICULAR PURPOSE.  See the
   GNU Lesser General Public License for more details.
   
   Cite this work as:
   * C. Bannwarth, E. Caldeweyher, S. Ehlert, A. Hansen, P. Pracht,
     J. Seibert, S. Spicher, S. Grimme, WIREs Comput. Mol. Sci., 2020,
     e01493. DOI: 10.1002/wcms.1493
   
   for GFN2-xTB:
   * S. Grimme, C. Bannwarth, P. Shushkov, J. Chem. Theory Comput., 2017,
     13, 1989-2009. DOI: 10.1021/acs.jctc.7b00118
   for GFN1-xTB:
   * C. Bannwarth, S. Ehlert and S. Grimme., J. Chem. Theory Comput., 2019,
     15, 1652-1671. DOI: 10.1021/acs.jctc.8b01176
   for GFN0-xTB:
   * P. Pracht, E. Caldeweyher, S. Ehlert, S. Grimme, ChemRxiv, 2019, preprint.
     DOI: 10.26434/chemrxiv.8326202.v1
   for GFN-FF:
   * S. Spicher and S. Grimme, Angew. Chem. Int. Ed., 2020, 59, 15665-15673.
     DOI: 10.1002/anie.202004239
   
   for DFT-D4:
   * E. Caldeweyher, C. Bannwarth and S. Grimme, J. Chem. Phys., 2017,
     147, 034112. DOI: 10.1063/1.4993215
   * E. Caldeweyher, S. Ehlert, A. Hansen, H. Neugebauer, S. Spicher,
     C. Bannwarth and S. Grimme, J. Chem. Phys., 2019, 150, 154122.
     DOI: 10.1063/1.5090222
   * E. Caldeweyher, J.-M. Mewes, S. Ehlert and S. Grimme, Phys. Chem. Chem. Phys.
     2020, 22, 8499-8512. DOI: 10.1039/D0CP00502A
   
   for sTDA-xTB:
   * S. Grimme and C. Bannwarth, J. Chem. Phys., 2016, 145, 054103.
     DOI: 10.1063/1.4959605
   
   in the mass-spec context:
   * V. Asgeirsson, C. Bauer and S. Grimme, Chem. Sci., 2017, 8, 4879.
     DOI: 10.1039/c7sc00601b
   * J. Koopman and S. Grimme, ACS Omega 2019, 4, 12, 15120-15133.
     DOI: 10.1021/acsomega.9b02011
   
   for metadynamics refer to:
   * S. Grimme, J. Chem. Theory Comput., 2019, 155, 2847-2862
     DOI: 10.1021/acs.jctc.9b00143
   
   with help from (in alphabetical order)
   C. Bannwarth, F. Bohle, G. Brandenburg, E. Caldeweyher, M. Checinski,
   S. Dohm, S. Ehlert, S. Ehrlich, F. März, H. Neugebauer, J. Pisarek,
   P. Pracht, P. Shushkov, and S. Spicher.
   
 * started run on 2022/03/17 at 02:12:31.079     

           -------------------------------------------------
          |                Calculation Setup                |
           -------------------------------------------------

          program call               : xtb acid_9.xyz --opt --chrg 0 --uhf 0 --gfn 2
          coordinate file            : acid_9.xyz
          omp threads                :                    64
          number of atoms            :                    66
          number of electrons        :                   218
          charge                     :                     0
          spin                       :                   0.0
          first test random number   :      0.97546512845724

   ID    Z sym.   atoms
    1    6 C      1-22, 24-28, 32, 33, 37-41
    2    7 N      23, 36
    3   17 Cl     29, 42
    4    8 O      30, 31, 34, 35, 43, 44
    5    1 H      45-66

           -------------------------------------------------
          |                 G F N 2 - x T B                 |
           -------------------------------------------------

        Reference                      10.1021/acs.jctc.8b01176
      * Hamiltonian:
        H0-scaling (s, p, d)           1.850000    2.230000    2.230000
        zeta-weighting                 0.500000
      * Dispersion:
        s8                             2.700000
        a1                             0.520000
        a2                             5.000000
        s9                             5.000000
      * Repulsion:
        kExp                           1.500000    1.000000
        rExp                           1.000000
      * Coulomb:
        alpha                          2.000000
        third order                    shell-resolved
        anisotropic                    true
        a3                             3.000000
        a5                             4.000000
        cn-shift                       1.200000
        cn-exp                         4.000000
        max-rad                        5.000000


          ...................................................
          :                      SETUP                      :
          :.................................................:
          :  # basis functions                 210          :
          :  # atomic orbitals                 208          :
          :  # shells                          112          :
          :  # electrons                       218          :
          :  max. iterations                   250          :
          :  Hamiltonian                  GFN2-xTB          :
          :  restarted?                      false          :
          :  GBSA solvation                  false          :
          :  PC potential                    false          :
          :  electronic temp.          300.0000000     K    :
          :  accuracy                    1.0000000          :
          :  -> integral cutoff          0.2500000E+02      :
          :  -> integral neglect         0.1000000E-07      :
          :  -> SCF convergence          0.1000000E-05 Eh   :
          :  -> wf. convergence          0.1000000E-03 e    :
          :  Broyden damping             0.4000000          :
          ...................................................

 iter      E             dE          RMSdq      gap      omega  full diag
   1   -124.7657291 -0.124766E+03  0.455E+00    2.39       0.0  T
   2   -124.9009400 -0.135211E+00  0.279E+00    2.55       1.0  T
   3   -124.8819913  0.189488E-01  0.147E+00    2.63       1.0  T
   4   -124.9386236 -0.566324E-01  0.383E-01    2.23       1.0  T
   5   -124.9456407 -0.701706E-02  0.120E-01    2.25       1.0  T
   6   -124.9458951 -0.254377E-03  0.700E-02    2.26       1.0  T
   7   -124.9460059 -0.110870E-03  0.476E-02    2.26       1.0  T
   8   -124.9460544 -0.484688E-04  0.316E-02    2.27       1.0  T
   9   -124.9460758 -0.214291E-04  0.219E-02    2.28       1.0  T
  10   -124.9460832 -0.737423E-05  0.161E-02    2.28       1.0  T
  11   -124.9460921 -0.892565E-05  0.708E-03    2.28       1.7  T
  12   -124.9460932 -0.106533E-05  0.326E-03    2.28       3.8  T
  13   -124.9460934 -0.232082E-06  0.172E-03    2.28       7.2  T
  14   -124.9460935 -0.555968E-07  0.108E-03    2.28      11.4  T
  15   -124.9460935 -0.249611E-07  0.722E-04    2.28      17.1  T
  16   -124.9460935 -0.831105E-08  0.377E-04    2.28      32.7  T

   *** convergence criteria satisfied after 16 iterations ***

         #    Occupation            Energy/Eh            Energy/eV
      -------------------------------------------------------------
         1        2.0000           -1.0825353             -29.4573
       ...           ...                  ...                  ...
       103        2.0000           -0.4089740             -11.1287
       104        2.0000           -0.4047460             -11.0137
       105        2.0000           -0.4028826             -10.9630
       106        2.0000           -0.4014119             -10.9230
       107        2.0000           -0.4007991             -10.9063
       108        2.0000           -0.3760957             -10.2341
       109        2.0000           -0.3709680             -10.0946 (HOMO)
       110                         -0.2872787              -7.8173 (LUMO)
       111                         -0.2843050              -7.7363
       112                         -0.2771738              -7.5423
       113                         -0.2712864              -7.3821
       114                         -0.2671463              -7.2694
       ...                                ...                  ...
       208                          0.6709095              18.2564
      -------------------------------------------------------------
                  HL-Gap            0.0836893 Eh            2.2773 eV
             Fermi-level           -0.3291233 Eh           -8.9559 eV

 SCC (total)                   0 d,  0 h,  0 min,  0.624 sec
 SCC setup                      ...        0 min,  0.012 sec (  1.887%)
 Dispersion                     ...        0 min,  0.013 sec (  2.080%)
 classical contributions        ...        0 min,  0.014 sec (  2.221%)
 integral evaluation            ...        0 min,  0.113 sec ( 18.071%)
 iterations                     ...        0 min,  0.340 sec ( 54.398%)
 molecular gradient             ...        0 min,  0.131 sec ( 20.900%)
 printout                       ...        0 min,  0.003 sec (  0.430%)

         :::::::::::::::::::::::::::::::::::::::::::::::::::::
         ::                     SUMMARY                     ::
         :::::::::::::::::::::::::::::::::::::::::::::::::::::
         :: total energy            -123.383550281882 Eh    ::
         :: gradient norm              0.142685616865 Eh/a0 ::
         :: HOMO-LUMO gap              2.277301225997 eV    ::
         ::.................................................::
         :: SCC energy              -124.946093512862 Eh    ::
         :: -> isotropic ES            0.139906065494 Eh    ::
         :: -> anisotropic ES          0.005454167998 Eh    ::
         :: -> anisotropic XC          0.039149442511 Eh    ::
         :: -> dispersion             -0.096443708185 Eh    ::
         :: repulsion energy           1.559513941050 Eh    ::
         :: add. restraining           0.000000000000 Eh    ::
         :: total charge              -0.000000000000 e     ::
         :::::::::::::::::::::::::::::::::::::::::::::::::::::

      ----------------------------------------------------------- 
     |                   =====================                   |
     |                        A N C O P T                        |
     |                   =====================                   |
     |               Approximate Normal Coordinate               |
     |                Rational Function Optimizer                |
      ----------------------------------------------------------- 

          ...................................................
          :                      SETUP                      :
          :.................................................:
          :   optimization level            normal          :
          :   max. optcycles                   200          :
          :   ANC micro-cycles                  20          :
          :   degrees of freedom               192          :
          :.................................................:
          :   RF solver                   davidson          :
          :   write xtbopt.log                true          :
          :   linear?                        false          :
          :   energy convergence         0.5000000E-05 Eh   :
          :   grad. convergence          0.1000000E-02 Eh/α :
          :   maximium RF displ.         1.0000000          :
          :   Hlow (freq-cutoff)         0.1000000E-01      :
          :   Hmax (freq-cutoff)         5.0000000          :
          :   S6 in model hess.         20.0000000          :
          ...................................................

generating ANC from model Hessian ...
Using Lindh-Hessian (1995)
 Shifting diagonal of input Hessian by    9.8681442584950679E-003
 Lowest  eigenvalues of input Hessian
    0.000000    0.000000    0.000000    0.000000    0.000000    0.000000
    0.010000    0.010094    0.010236    0.010262    0.010287    0.010519
    0.010563    0.010786    0.011202    0.011870    0.012003    0.012166
 Highest eigenvalues
    1.979257    2.032594    2.034158    2.186785    2.224007    2.245475


........................................................................
.............................. CYCLE    1 ..............................
........................................................................
   1   -124.9460935 -0.124946E+03  0.242E-04    2.28       0.0  T
   2   -124.9460935 -0.504599E-09  0.188E-04    2.28      65.6  T
   3   -124.9460935 -0.298456E-09  0.156E-04    2.28      79.0  T
     SCC iter.                  ...        0 min,  0.066 sec
     gradient                   ...        0 min,  0.129 sec
 * total energy  :  -123.3835503 Eh     change       -0.4040174E-08 Eh
   gradient norm :     0.1426838 Eh/α   predicted     0.0000000E+00 (-100.00%)
   displ. norm   :     0.3900384 α      lambda       -0.2846001E-01
   maximum displ.:     0.1367784 α      in ANC's #52, #22, #26, ...

........................................................................
.............................. CYCLE    2 ..............................
........................................................................
   1   -125.0435927 -0.125044E+03  0.194E-01    2.49       0.0  T
   2   -125.0438308 -0.238044E-03  0.126E-01    2.49       1.0  T
   3   -125.0438601 -0.292823E-04  0.760E-02    2.50       1.0  T
   4   -125.0440092 -0.149177E-03  0.213E-02    2.49       1.0  T
   5   -125.0440299 -0.206717E-04  0.107E-02    2.50       1.2  T
   6   -125.0440319 -0.203025E-05  0.821E-03    2.50       1.5  T
   7   -125.0440331 -0.119207E-05  0.584E-03    2.50       2.1  T
   8   -125.0440340 -0.842340E-06  0.314E-03    2.49       3.9  T
   9   -125.0440342 -0.268922E-06  0.174E-03    2.49       7.1  T
  10   -125.0440343 -0.768695E-07  0.898E-04    2.49      13.7  T
  11   -125.0440343 -0.206844E-07  0.326E-04    2.49      37.8  T
     SCC iter.                  ...        0 min,  0.235 sec
     gradient                   ...        0 min,  0.122 sec
 * total energy  :  -123.4037408 Eh     change       -0.2019049E-01 Eh
   gradient norm :     0.0600277 Eh/α   predicted    -0.1639481E-01 ( -18.80%)
   displ. norm   :     0.4267178 α      lambda       -0.1129972E-01
   maximum displ.:     0.2141792 α      in ANC's #22, #26, #52, ...

........................................................................
.............................. CYCLE    3 ..............................
........................................................................
   1   -125.1038119 -0.125104E+03  0.152E-01    2.68       0.0  T
   2   -125.1039779 -0.166035E-03  0.100E-01    2.67       1.0  T
   3   -125.1040248 -0.468203E-04  0.580E-02    2.68       1.0  T
   4   -125.1041002 -0.754623E-04  0.162E-02    2.68       1.0  T
   5   -125.1041110 -0.107630E-04  0.897E-03    2.68       1.4  T
   6   -125.1041121 -0.108985E-05  0.714E-03    2.68       1.7  T
   7   -125.1041131 -0.102855E-05  0.458E-03    2.68       2.7  T
   8   -125.1041137 -0.579055E-06  0.221E-03    2.68       5.6  T
   9   -125.1041138 -0.121809E-06  0.124E-03    2.68       9.9  T
  10   -125.1041138 -0.361067E-07  0.646E-04    2.68      19.1  T
  11   -125.1041139 -0.102577E-07  0.270E-04    2.68      45.6  T
     SCC iter.                  ...        0 min,  0.236 sec
     gradient                   ...        0 min,  0.137 sec
 * total energy  :  -123.4107038 Eh     change       -0.6963001E-02 Eh
   gradient norm :     0.0186992 Eh/α   predicted    -0.6678636E-02 (  -4.08%)
   displ. norm   :     0.3675960 α      lambda       -0.2921583E-02
   maximum displ.:     0.2182291 α      in ANC's #22, #26, #11, ...

........................................................................
.............................. CYCLE    4 ..............................
........................................................................
   1   -125.1118476 -0.125112E+03  0.951E-02    2.70       0.0  T
   2   -125.1118961 -0.484896E-04  0.595E-02    2.71       1.0  T
   3   -125.1118753  0.207751E-04  0.301E-02    2.71       1.0  T
   4   -125.1119102 -0.348554E-04  0.105E-02    2.71       1.2  T
   5   -125.1119172 -0.703948E-05  0.307E-03    2.71       4.0  T
   6   -125.1119174 -0.167155E-06  0.216E-03    2.71       5.7  T
   7   -125.1119175 -0.714617E-07  0.130E-03    2.71       9.5  T
   8   -125.1119175 -0.342003E-07  0.878E-04    2.71      14.0  T
   9   -125.1119175 -0.176552E-07  0.486E-04    2.71      25.3  T
     SCC iter.                  ...        0 min,  0.193 sec
     gradient                   ...        0 min,  0.145 sec
 * total energy  :  -123.4128074 Eh     change       -0.2103600E-02 Eh
   gradient norm :     0.0161085 Eh/α   predicted    -0.1658184E-02 ( -21.17%)
   displ. norm   :     0.3959867 α      lambda       -0.1764218E-02
   maximum displ.:     0.2251700 α      in ANC's #22, #11, #9, ...

........................................................................
.............................. CYCLE    5 ..............................
........................................................................
   1   -125.1144318 -0.125114E+03  0.935E-02    2.71       0.0  T
   2   -125.1144510 -0.192280E-04  0.564E-02    2.71       1.0  T
   3   -125.1144204  0.305522E-04  0.256E-02    2.72       1.0  T
   4   -125.1144570 -0.365563E-04  0.710E-03    2.71       1.7  T
   5   -125.1144600 -0.296157E-05  0.241E-03    2.71       5.1  T
   6   -125.1144600 -0.527010E-07  0.166E-03    2.71       7.4  T
   7   -125.1144601 -0.506496E-07  0.100E-03    2.71      12.3  T
   8   -125.1144601 -0.197487E-07  0.670E-04    2.71      18.4  T
   9   -125.1144601 -0.862238E-08  0.437E-04    2.71      28.2  T
     SCC iter.                  ...        0 min,  0.190 sec
     gradient                   ...        0 min,  0.147 sec
 * total energy  :  -123.4139716 Eh     change       -0.1164223E-02 Eh
   gradient norm :     0.0093123 Eh/α   predicted    -0.1020430E-02 ( -12.35%)
   displ. norm   :     0.2974721 α      lambda       -0.6551226E-03
   maximum displ.:     0.1392696 α      in ANC's #9, #22, #11, ...

........................................................................
.............................. CYCLE    6 ..............................
........................................................................
   1   -125.1145766 -0.125115E+03  0.741E-02    2.69       0.0  T
   2   -125.1145871 -0.105118E-04  0.438E-02    2.69       1.0  T
   3   -125.1145716  0.155515E-04  0.198E-02    2.69       1.0  T
   4   -125.1145908 -0.192403E-04  0.436E-03    2.69       2.8  T
   5   -125.1145917 -0.899647E-06  0.190E-03    2.69       6.5  T
   6   -125.1145918 -0.511896E-07  0.141E-03    2.69       8.7  T
   7   -125.1145918 -0.367217E-07  0.930E-04    2.69      13.2  T
   8   -125.1145918 -0.182848E-07  0.600E-04    2.69      20.5  T
     SCC iter.                  ...        0 min,  0.173 sec
     gradient                   ...        0 min,  0.045 sec
 * total energy  :  -123.4144396 Eh     change       -0.4680265E-03 Eh
   gradient norm :     0.0073697 Eh/α   predicted    -0.3565641E-03 ( -23.82%)
   displ. norm   :     0.3346977 α      lambda       -0.5358208E-03
   maximum displ.:     0.1813267 α      in ANC's #9, #8, #5, ...

........................................................................
.............................. CYCLE    7 ..............................
........................................................................
   1   -125.1156889 -0.125116E+03  0.822E-02    2.67       0.0  T
   2   -125.1156952 -0.632617E-05  0.486E-02    2.67       1.0  T
   3   -125.1156761  0.191332E-04  0.195E-02    2.67       1.0  T
   4   -125.1156990 -0.229683E-04  0.294E-03    2.67       4.2  T
   5   -125.1156992 -0.185025E-06  0.194E-03    2.67       6.4  T
   6   -125.1156993 -0.383558E-07  0.148E-03    2.67       8.3  T
   7   -125.1156993 -0.420450E-07  0.952E-04    2.67      12.9  T
   8   -125.1156993 -0.218082E-07  0.616E-04    2.67      20.0  T
     SCC iter.                  ...        0 min,  0.175 sec
     gradient                   ...        0 min,  0.124 sec
 * total energy  :  -123.4148444 Eh     change       -0.4047918E-03 Eh
   gradient norm :     0.0062880 Eh/α   predicted    -0.2979238E-03 ( -26.40%)
   displ. norm   :     0.3884761 α      lambda       -0.5163267E-03
   maximum displ.:     0.2139012 α      in ANC's #9, #8, #5, ...

........................................................................
.............................. CYCLE    8 ..............................
........................................................................
   1   -125.1158494 -0.125116E+03  0.962E-02    2.65       0.0  T
   2   -125.1158565 -0.707137E-05  0.565E-02    2.65       1.0  T
   3   -125.1158423  0.142053E-04  0.165E-02    2.65       1.0  T
   4   -125.1158594 -0.170853E-04  0.335E-03    2.65       3.7  T
   5   -125.1158597 -0.282842E-06  0.215E-03    2.65       5.7  T
   6   -125.1158597 -0.428561E-07  0.161E-03    2.65       7.6  T
   7   -125.1158598 -0.553769E-07  0.103E-03    2.65      12.0  T
   8   -125.1158598 -0.239516E-07  0.673E-04    2.65      18.3  T
   9   -125.1158598 -0.119554E-07  0.382E-04    2.65      32.2  T
     SCC iter.                  ...        0 min,  0.192 sec
     gradient                   ...        0 min,  0.145 sec
 * total energy  :  -123.4152548 Eh     change       -0.4103349E-03 Eh
   gradient norm :     0.0074976 Eh/α   predicted    -0.2971298E-03 ( -27.59%)
   displ. norm   :     0.4535662 α      lambda       -0.5491839E-03
   maximum displ.:     0.2445773 α      in ANC's #9, #8, #5, ...

........................................................................
.............................. CYCLE    9 ..............................
........................................................................
   1   -125.1165274 -0.125117E+03  0.111E-01    2.64       0.0  T
   2   -125.1165324 -0.496551E-05  0.654E-02    2.64       1.0  T
   3   -125.1165161  0.163273E-04  0.173E-02    2.64       1.0  T
   4   -125.1165353 -0.192735E-04  0.320E-03    2.64       3.8  T
   5   -125.1165355 -0.180303E-06  0.231E-03    2.64       5.3  T
   6   -125.1165356 -0.551789E-07  0.172E-03    2.64       7.2  T
   7   -125.1165356 -0.732381E-07  0.112E-03    2.64      11.0  T
   8   -125.1165357 -0.302786E-07  0.771E-04    2.64      16.0  T
   9   -125.1165357 -0.162893E-07  0.420E-04    2.64      29.3  T
     SCC iter.                  ...        0 min,  0.193 sec
     gradient                   ...        0 min,  0.133 sec
 * total energy  :  -123.4156949 Eh     change       -0.4400951E-03 Eh
   gradient norm :     0.0081051 Eh/α   predicted    -0.3310823E-03 ( -24.77%)
   displ. norm   :     0.5202358 α      lambda       -0.5630875E-03
   maximum displ.:     0.2740671 α      in ANC's #9, #8, #2, ...

........................................................................
.............................. CYCLE   10 ..............................
........................................................................
   1   -125.1153377 -0.125115E+03  0.128E-01    2.64       0.0  T
   2   -125.1153440 -0.626747E-05  0.751E-02    2.64       1.0  T
   3   -125.1153253  0.187267E-04  0.192E-02    2.64       1.0  T
   4   -125.1153472 -0.218807E-04  0.337E-03    2.64       3.7  T
   5   -125.1153475 -0.349493E-06  0.215E-03    2.64       5.7  T
   6   -125.1153475 -0.340857E-07  0.154E-03    2.64       8.0  T
   7   -125.1153476 -0.671103E-07  0.947E-04    2.64      13.0  T
   8   -125.1153476 -0.174844E-07  0.693E-04    2.64      17.8  T
     SCC iter.                  ...        0 min,  0.171 sec
     gradient                   ...        0 min,  0.143 sec
 * total energy  :  -123.4161539 Eh     change       -0.4590565E-03 Eh
   gradient norm :     0.0088433 Eh/α   predicted    -0.3577474E-03 ( -22.07%)
   displ. norm   :     0.5591845 α      lambda       -0.6309734E-03
   maximum displ.:     0.2725966 α      in ANC's #9, #2, #5, ...

........................................................................
.............................. CYCLE   11 ..............................
........................................................................
   1   -125.1167433 -0.125117E+03  0.136E-01    2.65       0.0  T
   2   -125.1167478 -0.452098E-05  0.801E-02    2.65       1.0  T
   3   -125.1167270  0.207969E-04  0.194E-02    2.65       1.0  T
   4   -125.1167508 -0.237740E-04  0.273E-03    2.65       4.5  T
   5   -125.1167510 -0.188127E-06  0.172E-03    2.65       7.2  T
   6   -125.1167510 -0.470498E-07  0.109E-03    2.65      11.3  T
   7   -125.1167511 -0.273533E-07  0.578E-04    2.65      21.3  T
   8   -125.1167511 -0.569510E-08  0.371E-04    2.65      33.2  T
     SCC iter.                  ...        0 min,  0.169 sec
     gradient                   ...        0 min,  0.141 sec
 * total energy  :  -123.4166528 Eh     change       -0.4988685E-03 Eh
   gradient norm :     0.0085511 Eh/α   predicted    -0.4141751E-03 ( -16.98%)
   displ. norm   :     0.6254383 α      lambda       -0.6265792E-03
   maximum displ.:     0.3111198 α      in ANC's #9, #2, #5, ...

........................................................................
.............................. CYCLE   12 ..............................
........................................................................
   1   -125.1127961 -0.125113E+03  0.154E-01    2.65       0.0  T
   2   -125.1128095 -0.134451E-04  0.907E-02    2.65       1.0  T
   3   -125.1127922  0.173043E-04  0.181E-02    2.65       1.0  T
   4   -125.1128124 -0.201446E-04  0.445E-03    2.65       2.8  T
   5   -125.1128134 -0.105621E-05  0.201E-03    2.65       6.1  T
   6   -125.1128135 -0.547805E-07  0.130E-03    2.65       9.5  T
   7   -125.1128135 -0.373069E-07  0.705E-04    2.65      17.5  T
   8   -125.1128135 -0.999025E-08  0.476E-04    2.65      25.8  T
     SCC iter.                  ...        0 min,  0.175 sec
     gradient                   ...        0 min,  0.131 sec
 * total energy  :  -123.4171239 Eh     change       -0.4711042E-03 Eh
   gradient norm :     0.0115593 Eh/α   predicted    -0.4358417E-03 (  -7.49%)
   displ. norm   :     0.5237854 α      lambda       -0.6704753E-03
   maximum displ.:     0.2714423 α      in ANC's #2, #5, #9, ...

........................................................................
.............................. CYCLE   13 ..............................
........................................................................
   1   -125.1179973 -0.125118E+03  0.125E-01    2.66       0.0  T
   2   -125.1180052 -0.788421E-05  0.740E-02    2.66       1.0  T
   3   -125.1179704  0.347202E-04  0.240E-02    2.67       1.0  T
   4   -125.1180114 -0.410149E-04  0.378E-03    2.67       3.3  T
   5   -125.1180116 -0.174667E-06  0.308E-03    2.67       4.0  T
   6   -125.1180118 -0.138351E-06  0.236E-03    2.67       5.2  T
   7   -125.1180119 -0.140162E-06  0.157E-03    2.67       7.9  T
   8   -125.1180120 -0.781781E-07  0.992E-04    2.67      12.4  T
   9   -125.1180120 -0.247298E-07  0.574E-04    2.67      21.4  T
     SCC iter.                  ...        0 min,  0.195 sec
     gradient                   ...        0 min,  0.129 sec
 * total energy  :  -123.4175782 Eh     change       -0.4543105E-03 Eh
   gradient norm :     0.0088977 Eh/α   predicted    -0.4272111E-03 (  -5.96%)
   displ. norm   :     0.6791055 α      lambda       -0.6283359E-03
   maximum displ.:     0.3289776 α      in ANC's #9, #2, #5, ...

........................................................................
.............................. CYCLE   14 ..............................
........................................................................
   1   -125.1117968 -0.125112E+03  0.163E-01    2.66       0.0  T
   2   -125.1118146 -0.178460E-04  0.964E-02    2.66       1.0  T
   3   -125.1117474  0.671782E-04  0.347E-02    2.65       1.0  T
   4   -125.1118277 -0.802240E-04  0.547E-03    2.66       2.2  T
   5   -125.1118281 -0.443421E-06  0.416E-03    2.66       3.0  T
   6   -125.1118283 -0.193197E-06  0.310E-03    2.66       4.0  T
   7   -125.1118285 -0.233258E-06  0.192E-03    2.66       6.4  T
   8   -125.1118286 -0.105575E-06  0.118E-03    2.66      10.4  T
   9   -125.1118287 -0.319170E-07  0.642E-04    2.66      19.2  T
  10   -125.1118287 -0.130677E-07  0.281E-04    2.66      43.8  T
     SCC iter.                  ...        0 min,  0.219 sec
     gradient                   ...        0 min,  0.139 sec
 * total energy  :  -123.4179773 Eh     change       -0.3991466E-03 Eh
   gradient norm :     0.0125546 Eh/α   predicted    -0.4590663E-03 (  15.01%)
   displ. norm   :     0.4294969 α      lambda       -0.5738596E-03
   maximum displ.:     0.2259947 α      in ANC's #2, #7, #5, ...

........................................................................
.............................. CYCLE   15 ..............................
........................................................................
   1   -125.1157192 -0.125116E+03  0.960E-02    2.65       0.0  T
   2   -125.1157248 -0.563524E-05  0.565E-02    2.65       1.0  T
   3   -125.1157023  0.225549E-04  0.202E-02    2.65       1.0  T
   4   -125.1157282 -0.258974E-04  0.260E-03    2.65       4.7  T
   5   -125.1157285 -0.302239E-06  0.131E-03    2.65       9.4  T
   6   -125.1157285 -0.314860E-07  0.826E-04    2.65      14.9  T
   7   -125.1157285 -0.145562E-07  0.421E-04    2.65      29.3  T
     SCC iter.                  ...        0 min,  0.152 sec
     gradient                   ...        0 min,  0.132 sec
 * total energy  :  -123.4184502 Eh     change       -0.4728450E-03 Eh
   gradient norm :     0.0078089 Eh/α   predicted    -0.3398627E-03 ( -28.12%)
   displ. norm   :     0.5624993 α      lambda       -0.7530389E-03
   maximum displ.:     0.2979113 α      in ANC's #2, #7, #5, ...

........................................................................
.............................. CYCLE   16 ..............................
........................................................................
   1   -125.1218258 -0.125122E+03  0.124E-01    2.65       0.0  T
   2   -125.1218332 -0.749140E-05  0.731E-02    2.64       1.0  T
   3   -125.1217811  0.521944E-04  0.298E-02    2.64       1.0  T
   4   -125.1218414 -0.603014E-04  0.496E-03    2.64       2.5  T
   5   -125.1218419 -0.498966E-06  0.382E-03    2.64       3.2  T
   6   -125.1218421 -0.262284E-06  0.269E-03    2.64       4.6  T
   7   -125.1218423 -0.167232E-06  0.174E-03    2.64       7.1  T
   8   -125.1218424 -0.916741E-07  0.104E-03    2.64      11.8  T
   9   -125.1218424 -0.258311E-07  0.639E-04    2.64      19.3  T
  10   -125.1218424 -0.119457E-07  0.271E-04    2.64      45.4  T
     SCC iter.                  ...        0 min,  0.216 sec
     gradient                   ...        0 min,  0.126 sec
 * total energy  :  -123.4189939 Eh     change       -0.5436817E-03 Eh
   gradient norm :     0.0092647 Eh/α   predicted    -0.4956537E-03 (  -8.83%)
   displ. norm   :     0.7513675 α      lambda       -0.6684675E-03
   maximum displ.:     0.3958304 α      in ANC's #2, #5, #7, ...

........................................................................
.............................. CYCLE   17 ..............................
........................................................................
   1   -125.1153793 -0.125115E+03  0.168E-01    2.64       0.0  T
   2   -125.1153925 -0.132269E-04  0.988E-02    2.63       1.0  T
   3   -125.1153496  0.428805E-04  0.266E-02    2.63       1.0  T
   4   -125.1153992 -0.495843E-04  0.486E-03    2.63       2.5  T
   5   -125.1153999 -0.746568E-06  0.306E-03    2.63       4.0  T
   6   -125.1154001 -0.104316E-06  0.225E-03    2.63       5.5  T
   7   -125.1154002 -0.117264E-06  0.137E-03    2.63       9.0  T
   8   -125.1154002 -0.389075E-07  0.986E-04    2.63      12.5  T
   9   -125.1154002 -0.248382E-07  0.573E-04    2.63      21.5  T
     SCC iter.                  ...        0 min,  0.193 sec
     gradient                   ...        0 min,  0.133 sec
 * total energy  :  -123.4195199 Eh     change       -0.5260662E-03 Eh
   gradient norm :     0.0121270 Eh/α   predicted    -0.5229304E-03 (  -0.60%)
   displ. norm   :     0.6407453 α      lambda       -0.6269319E-03
   maximum displ.:     0.3478531 α      in ANC's #2, #7, #5, ...

........................................................................
.............................. CYCLE   18 ..............................
........................................................................
   1   -125.1169625 -0.125117E+03  0.138E-01    2.64       0.0  T
   2   -125.1169703 -0.784829E-05  0.810E-02    2.63       1.0  T
   3   -125.1169440  0.262858E-04  0.203E-02    2.63       1.0  T
   4   -125.1169737 -0.296878E-04  0.376E-03    2.63       3.3  T
   5   -125.1169744 -0.685631E-06  0.178E-03    2.63       6.9  T
   6   -125.1169745 -0.520128E-07  0.111E-03    2.63      11.1  T
   7   -125.1169745 -0.245539E-07  0.543E-04    2.63      22.7  T
   8   -125.1169745 -0.528614E-08  0.380E-04    2.63      32.4  T
     SCC iter.                  ...        0 min,  0.172 sec
     gradient                   ...        0 min,  0.134 sec
 * total energy  :  -123.4200304 Eh     change       -0.5104355E-03 Eh
   gradient norm :     0.0097681 Eh/α   predicted    -0.4421619E-03 ( -13.38%)
   displ. norm   :     0.6702118 α      lambda       -0.6649602E-03
   maximum displ.:     0.3742766 α      in ANC's #2, #5, #7, ...

........................................................................
.............................. CYCLE   19 ..............................
........................................................................
   1   -125.1159905 -0.125116E+03  0.149E-01    2.64       0.0  T
   2   -125.1159976 -0.714275E-05  0.874E-02    2.63       1.0  T
   3   -125.1159788  0.188394E-04  0.168E-02    2.64       1.0  T
   4   -125.1160006 -0.218047E-04  0.365E-03    2.63       3.4  T
   5   -125.1160012 -0.556665E-06  0.197E-03    2.63       6.2  T
   6   -125.1160012 -0.346565E-07  0.122E-03    2.63      10.1  T
   7   -125.1160012 -0.353986E-07  0.593E-04    2.63      20.8  T
   8   -125.1160012 -0.600259E-08  0.433E-04    2.63      28.4  T
     SCC iter.                  ...        0 min,  0.177 sec
     gradient                   ...        0 min,  0.145 sec
 * total energy  :  -123.4205278 Eh     change       -0.4973871E-03 Eh
   gradient norm :     0.0086688 Eh/α   predicted    -0.4818311E-03 (  -3.13%)
   displ. norm   :     0.6143028 α      lambda       -0.6065060E-03
   maximum displ.:     0.3573256 α      in ANC's #2, #5, #7, ...

........................................................................
.............................. CYCLE   20 ..............................
........................................................................
   1   -125.1213031 -0.125121E+03  0.137E-01    2.66       0.0  T
   2   -125.1213156 -0.124096E-04  0.816E-02    2.65       1.0  T
   3   -125.1212633  0.522404E-04  0.302E-02    2.66       1.0  T
   4   -125.1213252 -0.619074E-04  0.465E-03    2.65       2.6  T
   5   -125.1213256 -0.407455E-06  0.346E-03    2.65       3.6  T
   6   -125.1213258 -0.132551E-06  0.259E-03    2.65       4.7  T
   7   -125.1213259 -0.167561E-06  0.158E-03    2.65       7.8  T
   8   -125.1213260 -0.597838E-07  0.970E-04    2.65      12.7  T
   9   -125.1213260 -0.227924E-07  0.565E-04    2.65      21.8  T
     SCC iter.                  ...        0 min,  0.191 sec
     gradient                   ...        0 min,  0.136 sec
 * total energy  :  -123.4208974 Eh     change       -0.3696068E-03 Eh
   gradient norm :     0.0106084 Eh/α   predicted    -0.4176932E-03 (  13.01%)
   displ. norm   :     0.6778517 α      lambda       -0.5991894E-03
   maximum displ.:     0.3945058 α      in ANC's #2, #5, #9, ...
 * RMSD in coord.:     1.0422583 α      energy gain  -0.3734708E-01 Eh

generating ANC from model Hessian ...
Using Lindh-Hessian (1995)
 Shifting diagonal of input Hessian by    9.8847638061949281E-003
 Lowest  eigenvalues of input Hessian
    0.000000    0.000000    0.000000    0.000000    0.000000    0.000000
    0.010000    0.010207    0.010263    0.010338    0.010403    0.010633
    0.010727    0.010879    0.011401    0.011999    0.012094    0.012377
 Highest eigenvalues
    2.055809    2.103949    2.104188    2.359088    2.372008    2.394200


........................................................................
.............................. CYCLE   21 ..............................
........................................................................
   1   -125.1144358 -0.125114E+03  0.150E-01    2.65       0.0  T
   2   -125.1144502 -0.143992E-04  0.889E-02    2.65       1.0  T
   3   -125.1143918  0.583990E-04  0.323E-02    2.65       1.0  T
   4   -125.1144618 -0.700355E-04  0.441E-03    2.65       2.8  T
   5   -125.1144621 -0.263715E-06  0.336E-03    2.65       3.7  T
   6   -125.1144622 -0.144765E-06  0.235E-03    2.65       5.2  T
   7   -125.1144624 -0.128159E-06  0.166E-03    2.65       7.4  T
   8   -125.1144624 -0.767792E-07  0.102E-03    2.65      12.1  T
   9   -125.1144625 -0.275655E-07  0.565E-04    2.65      21.8  T
  10   -125.1144625 -0.993030E-08  0.306E-04    2.65      40.2  T
     SCC iter.                  ...        0 min,  0.216 sec
     gradient                   ...        0 min,  0.150 sec
 * total energy  :  -123.4212221 Eh     change       -0.3247028E-03 Eh
   gradient norm :     0.0142529 Eh/α   predicted     0.0000000E+00 (-100.00%)
   displ. norm   :     0.1017993 α      lambda       -0.4510727E-03
   maximum displ.:     0.0472134 α      in ANC's #2, #9, #21, ...

........................................................................
.............................. CYCLE   22 ..............................
........................................................................
   1   -125.1223578 -0.125122E+03  0.374E-02    2.65       0.0  T
   2   -125.1223602 -0.240444E-05  0.222E-02    2.65       1.0  T
   3   -125.1223560  0.416706E-05  0.107E-02    2.65       1.2  T
   4   -125.1223614 -0.538042E-05  0.156E-03    2.65       7.9  T
   5   -125.1223615 -0.113818E-06  0.756E-04    2.65      16.3  T
   6   -125.1223615 -0.577492E-08  0.504E-04    2.65      24.4  T
     SCC iter.                  ...        0 min,  0.128 sec
     gradient                   ...        0 min,  0.138 sec
 * total energy  :  -123.4215367 Eh     change       -0.3145863E-03 Eh
   gradient norm :     0.0049895 Eh/α   predicted    -0.2279476E-03 ( -27.54%)
   displ. norm   :     0.1663060 α      lambda       -0.2590458E-03
   maximum displ.:     0.0884217 α      in ANC's #2, #9, #11, ...

........................................................................
.............................. CYCLE   23 ..............................
........................................................................
   1   -125.1268849 -0.125127E+03  0.484E-02    2.65       0.0  T
   2   -125.1268874 -0.250985E-05  0.284E-02    2.65       1.0  T
   3   -125.1268829  0.450509E-05  0.103E-02    2.65       1.2  T
   4   -125.1268883 -0.537314E-05  0.187E-03    2.65       6.6  T
   5   -125.1268884 -0.168990E-06  0.828E-04    2.65      14.9  T
   6   -125.1268884 -0.490297E-08  0.553E-04    2.65      22.3  T
     SCC iter.                  ...        0 min,  0.131 sec
     gradient                   ...        0 min,  0.130 sec
 * total energy  :  -123.4217255 Eh     change       -0.1888003E-03 Eh
   gradient norm :     0.0042281 Eh/α   predicted    -0.1331054E-03 ( -29.50%)
   displ. norm   :     0.2605963 α      lambda       -0.2472293E-03
   maximum displ.:     0.1382718 α      in ANC's #2, #9, #6, ...

........................................................................
.............................. CYCLE   24 ..............................
........................................................................
   1   -125.1278928 -0.125128E+03  0.696E-02    2.65       0.0  T
   2   -125.1278961 -0.331816E-05  0.408E-02    2.65       1.0  T
   3   -125.1278911  0.499114E-05  0.104E-02    2.65       1.2  T
   4   -125.1278971 -0.597736E-05  0.217E-03    2.65       5.7  T
   5   -125.1278973 -0.190535E-06  0.105E-03    2.65      11.8  T
   6   -125.1278973 -0.849583E-08  0.627E-04    2.65      19.6  T
   7   -125.1278973 -0.650486E-08  0.347E-04    2.65      35.5  T
     SCC iter.                  ...        0 min,  0.152 sec
     gradient                   ...        0 min,  0.142 sec
 * total energy  :  -123.4219276 Eh     change       -0.2021958E-03 Eh
   gradient norm :     0.0065351 Eh/α   predicted    -0.1320181E-03 ( -34.71%)
   displ. norm   :     0.4223115 α      lambda       -0.3418945E-03
   maximum displ.:     0.2229002 α      in ANC's #2, #9, #6, ...

........................................................................
.............................. CYCLE   25 ..............................
........................................................................
   1   -125.1252580 -0.125125E+03  0.111E-01    2.64       0.0  T
   2   -125.1252640 -0.597046E-05  0.648E-02    2.64       1.0  T
   3   -125.1252511  0.129146E-04  0.153E-02    2.64       1.0  T
   4   -125.1252664 -0.153575E-04  0.283E-03    2.64       4.4  T
   5   -125.1252667 -0.261873E-06  0.162E-03    2.64       7.6  T
   6   -125.1252667 -0.270471E-07  0.101E-03    2.64      12.2  T
   7   -125.1252668 -0.245862E-07  0.488E-04    2.64      25.2  T
   8   -125.1252668 -0.481525E-08  0.311E-04    2.64      39.6  T
     SCC iter.                  ...        0 min,  0.177 sec
     gradient                   ...        0 min,  0.136 sec
 * total energy  :  -123.4222019 Eh     change       -0.2742935E-03 Eh
   gradient norm :     0.0074424 Eh/α   predicted    -0.2014734E-03 ( -26.55%)
   displ. norm   :     0.4386473 α      lambda       -0.3012353E-03
   maximum displ.:     0.2402577 α      in ANC's #2, #9, #6, ...

........................................................................
.............................. CYCLE   26 ..............................
........................................................................
   1   -125.1214931 -0.125121E+03  0.110E-01    2.64       0.0  T
   2   -125.1214971 -0.404578E-05  0.647E-02    2.64       1.0  T
   3   -125.1214832  0.139630E-04  0.151E-02    2.64       1.0  T
   4   -125.1214996 -0.163950E-04  0.251E-03    2.64       4.9  T
   5   -125.1214997 -0.142192E-06  0.164E-03    2.64       7.5  T
   6   -125.1214997 -0.393157E-07  0.949E-04    2.64      13.0  T
   7   -125.1214998 -0.221982E-07  0.457E-04    2.64      26.9  T
     SCC iter.                  ...        0 min,  0.157 sec
     gradient                   ...        0 min,  0.129 sec
 * total energy  :  -123.4224383 Eh     change       -0.2363342E-03 Eh
   gradient norm :     0.0078955 Eh/α   predicted    -0.1796040E-03 ( -24.00%)
   displ. norm   :     0.3817489 α      lambda       -0.2660283E-03
   maximum displ.:     0.2214245 α      in ANC's #2, #9, #6, ...

........................................................................
.............................. CYCLE   27 ..............................
........................................................................
   1   -125.1200110 -0.125120E+03  0.895E-02    2.64       0.0  T
   2   -125.1200130 -0.201067E-05  0.526E-02    2.64       1.0  T
   3   -125.1200071  0.588557E-05  0.102E-02    2.64       1.2  T
   4   -125.1200141 -0.705563E-05  0.203E-03    2.64       6.1  T
   5   -125.1200142 -0.710141E-07  0.138E-03    2.64       9.0  T
   6   -125.1200142 -0.217442E-07  0.825E-04    2.64      14.9  T
   7   -125.1200143 -0.162397E-07  0.484E-04    2.64      25.4  T
     SCC iter.                  ...        0 min,  0.149 sec
     gradient                   ...        0 min,  0.123 sec
 * total energy  :  -123.4226560 Eh     change       -0.2176919E-03 Eh
   gradient norm :     0.0067663 Eh/α   predicted    -0.1524086E-03 ( -29.99%)
   displ. norm   :     0.3977549 α      lambda       -0.3024833E-03
   maximum displ.:     0.2410801 α      in ANC's #2, #6, #9, ...

........................................................................
.............................. CYCLE   28 ..............................
........................................................................
   1   -125.1213367 -0.125121E+03  0.860E-02    2.65       0.0  T
   2   -125.1213391 -0.242878E-05  0.505E-02    2.65       1.0  T
   3   -125.1213340  0.510384E-05  0.103E-02    2.65       1.2  T
   4   -125.1213402 -0.615007E-05  0.198E-03    2.65       6.2  T
   5   -125.1213403 -0.942962E-07  0.122E-03    2.65      10.1  T
   6   -125.1213403 -0.140678E-07  0.744E-04    2.65      16.6  T
   7   -125.1213403 -0.975449E-08  0.456E-04    2.65      27.0  T
     SCC iter.                  ...        0 min,  0.155 sec
     gradient                   ...        0 min,  0.120 sec
 * total energy  :  -123.4229001 Eh     change       -0.2440869E-03 Eh
   gradient norm :     0.0049432 Eh/α   predicted    -0.1751703E-03 ( -28.23%)
   displ. norm   :     0.4737228 α      lambda       -0.3029507E-03
   maximum displ.:     0.2883733 α      in ANC's #2, #6, #9, ...

........................................................................
.............................. CYCLE   29 ..............................
........................................................................
   1   -125.1223960 -0.125122E+03  0.994E-02    2.65       0.0  T
   2   -125.1223983 -0.229415E-05  0.584E-02    2.65       1.0  T
   3   -125.1223948  0.347594E-05  0.840E-03    2.65       1.5  T
   4   -125.1223992 -0.433015E-05  0.211E-03    2.65       5.8  T
   5   -125.1223993 -0.133930E-06  0.121E-03    2.65      10.2  T
   6   -125.1223993 -0.124161E-07  0.707E-04    2.65      17.4  T
   7   -125.1223993 -0.141291E-07  0.353E-04    2.65      34.9  T
     SCC iter.                  ...        0 min,  0.151 sec
     gradient                   ...        0 min,  0.130 sec
 * total energy  :  -123.4231583 Eh     change       -0.2582715E-03 Eh
   gradient norm :     0.0064499 Eh/α   predicted    -0.1854687E-03 ( -28.19%)
   displ. norm   :     0.5324306 α      lambda       -0.3563840E-03
   maximum displ.:     0.3281176 α      in ANC's #2, #6, #9, ...

........................................................................
.............................. CYCLE   30 ..............................
........................................................................
   1   -125.1244775 -0.125124E+03  0.107E-01    2.65       0.0  T
   2   -125.1244802 -0.271339E-05  0.628E-02    2.65       1.0  T
   3   -125.1244716  0.864473E-05  0.115E-02    2.65       1.1  T
   4   -125.1244816 -0.100097E-04  0.234E-03    2.65       5.3  T
   5   -125.1244818 -0.189467E-06  0.133E-03    2.65       9.3  T
   6   -125.1244818 -0.242924E-07  0.767E-04    2.65      16.1  T
   7   -125.1244818 -0.149106E-07  0.374E-04    2.65      32.9  T
     SCC iter.                  ...        0 min,  0.160 sec
     gradient                   ...        0 min,  0.126 sec
 * total energy  :  -123.4234723 Eh     change       -0.3139827E-03 Eh
   gradient norm :     0.0078578 Eh/α   predicted    -0.2287070E-03 ( -27.16%)
   displ. norm   :     0.6343510 α      lambda       -0.4408584E-03
   maximum displ.:     0.3928033 α      in ANC's #2, #6, #7, ...

........................................................................
.............................. CYCLE   31 ..............................
........................................................................
   1   -125.1246461 -0.125125E+03  0.128E-01    2.65       0.0  T
   2   -125.1246497 -0.358163E-05  0.752E-02    2.65       1.0  T
   3   -125.1246355  0.141825E-04  0.145E-02    2.65       1.0  T
   4   -125.1246519 -0.163695E-04  0.272E-03    2.65       4.5  T
   5   -125.1246521 -0.206303E-06  0.164E-03    2.65       7.5  T
   6   -125.1246522 -0.358549E-07  0.933E-04    2.65      13.2  T
   7   -125.1246522 -0.220378E-07  0.488E-04    2.65      25.2  T
     SCC iter.                  ...        0 min,  0.153 sec
     gradient                   ...        0 min,  0.128 sec
 * total energy  :  -123.4238667 Eh     change       -0.3944353E-03 Eh
   gradient norm :     0.0075358 Eh/α   predicted    -0.3091310E-03 ( -21.63%)
   displ. norm   :     0.6710587 α      lambda       -0.5076824E-03
   maximum displ.:     0.4251910 α      in ANC's #2, #6, #7, ...

........................................................................
.............................. CYCLE   32 ..............................
........................................................................
   1   -125.1264085 -0.125126E+03  0.134E-01    2.65       0.0  T
   2   -125.1264148 -0.630278E-05  0.790E-02    2.64       1.0  T
   3   -125.1263813  0.335704E-04  0.232E-02    2.64       1.0  T
   4   -125.1264195 -0.382492E-04  0.311E-03    2.64       4.0  T
   5   -125.1264198 -0.309741E-06  0.185E-03    2.64       6.6  T
   6   -125.1264199 -0.649028E-07  0.107E-03    2.64      11.5  T
   7   -125.1264199 -0.254808E-07  0.530E-04    2.64      23.2  T
   8   -125.1264199 -0.587725E-08  0.352E-04    2.64      34.9  T
     SCC iter.                  ...        0 min,  0.172 sec
     gradient                   ...        0 min,  0.137 sec
 * total energy  :  -123.4242874 Eh     change       -0.4206360E-03 Eh
   gradient norm :     0.0057017 Eh/α   predicted    -0.3681723E-03 ( -12.47%)
   displ. norm   :     0.7410646 α      lambda       -0.4477563E-03
   maximum displ.:     0.4698417 α      in ANC's #2, #6, #9, ...

........................................................................
.............................. CYCLE   33 ..............................
........................................................................
   1   -125.1184182 -0.125118E+03  0.158E-01    2.62       0.0  T
   2   -125.1184258 -0.756823E-05  0.930E-02    2.62       1.0  T
   3   -125.1183892  0.366138E-04  0.254E-02    2.62       1.0  T
   4   -125.1184318 -0.426519E-04  0.310E-03    2.62       4.0  T
   5   -125.1184320 -0.147695E-06  0.199E-03    2.62       6.2  T
   6   -125.1184320 -0.321257E-07  0.112E-03    2.62      11.0  T
   7   -125.1184320 -0.457454E-07  0.584E-04    2.62      21.1  T
   8   -125.1184321 -0.677362E-08  0.429E-04    2.62      28.7  T
     SCC iter.                  ...        0 min,  0.171 sec
     gradient                   ...        0 min,  0.062 sec
 * total energy  :  -123.4245964 Eh     change       -0.3090143E-03 Eh
   gradient norm :     0.0089155 Eh/α   predicted    -0.3468271E-03 (  12.24%)
   displ. norm   :     0.4964816 α      lambda       -0.3937913E-03
   maximum displ.:     0.3393393 α      in ANC's #2, #6, #3, ...

........................................................................
.............................. CYCLE   34 ..............................
........................................................................
   1   -125.1240575 -0.125124E+03  0.105E-01    2.63       0.0  T
   2   -125.1240635 -0.607559E-05  0.618E-02    2.63       1.0  T
   3   -125.1240353  0.282243E-04  0.228E-02    2.63       1.0  T
   4   -125.1240679 -0.326072E-04  0.278E-03    2.62       4.4  T
   5   -125.1240682 -0.263470E-06  0.164E-03    2.62       7.5  T
   6   -125.1240682 -0.536052E-07  0.110E-03    2.62      11.2  T
   7   -125.1240683 -0.282207E-07  0.652E-04    2.62      18.9  T
   8   -125.1240683 -0.863801E-08  0.488E-04    2.62      25.2  T
     SCC iter.                  ...        0 min,  0.178 sec
     gradient                   ...        0 min,  0.129 sec
 * total energy  :  -123.4248510 Eh     change       -0.2545665E-03 Eh
   gradient norm :     0.0062405 Eh/α   predicted    -0.2454471E-03 (  -3.58%)
   displ. norm   :     0.5445652 α      lambda       -0.2369414E-03
   maximum displ.:     0.3701155 α      in ANC's #2, #6, #9, ...

........................................................................
.............................. CYCLE   35 ..............................
........................................................................
   1   -125.1210312 -0.125121E+03  0.114E-01    2.62       0.0  T
   2   -125.1210338 -0.259849E-05  0.670E-02    2.62       1.0  T
   3   -125.1210266  0.715986E-05  0.111E-02    2.61       1.1  T
   4   -125.1210353 -0.870309E-05  0.195E-03    2.62       6.3  T
   5   -125.1210354 -0.437158E-07  0.120E-03    2.62      10.2  T
   6   -125.1210354 -0.127303E-07  0.603E-04    2.62      20.4  T
   7   -125.1210354 -0.645372E-08  0.390E-04    2.62      31.6  T
     SCC iter.                  ...        0 min,  0.156 sec
     gradient                   ...        0 min,  0.129 sec
 * total energy  :  -123.4250395 Eh     change       -0.1885636E-03 Eh
   gradient norm :     0.0066711 Eh/α   predicted    -0.1536038E-03 ( -18.54%)
   displ. norm   :     0.5132440 α      lambda       -0.3503420E-03
   maximum displ.:     0.3685916 α      in ANC's #2, #9, #6, ...

........................................................................
.............................. CYCLE   36 ..............................
........................................................................
   1   -125.1253872 -0.125125E+03  0.114E-01    2.64       0.0  T
   2   -125.1253915 -0.430627E-05  0.667E-02    2.63       1.0  T
   3   -125.1253847  0.678996E-05  0.117E-02    2.64       1.1  T
   4   -125.1253930 -0.832208E-05  0.222E-03    2.63       5.5  T
   5   -125.1253931 -0.123542E-06  0.134E-03    2.63       9.2  T
   6   -125.1253931 -0.181909E-07  0.860E-04    2.63      14.3  T
   7   -125.1253931 -0.139072E-07  0.576E-04    2.63      21.4  T
     SCC iter.                  ...        0 min,  0.150 sec
     gradient                   ...        0 min,  0.151 sec
 * total energy  :  -123.4252911 Eh     change       -0.2516138E-03 Eh
   gradient norm :     0.0070951 Eh/α   predicted    -0.2213152E-03 ( -12.04%)
   displ. norm   :     0.5524246 α      lambda       -0.2669924E-03
   maximum displ.:     0.4027206 α      in ANC's #2, #6, #9, ...

........................................................................
.............................. CYCLE   37 ..............................
........................................................................
   1   -125.1244792 -0.125124E+03  0.120E-01    2.63       0.0  T
   2   -125.1244819 -0.265405E-05  0.707E-02    2.63       1.0  T
   3   -125.1244726  0.926408E-05  0.133E-02    2.63       1.0  T
   4   -125.1244835 -0.109039E-04  0.194E-03    2.63       6.3  T
   5   -125.1244836 -0.614783E-07  0.121E-03    2.63      10.2  T
   6   -125.1244836 -0.152560E-07  0.705E-04    2.63      17.5  T
   7   -125.1244836 -0.145802E-07  0.363E-04    2.63      33.9  T
     SCC iter.                  ...        0 min,  0.151 sec
     gradient                   ...        0 min,  0.055 sec
 * total energy  :  -123.4254886 Eh     change       -0.1974552E-03 Eh
   gradient norm :     0.0071788 Eh/α   predicted    -0.1742365E-03 ( -11.76%)
   displ. norm   :     0.4771816 α      lambda       -0.2653608E-03
   maximum displ.:     0.3580523 α      in ANC's #2, #9, #6, ...

........................................................................
.............................. CYCLE   38 ..............................
........................................................................
   1   -125.1265204 -0.125127E+03  0.108E-01    2.65       0.0  T
   2   -125.1265231 -0.268135E-05  0.634E-02    2.64       1.0  T
   3   -125.1265127  0.104238E-04  0.137E-02    2.65       1.0  T
   4   -125.1265249 -0.122335E-04  0.181E-03    2.64       6.8  T
   5   -125.1265249 -0.421396E-07  0.125E-03    2.64       9.8  T
   6   -125.1265249 -0.139353E-07  0.865E-04    2.64      14.2  T
   7   -125.1265250 -0.167452E-07  0.543E-04    2.64      22.7  T
     SCC iter.                  ...        0 min,  0.151 sec
     gradient                   ...        0 min,  0.136 sec
 * total energy  :  -123.4256741 Eh     change       -0.1855230E-03 Eh
   gradient norm :     0.0065533 Eh/α   predicted    -0.1628937E-03 ( -12.20%)
   displ. norm   :     0.5281441 α      lambda       -0.2186787E-03
   maximum displ.:     0.3990264 α      in ANC's #2, #9, #6, ...

........................................................................
.............................. CYCLE   39 ..............................
........................................................................
   1   -125.1251818 -0.125125E+03  0.116E-01    2.64       0.0  T
   2   -125.1251841 -0.222827E-05  0.679E-02    2.64       1.0  T
   3   -125.1251769  0.713751E-05  0.108E-02    2.64       1.1  T
   4   -125.1251854 -0.844702E-05  0.193E-03    2.64       6.4  T
   5   -125.1251854 -0.813603E-07  0.121E-03    2.64      10.1  T
   6   -125.1251855 -0.115189E-07  0.730E-04    2.64      16.9  T
   7   -125.1251855 -0.144717E-07  0.368E-04    2.64      33.4  T
     SCC iter.                  ...        0 min,  0.150 sec
     gradient                   ...        0 min,  0.092 sec
 * total energy  :  -123.4258408 Eh     change       -0.1667327E-03 Eh
   gradient norm :     0.0069650 Eh/α   predicted    -0.1398443E-03 ( -16.13%)
   displ. norm   :     0.4655955 α      lambda       -0.2495981E-03
   maximum displ.:     0.3592632 α      in ANC's #2, #9, #1, ...

........................................................................
.............................. CYCLE   40 ..............................
........................................................................
   1   -125.1294040 -0.125129E+03  0.102E-01    2.64       0.0  T
   2   -125.1294066 -0.259461E-05  0.602E-02    2.64       1.0  T
   3   -125.1293873  0.193089E-04  0.176E-02    2.64       1.0  T
   4   -125.1294090 -0.217541E-04  0.206E-03    2.64       6.0  T
   5   -125.1294091 -0.125501E-06  0.130E-03    2.64       9.5  T
   6   -125.1294092 -0.223476E-07  0.899E-04    2.64      13.7  T
   7   -125.1294092 -0.192875E-07  0.524E-04    2.64      23.5  T
     SCC iter.                  ...        0 min,  0.154 sec
     gradient                   ...        0 min,  0.125 sec
 * total energy  :  -123.4260131 Eh     change       -0.1722277E-03 Eh
   gradient norm :     0.0048544 Eh/α   predicted    -0.1518537E-03 ( -11.83%)
   displ. norm   :     0.6376592 α      lambda       -0.2276659E-03
   maximum displ.:     0.4849219 α      in ANC's #2, #9, #6, ...

........................................................................
.............................. CYCLE   41 ..............................
........................................................................
   1   -125.1199313 -0.125120E+03  0.140E-01    2.62       0.0  T
   2   -125.1199374 -0.608306E-05  0.824E-02    2.63       1.0  T
   3   -125.1198976  0.397514E-04  0.259E-02    2.62       1.0  T
   4   -125.1199432 -0.455322E-04  0.317E-03    2.62       3.9  T
   5   -125.1199434 -0.244526E-06  0.211E-03    2.62       5.8  T
   6   -125.1199434 -0.481833E-07  0.146E-03    2.62       8.4  T
   7   -125.1199435 -0.517315E-07  0.885E-04    2.62      13.9  T
   8   -125.1199435 -0.153677E-07  0.632E-04    2.62      19.5  T
     SCC iter.                  ...        0 min,  0.172 sec
     gradient                   ...        0 min,  0.125 sec
 * total energy  :  -123.4260734 Eh     change       -0.6033771E-04 Eh
   gradient norm :     0.0078546 Eh/α   predicted    -0.1601236E-03 ( 165.38%)
   displ. norm   :     0.1296146 α      lambda       -0.1917965E-03
   maximum displ.:     0.0641333 α      in ANC's #3, #7, #8, ...

........................................................................
.............................. CYCLE   42 ..............................
........................................................................
   1   -125.1283426 -0.125128E+03  0.346E-02    2.63       0.0  T
   2   -125.1283442 -0.157487E-05  0.204E-02    2.63       1.0  T
   3   -125.1283400  0.412605E-05  0.953E-03    2.64       1.3  T
   4   -125.1283451 -0.511508E-05  0.135E-03    2.64       9.1  T
   5   -125.1283452 -0.905796E-07  0.771E-04    2.64      16.0  T
   6   -125.1283453 -0.106918E-07  0.542E-04    2.64      22.7  T
     SCC iter.                  ...        0 min,  0.129 sec
     gradient                   ...        0 min,  0.121 sec
 * total energy  :  -123.4261680 Eh     change       -0.9458519E-04 Eh
   gradient norm :     0.0056534 Eh/α   predicted    -0.9750917E-04 (   3.09%)
   displ. norm   :     0.1842220 α      lambda       -0.1049674E-03
   maximum displ.:     0.1446269 α      in ANC's #2, #1, #9, ...
 * RMSD in coord.:     1.1105508 α      energy gain  -0.5270637E-02 Eh

generating ANC from model Hessian ...
Using Lindh-Hessian (1995)
 Shifting diagonal of input Hessian by    9.8833370414559852E-003
 Lowest  eigenvalues of input Hessian
    0.000000    0.000000    0.000000    0.000000    0.000000    0.000000
    0.010000    0.010272    0.010308    0.010353    0.010527    0.010685
    0.010789    0.011017    0.011230    0.011782    0.012118    0.012570
 Highest eigenvalues
    2.073410    2.110923    2.111946    2.366848    2.374686    2.398361


........................................................................
.............................. CYCLE   43 ..............................
........................................................................
   1   -125.1307022 -0.125131E+03  0.467E-02    2.64       0.0  T
   2   -125.1307039 -0.175365E-05  0.279E-02    2.64       1.0  T
   3   -125.1306977  0.621491E-05  0.104E-02    2.64       1.2  T
   4   -125.1307051 -0.735336E-05  0.161E-03    2.64       7.7  T
   5   -125.1307052 -0.765275E-07  0.111E-03    2.64      11.1  T
   6   -125.1307052 -0.110969E-07  0.853E-04    2.64      14.4  T
   7   -125.1307052 -0.192383E-07  0.536E-04    2.64      23.0  T
     SCC iter.                  ...        0 min,  0.152 sec
     gradient                   ...        0 min,  0.127 sec
 * total energy  :  -123.4262020 Eh     change       -0.3400786E-04 Eh
   gradient norm :     0.0055620 Eh/α   predicted     0.0000000E+00 (-100.00%)
   displ. norm   :     0.0471240 α      lambda       -0.7490364E-04
   maximum displ.:     0.0249630 α      in ANC's #2, #8, #25, ...

........................................................................
.............................. CYCLE   44 ..............................
........................................................................
   1   -125.1287831 -0.125129E+03  0.164E-02    2.64       0.0  T
   2   -125.1287835 -0.377573E-06  0.988E-03    2.64       1.2  T
   3   -125.1287823  0.120304E-05  0.509E-03    2.64       2.4  T
   4   -125.1287838 -0.151597E-05  0.664E-04    2.64      18.5  T
   5   -125.1287838 -0.184742E-07  0.355E-04    2.64      34.7  T
   6   -125.1287838 -0.179823E-08  0.217E-04    2.64      56.7  T
     SCC iter.                  ...        0 min,  0.131 sec
     gradient                   ...        0 min,  0.132 sec
 * total energy  :  -123.4262560 Eh     change       -0.5403694E-04 Eh
   gradient norm :     0.0016882 Eh/α   predicted    -0.3755541E-04 ( -30.50%)
   displ. norm   :     0.1279267 α      lambda       -0.5256079E-04
   maximum displ.:     0.0737883 α      in ANC's #2, #8, #6, ...

........................................................................
.............................. CYCLE   45 ..............................
........................................................................
   1   -125.1267257 -0.125127E+03  0.372E-02    2.64       0.0  T
   2   -125.1267265 -0.758915E-06  0.221E-02    2.64       1.0  T
   3   -125.1267222  0.430775E-05  0.864E-03    2.64       1.4  T
   4   -125.1267272 -0.503259E-05  0.104E-03    2.64      11.8  T
   5   -125.1267272 -0.230417E-07  0.677E-04    2.64      18.2  T
   6   -125.1267272 -0.357814E-08  0.426E-04    2.64      28.9  T
     SCC iter.                  ...        0 min,  0.134 sec
     gradient                   ...        0 min,  0.122 sec
 * total energy  :  -123.4263005 Eh     change       -0.4441884E-04 Eh
   gradient norm :     0.0035185 Eh/α   predicted    -0.2648481E-04 ( -40.37%)
   displ. norm   :     0.0614100 α      lambda       -0.2652829E-04
   maximum displ.:     0.0385028 α      in ANC's #2, #8, #6, ...

........................................................................
.............................. CYCLE   46 ..............................
........................................................................
   1   -125.1271676 -0.125127E+03  0.166E-02    2.64       0.0  T
   2   -125.1271677 -0.746629E-07  0.974E-03    2.65       1.3  T
   3   -125.1271674  0.244211E-06  0.206E-03    2.65       6.0  T
   4   -125.1271677 -0.291807E-06  0.393E-04    2.65      31.3  T
   5   -125.1271677 -0.217740E-08  0.281E-04    2.65      43.8  T
     SCC iter.                  ...        0 min,  0.109 sec
     gradient                   ...        0 min,  0.128 sec
 * total energy  :  -123.4263247 Eh     change       -0.2420327E-04 Eh
   gradient norm :     0.0028179 Eh/α   predicted    -0.1331599E-04 ( -44.98%)
   displ. norm   :     0.1488723 α      lambda       -0.6065036E-04
   maximum displ.:     0.0929786 α      in ANC's #2, #8, #4, ...

........................................................................
.............................. CYCLE   47 ..............................
........................................................................
   1   -125.1283978 -0.125128E+03  0.397E-02    2.65       0.0  T
   2   -125.1283982 -0.412660E-06  0.234E-02    2.65       1.0  T
   3   -125.1283963  0.191877E-05  0.556E-03    2.65       2.2  T
   4   -125.1283985 -0.221512E-05  0.831E-04    2.65      14.8  T
   5   -125.1283985 -0.153540E-07  0.573E-04    2.65      21.5  T
   6   -125.1283985 -0.776136E-08  0.339E-04    2.65      36.3  T
     SCC iter.                  ...        0 min,  0.129 sec
     gradient                   ...        0 min,  0.132 sec
 * total energy  :  -123.4263723 Eh     change       -0.4762004E-04 Eh
   gradient norm :     0.0011110 Eh/α   predicted    -0.3100044E-04 ( -34.90%)
   displ. norm   :     0.2637921 α      lambda       -0.4604344E-04
   maximum displ.:     0.1681034 α      in ANC's #2, #8, #4, ...

........................................................................
.............................. CYCLE   48 ..............................
........................................................................
   1   -125.1292987 -0.125129E+03  0.685E-02    2.65       0.0  T
   2   -125.1292996 -0.899250E-06  0.403E-02    2.65       1.0  T
   3   -125.1292946  0.500513E-05  0.873E-03    2.65       1.4  T
   4   -125.1293003 -0.570474E-05  0.133E-03    2.65       9.2  T
   5   -125.1293004 -0.488719E-07  0.889E-04    2.65      13.8  T
   6   -125.1293004 -0.193476E-07  0.488E-04    2.65      25.2  T
     SCC iter.                  ...        0 min,  0.130 sec
     gradient                   ...        0 min,  0.124 sec
 * total energy  :  -123.4264199 Eh     change       -0.4762416E-04 Eh
   gradient norm :     0.0028102 Eh/α   predicted    -0.2373615E-04 ( -50.16%)
   displ. norm   :     0.1148116 α      lambda       -0.2765631E-04
   maximum displ.:     0.0757289 α      in ANC's #2, #8, #4, ...

........................................................................
.............................. CYCLE   49 ..............................
........................................................................
   1   -125.1294077 -0.125129E+03  0.288E-02    2.65       0.0  T
   2   -125.1294078 -0.128316E-06  0.169E-02    2.65       1.0  T
   3   -125.1294073  0.537856E-06  0.287E-03    2.65       4.3  T
   4   -125.1294079 -0.620962E-06  0.529E-04    2.65      23.3  T
   5   -125.1294079 -0.721515E-08  0.356E-04    2.65      34.6  T
     SCC iter.                  ...        0 min,  0.113 sec
     gradient                   ...        0 min,  0.121 sec
 * total energy  :  -123.4264457 Eh     change       -0.2578510E-04 Eh
   gradient norm :     0.0025073 Eh/α   predicted    -0.1404830E-04 ( -45.52%)
   displ. norm   :     0.1954941 α      lambda       -0.5669410E-04
   maximum displ.:     0.1268237 α      in ANC's #2, #8, #4, ...

........................................................................
.............................. CYCLE   50 ..............................
........................................................................
   1   -125.1292650 -0.125129E+03  0.483E-02    2.65       0.0  T
   2   -125.1292654 -0.395510E-06  0.284E-02    2.65       1.0  T
   3   -125.1292641  0.126427E-05  0.455E-03    2.65       2.7  T
   4   -125.1292656 -0.148758E-05  0.870E-04    2.65      14.1  T
   5   -125.1292656 -0.194706E-07  0.530E-04    2.65      23.2  T
   6   -125.1292656 -0.337752E-08  0.275E-04    2.65      44.7  T
     SCC iter.                  ...        0 min,  0.138 sec
     gradient                   ...        0 min,  0.132 sec
 * total energy  :  -123.4264952 Eh     change       -0.4950489E-04 Eh
   gradient norm :     0.0014815 Eh/α   predicted    -0.2943071E-04 ( -40.55%)
   displ. norm   :     0.4369684 α      lambda       -0.7048597E-04
   maximum displ.:     0.2847204 α      in ANC's #2, #8, #4, ...

........................................................................
.............................. CYCLE   51 ..............................
........................................................................
   1   -125.1274294 -0.125127E+03  0.107E-01    2.64       0.0  T
   2   -125.1274315 -0.210127E-05  0.628E-02    2.64       1.0  T
   3   -125.1274264  0.506877E-05  0.923E-03    2.63       1.3  T
   4   -125.1274325 -0.608239E-05  0.207E-03    2.63       5.9  T
   5   -125.1274326 -0.126201E-06  0.119E-03    2.63      10.4  T
   6   -125.1274326 -0.861246E-08  0.627E-04    2.63      19.6  T
   7   -125.1274326 -0.171350E-07  0.203E-04    2.63      60.8  T
     SCC iter.                  ...        0 min,  0.152 sec
     gradient                   ...        0 min,  0.110 sec
 * total energy  :  -123.4265669 Eh     change       -0.7174091E-04 Eh
   gradient norm :     0.0025363 Eh/α   predicted    -0.3823411E-04 ( -46.71%)
   displ. norm   :     0.1418599 α      lambda       -0.2786661E-04
   maximum displ.:     0.0988115 α      in ANC's #2, #8, #4, ...

........................................................................
.............................. CYCLE   52 ..............................
........................................................................
   1   -125.1280169 -0.125128E+03  0.338E-02    2.63       0.0  T
   2   -125.1280172 -0.278643E-06  0.198E-02    2.63       1.0  T
   3   -125.1280167  0.490310E-06  0.305E-03    2.63       4.0  T
   4   -125.1280173 -0.601073E-06  0.796E-04    2.63      15.5  T
   5   -125.1280173 -0.212348E-07  0.482E-04    2.63      25.5  T
     SCC iter.                  ...        0 min,  0.111 sec
     gradient                   ...        0 min,  0.132 sec
 * total energy  :  -123.4265912 Eh     change       -0.2424168E-04 Eh
   gradient norm :     0.0020227 Eh/α   predicted    -0.1425483E-04 ( -41.20%)
   displ. norm   :     0.1527339 α      lambda       -0.3394915E-04
   maximum displ.:     0.1075865 α      in ANC's #2, #4, #11, ...

........................................................................
.............................. CYCLE   53 ..............................
........................................................................
   1   -125.1289695 -0.125129E+03  0.353E-02    2.64       0.0  T
   2   -125.1289699 -0.401835E-06  0.207E-02    2.63       1.0  T
   3   -125.1289694  0.499430E-06  0.332E-03    2.63       3.7  T
   4   -125.1289701 -0.662670E-06  0.941E-04    2.63      13.1  T
   5   -125.1289701 -0.187222E-07  0.665E-04    2.63      18.5  T
     SCC iter.                  ...        0 min,  0.113 sec
     gradient                   ...        0 min,  0.126 sec
 * total energy  :  -123.4266210 Eh     change       -0.2982247E-04 Eh
   gradient norm :     0.0011368 Eh/α   predicted    -0.1737978E-04 ( -41.72%)
   displ. norm   :     0.3232473 α      lambda       -0.4347050E-04
   maximum displ.:     0.2237493 α      in ANC's #2, #4, #11, ...

........................................................................
.............................. CYCLE   54 ..............................
........................................................................
   1   -125.1293771 -0.125129E+03  0.737E-02    2.63       0.0  T
   2   -125.1293787 -0.158425E-05  0.433E-02    2.63       1.0  T
   3   -125.1293775  0.118110E-05  0.530E-03    2.63       2.3  T
   4   -125.1293792 -0.170053E-05  0.180E-03    2.63       6.8  T
   5   -125.1293793 -0.816419E-07  0.117E-03    2.63      10.5  T
   6   -125.1293793 -0.168973E-07  0.722E-04    2.63      17.1  T
   7   -125.1293794 -0.111700E-07  0.508E-04    2.63      24.2  T
     SCC iter.                  ...        0 min,  0.151 sec
     gradient                   ...        0 min,  0.083 sec
 * total energy  :  -123.4266728 Eh     change       -0.5178846E-04 Eh
   gradient norm :     0.0014683 Eh/α   predicted    -0.2274585E-04 ( -56.08%)
   displ. norm   :     0.2945965 α      lambda       -0.3221419E-04
   maximum displ.:     0.2051102 α      in ANC's #2, #4, #5, ...

........................................................................
.............................. CYCLE   55 ..............................
........................................................................
   1   -125.1290031 -0.125129E+03  0.655E-02    2.63       0.0  T
   2   -125.1290041 -0.996952E-06  0.384E-02    2.63       1.0  T
   3   -125.1290029  0.120951E-05  0.486E-03    2.63       2.5  T
   4   -125.1290045 -0.158844E-05  0.149E-03    2.63       8.3  T
   5   -125.1290045 -0.622448E-07  0.888E-04    2.63      13.9  T
   6   -125.1290045 -0.624715E-08  0.494E-04    2.63      24.9  T
     SCC iter.                  ...        0 min,  0.129 sec
     gradient                   ...        0 min,  0.113 sec
 * total energy  :  -123.4267122 Eh     change       -0.3940021E-04 Eh
   gradient norm :     0.0020288 Eh/α   predicted    -0.1672866E-04 ( -57.54%)
   displ. norm   :     0.1803625 α      lambda       -0.2842692E-04
   maximum displ.:     0.1260522 α      in ANC's #2, #5, #4, ...

........................................................................
.............................. CYCLE   56 ..............................
........................................................................
   1   -125.1290232 -0.125129E+03  0.394E-02    2.63       0.0  T
   2   -125.1290235 -0.254127E-06  0.231E-02    2.63       1.0  T
   3   -125.1290228  0.668491E-06  0.317E-03    2.63       3.9  T
   4   -125.1290236 -0.825397E-06  0.864E-04    2.63      14.2  T
   5   -125.1290236 -0.126075E-07  0.560E-04    2.63      22.0  T
     SCC iter.                  ...        0 min,  0.109 sec
     gradient                   ...        0 min,  0.129 sec
 * total energy  :  -123.4267371 Eh     change       -0.2491099E-04 Eh
   gradient norm :     0.0017512 Eh/α   predicted    -0.1467602E-04 ( -41.09%)
   displ. norm   :     0.3577951 α      lambda       -0.3522193E-04
   maximum displ.:     0.2493655 α      in ANC's #2, #5, #4, ...

........................................................................
.............................. CYCLE   57 ..............................
........................................................................
   1   -125.1286794 -0.125129E+03  0.777E-02    2.62       0.0  T
   2   -125.1286805 -0.101873E-05  0.456E-02    2.62       1.0  T
   3   -125.1286770  0.347046E-05  0.706E-03    2.62       1.7  T
   4   -125.1286812 -0.417615E-05  0.158E-03    2.62       7.8  T
   5   -125.1286812 -0.295919E-07  0.102E-03    2.62      12.1  T
   6   -125.1286812 -0.169289E-07  0.425E-04    2.62      29.0  T
   7   -125.1286812 -0.638633E-08  0.213E-04    2.62      57.7  T
     SCC iter.                  ...        0 min,  0.151 sec
     gradient                   ...        0 min,  0.143 sec
 * total energy  :  -123.4267761 Eh     change       -0.3897435E-04 Eh
   gradient norm :     0.0011417 Eh/α   predicted    -0.1861426E-04 ( -52.24%)
   displ. norm   :     0.2331712 α      lambda       -0.1662876E-04
   maximum displ.:     0.1652774 α      in ANC's #2, #5, #4, ...

........................................................................
.............................. CYCLE   58 ..............................
........................................................................
   1   -125.1285571 -0.125129E+03  0.501E-02    2.62       0.0  T
   2   -125.1285575 -0.436334E-06  0.294E-02    2.62       1.0  T
   3   -125.1285556  0.189533E-05  0.504E-03    2.62       2.4  T
   4   -125.1285579 -0.222269E-05  0.106E-03    2.62      11.6  T
   5   -125.1285579 -0.192226E-07  0.671E-04    2.62      18.3  T
   6   -125.1285579 -0.589782E-08  0.279E-04    2.62      44.2  T
     SCC iter.                  ...        0 min,  0.134 sec
     gradient                   ...        0 min,  0.139 sec
 * total energy  :  -123.4267952 Eh     change       -0.1911637E-04 Eh
   gradient norm :     0.0010108 Eh/α   predicted    -0.8516565E-05 ( -55.45%)
   displ. norm   :     0.1868838 α      lambda       -0.1417593E-04
   maximum displ.:     0.1326477 α      in ANC's #2, #5, #4, ...

........................................................................
.............................. CYCLE   59 ..............................
........................................................................
   1   -125.1291036 -0.125129E+03  0.400E-02    2.62       0.0  T
   2   -125.1291039 -0.348516E-06  0.235E-02    2.62       1.0  T
   3   -125.1291022  0.177204E-05  0.489E-03    2.62       2.5  T
   4   -125.1291042 -0.202940E-05  0.935E-04    2.62      13.2  T
   5   -125.1291042 -0.241178E-07  0.566E-04    2.62      21.7  T
   6   -125.1291042 -0.374105E-08  0.283E-04    2.62      43.5  T
     SCC iter.                  ...        0 min,  0.133 sec
     gradient                   ...        0 min,  0.122 sec
 * total energy  :  -123.4268115 Eh     change       -0.1634140E-04 Eh
   gradient norm :     0.0010891 Eh/α   predicted    -0.7199509E-05 ( -55.94%)
   displ. norm   :     0.2233113 α      lambda       -0.1672405E-04
   maximum displ.:     0.1560908 α      in ANC's #2, #4, #5, ...

........................................................................
.............................. CYCLE   60 ..............................
........................................................................
   1   -125.1292109 -0.125129E+03  0.474E-02    2.62       0.0  T
   2   -125.1292113 -0.430046E-06  0.279E-02    2.62       1.0  T
   3   -125.1292095  0.183273E-05  0.495E-03    2.62       2.5  T
   4   -125.1292116 -0.213062E-05  0.105E-03    2.62      11.7  T
   5   -125.1292116 -0.277987E-07  0.641E-04    2.62      19.2  T
   6   -125.1292116 -0.489756E-08  0.298E-04    2.62      41.3  T
     SCC iter.                  ...        0 min,  0.132 sec
     gradient                   ...        0 min,  0.125 sec
 * total energy  :  -123.4268311 Eh     change       -0.1958070E-04 Eh
   gradient norm :     0.0011016 Eh/α   predicted    -0.8550397E-05 ( -56.33%)
[...]
         :: HOMO-LUMO gap              2.572508910543 eV    ::
         ::.................................................::
         :: SCC energy              -125.129597623533 Eh    ::
         :: -> isotropic ES            0.140130837902 Eh    ::
         :: -> anisotropic ES          0.004364813625 Eh    ::
         :: -> anisotropic XC          0.035522780152 Eh    ::
         :: -> dispersion             -0.105276986021 Eh    ::
         :: repulsion energy           1.699716872030 Eh    ::
         :: add. restraining           0.000000000000 Eh    ::
         :: total charge              -0.000000000000 e     ::
         :::::::::::::::::::::::::::::::::::::::::::::::::::::

           -------------------------------------------------
          |                Property Printout                |
           -------------------------------------------------

    * Orbital Energies and Occupations

         #    Occupation            Energy/Eh            Energy/eV
      -------------------------------------------------------------
         1        2.0000           -1.0819983             -29.4427
       ...           ...                  ...                  ...
        97        2.0000           -0.4206625             -11.4468
        98        2.0000           -0.4196167             -11.4184
        99        2.0000           -0.4162748             -11.3274
       100        2.0000           -0.4157648             -11.3135
       101        2.0000           -0.4117911             -11.2054
       102        2.0000           -0.4092648             -11.1367
       103        2.0000           -0.4088046             -11.1241
       104        2.0000           -0.4038406             -10.9891
       105        2.0000           -0.4023072             -10.9473
       106        2.0000           -0.3991325             -10.8609
       107        2.0000           -0.3987227             -10.8498
       108        2.0000           -0.3788400             -10.3088
       109        2.0000           -0.3754034             -10.2152 (HOMO)
       110                         -0.2808654              -7.6427 (LUMO)
       111                         -0.2750695              -7.4850
       112                         -0.2679352              -7.2909
       113                         -0.2630003              -7.1566
       114                         -0.2588179              -7.0428
       115                         -0.2302253              -6.2648
       116                         -0.2271227              -6.1803
       117                         -0.2140021              -5.8233
       118                         -0.2100534              -5.7158
       119                         -0.1944587              -5.2915
       120                         -0.1885953              -5.1319
       ...                                ...                  ...
       208                          0.6953613              18.9217
      -------------------------------------------------------------
                  HL-Gap            0.0945380 Eh            2.5725 eV
             Fermi-level           -0.3281344 Eh           -8.9290 eV

     #   Z          covCN         q      C6AA      α(0)
     1   6 C        2.921    -0.034    28.854     8.809
     2   6 C        2.915    -0.029    28.730     8.789
     3   6 C        2.917    -0.028    28.707     8.786
     4   6 C        2.917    -0.033    28.825     8.804
     5   6 C        2.983     0.011    27.760     8.643
     6   6 C        2.989     0.016    27.649     8.626
     7   6 C        2.920    -0.036    28.896     8.815
     8   6 C        2.914    -0.028    28.709     8.786
     9   6 C        2.921    -0.036    28.892     8.815
    10   6 C        2.967     0.004    27.935     8.669
    11   6 C        3.826     0.043    19.834     6.337
    12   6 C        3.832     0.047    19.767     6.326
    13   6 C        2.968     0.009    27.811     8.650
    14   6 C        2.923    -0.032    28.795     8.800
    15   6 C        2.914    -0.029    28.720     8.788
    16   6 C        2.921    -0.035    28.860     8.810
    17   6 C        2.989     0.017    27.611     8.619
    18   6 C        2.983     0.015    27.666     8.628
    19   6 C        2.917    -0.031    28.762     8.794
    20   6 C        2.917    -0.028    28.688     8.783
    21   6 C        2.915    -0.028    28.707     8.786
    22   6 C        2.921    -0.033    28.833     8.806
    23   7 N        2.761    -0.110    23.407     7.186
    24   6 C        2.759     0.268    22.480     7.764
    25   6 C        3.105     0.083    26.016     8.358
    26   6 C        3.034    -0.043    29.037     8.839
    27   6 C        3.014    -0.072    29.781     8.952
    28   6 C        3.044     0.203    23.664     7.979
    29  17 Cl       0.920    -0.114   102.705    15.504
    30   8 O        1.741    -0.185    17.085     5.581
    31   8 O        0.860    -0.416    21.994     6.288
    32   6 C        3.757     0.083    19.246     6.255
    33   6 C        2.687     0.357    20.948     7.490
    34   8 O        1.659    -0.362    20.135     6.058
    35   8 O        0.856    -0.381    21.300     6.188
    36   7 N        2.762    -0.101    23.222     7.157
    37   6 C        2.760     0.266    22.508     7.769
    38   6 C        3.103     0.083    26.019     8.358
    39   6 C        3.035    -0.041    28.993     8.832
    40   6 C        3.013    -0.071    29.744     8.946
    41   6 C        3.044     0.204    23.639     7.974
    42  17 Cl       0.920    -0.118   102.814    15.512
    43   8 O        1.741    -0.195    17.247     5.608
    44   8 O        0.860    -0.418    22.044     6.295
    45   1 H        0.926     0.035     2.520     2.482
    46   1 H        0.926     0.033     2.547     2.496
    47   1 H        0.926     0.031     2.575     2.509
    48   1 H        0.926     0.027     2.629     2.535
    49   1 H        0.926     0.036     2.505     2.475
    50   1 H        0.926     0.037     2.489     2.467
    51   1 H        0.926     0.048     2.344     2.394
    52   1 H        0.924     0.067     2.117     2.275
    53   1 H        0.924     0.053     2.280     2.361
    54   1 H        0.926     0.028     2.620     2.531
    55   1 H        0.926     0.036     2.506     2.475
    56   1 H        0.926     0.038     2.480     2.463
    57   1 H        0.926     0.027     2.625     2.533
    58   1 H        0.926     0.033     2.547     2.496
    59   1 H        0.926     0.034     2.527     2.486
    60   1 H        0.926     0.036     2.504     2.475
    61   1 H        0.927     0.083     1.951     2.184
    62   1 H        0.927     0.073     2.057     2.243
    63   1 H        0.924     0.102     1.770     2.080
    64   1 H        0.804     0.346     0.598     1.214
    65   1 H        0.927     0.084     1.934     2.175
    66   1 H        0.927     0.073     2.058     2.243

 Mol. C6AA /au·bohr⁶  :      70170.019981
 Mol. C8AA /au·bohr⁸  :    1832951.953060
 Mol. α(0) /au        :        418.155936


Wiberg/Mayer (AO) data.
largest (>0.10) Wiberg bond orders for each atom

 ---------------------------------------------------------------------------
     #   Z sym  total        # sym  WBO       # sym  WBO       # sym  WBO
 ---------------------------------------------------------------------------
     1   6 C    3.991 --     2 C    1.556     6 C    1.280    45 H    0.968
                             4 C    0.118
     2   6 C    3.992 --     1 C    1.556     3 C    1.323    46 H    0.971
     3   6 C    3.992 --     4 C    1.553     2 C    1.323    47 H    0.971
     4   6 C    3.992 --     3 C    1.553     5 C    1.283    48 H    0.961
                             1 C    0.118
     5   6 C    3.988 --     4 C    1.283     6 C    1.253    10 C    1.250
     6   6 C    3.990 --     1 C    1.280     7 C    1.278     5 C    1.253
     7   6 C    3.990 --     8 C    1.556     6 C    1.278    49 H    0.968
                            10 C    0.114
     8   6 C    3.992 --     7 C    1.556     9 C    1.323    50 H    0.970
     9   6 C    3.989 --    10 C    1.529     8 C    1.323    51 H    0.961
    10   6 C    3.982 --     9 C    1.529     5 C    1.250    11 C    0.987
                             7 C    0.114
    11   6 C    3.957 --    10 C    0.987    36 N    0.958    12 C    0.949
                            52 H    0.945
    12   6 C    3.960 --    13 C    0.992    23 N    0.956    11 C    0.949
                            53 H    0.947
    13   6 C    3.983 --    14 C    1.520    18 C    1.254    12 C    0.992
                            16 C    0.115
    14   6 C    3.991 --    13 C    1.520    15 C    1.330    54 H    0.968
    15   6 C    3.992 --    16 C    1.550    14 C    1.330    55 H    0.970
    16   6 C    3.990 --    15 C    1.550    17 C    1.282    56 H    0.968
                            13 C    0.115
    17   6 C    3.990 --    16 C    1.282    22 C    1.278    18 C    1.251
    18   6 C    3.989 --    19 C    1.281    13 C    1.254    17 C    1.251
    19   6 C    3.992 --    20 C    1.556    18 C    1.281    57 H    0.961
                            22 C    0.118
    20   6 C    3.992 --    19 C    1.556    21 C    1.321    58 H    0.971
    21   6 C    3.992 --    22 C    1.558    20 C    1.321    59 H    0.971
    22   6 C    3.991 --    21 C    1.558    17 C    1.278    60 H    0.968
                            19 C    0.118
    23   7 N    3.449 --    24 C    1.189    32 C    0.987    12 C    0.956
                            31 O    0.184
    24   6 C    3.962 --    31 O    1.657    23 N    1.189    25 C    1.023
    25   6 C    3.893 --    26 C    1.534    30 O    1.075    24 C    1.023
                            28 C    0.126
    26   6 C    3.982 --    25 C    1.534    27 C    1.312    61 H    0.969
    27   6 C    3.974 --    28 C    1.527    26 C    1.312    62 H    0.970
    28   6 C    3.866 --    27 C    1.527    30 O    1.131    29 Cl   1.011
                            25 C    0.126
    29  17 Cl   1.167 --    28 C    1.011
    30   8 O    2.434 --    28 C    1.131    25 C    1.075
    31   8 O    2.009 --    24 C    1.657    23 N    0.184
    32   6 C    3.969 --    36 N    0.998    23 N    0.987    63 H    0.919
                            33 C    0.905
    33   6 C    3.917 --    35 O    1.782    34 O    1.159    32 C    0.905
    34   8 O    2.221 --    33 C    1.159    64 H    0.853    35 O    0.181
    35   8 O    2.071 --    33 C    1.782    34 O    0.181
    36   7 N    3.472 --    37 C    1.199    32 C    0.998    11 C    0.958
                            44 O    0.190
    37   6 C    3.962 --    44 O    1.651    36 N    1.199    38 C    1.023
    38   6 C    3.891 --    39 C    1.536    43 O    1.071    37 C    1.023
                            41 C    0.127
    39   6 C    3.981 --    38 C    1.536    40 C    1.311    65 H    0.968
    40   6 C    3.975 --    41 C    1.529    39 C    1.311    66 H    0.970
    41   6 C    3.863 --    40 C    1.529    43 O    1.129    42 Cl   1.008
                            38 C    0.127
    42  17 Cl   1.162 --    41 C    1.008
    43   8 O    2.425 --    41 C    1.129    38 C    1.071
    44   8 O    2.002 --    37 C    1.651    36 N    0.190
    45   1 H    0.998 --     1 C    0.968
    46   1 H    0.998 --     2 C    0.971
    47   1 H    0.999 --     3 C    0.971
    48   1 H    0.999 --     4 C    0.961
    49   1 H    0.998 --     7 C    0.968
    50   1 H    0.998 --     8 C    0.970
    51   1 H    0.997 --     9 C    0.961
    52   1 H    0.995 --    11 C    0.945
    53   1 H    0.996 --    12 C    0.947
    54   1 H    0.999 --    14 C    0.968
    55   1 H    0.998 --    15 C    0.970
    56   1 H    0.998 --    16 C    0.968
    57   1 H    0.999 --    19 C    0.961
    58   1 H    0.998 --    20 C    0.971
    59   1 H    0.998 --    21 C    0.971
    60   1 H    0.998 --    22 C    0.968
    61   1 H    0.993 --    26 C    0.969
    62   1 H    0.994 --    27 C    0.970
    63   1 H    0.989 --    32 C    0.919
    64   1 H    0.880 --    34 O    0.853
    65   1 H    0.993 --    39 C    0.968
    66   1 H    0.994 --    40 C    0.970
 ---------------------------------------------------------------------------

Topologies differ in total number of bonds
Writing topology from bond orders to xtbtopo.mol

molecular dipole:
                 x           y           z       tot (Debye)
 q only:       -0.564       0.063      -0.351
   full:       -0.331      -0.869      -0.605       2.820
molecular quadrupole (traceless):
                xx          xy          yy          xz          yz          zz
 q only:       -7.063      -0.153       5.580      -4.807       3.814       1.483
  q+dip:      -18.332      -6.866      18.487     -15.967       2.002      -0.155
   full:      -17.684      -5.676      16.041     -11.880       3.154       1.643

           -------------------------------------------------
          |                Geometry Summary                 |
           -------------------------------------------------

      molecular mass/u    :      625.4554282
   center of mass at/Å    :        0.2482344      -0.9202721      -0.0687267
  moments of inertia/u·Å² :        0.4226207E+04   0.8993183E+04   0.1159079E+05
rotational constants/cm⁻¹ :        0.3988833E-02   0.1874490E-02   0.1454398E-02

 * 66 selected distances

     #   Z          #   Z                                           value/Å
     1   6 C        2   6 C                                       1.3650056
     2   6 C        3   6 C                                       1.4012012
     3   6 C        4   6 C                                       1.3667724
     4   6 C        5   6 C                                       1.4126267
     1   6 C        6   6 C                                       1.4106860
     5   6 C        6   6 C                                       1.4227754
     6   6 C        7   6 C                                       1.4100311
     7   6 C        8   6 C                                       1.3642269
     8   6 C        9   6 C                                       1.4010817
     5   6 C       10   6 C                                       1.4227282
     9   6 C       10   6 C                                       1.3713664
    13   6 C       14   6 C                                       1.3729507
    14   6 C       15   6 C                                       1.3992408
    15   6 C       16   6 C                                       1.3649650
    16   6 C       17   6 C                                       1.4094415
    13   6 C       18   6 C                                       1.4203876
    17   6 C       18   6 C                                       1.4230087
    18   6 C       19   6 C                                       1.4125330
    19   6 C       20   6 C                                       1.3663080
    20   6 C       21   6 C                                       1.4016786
    17   6 C       22   6 C                                       1.4109174
    21   6 C       22   6 C                                       1.3647274
    12   6 C       23   7 N                                       1.4591129
    23   7 N       24   6 C                                       1.3639307
    25   6 C       26   6 C                                       1.3719831
    26   6 C       27   6 C                                       1.4106350
    27   6 C       28   6 C                                       1.3651557
    28   6 C       29  17 Cl                                      1.6980989 (max)
    25   6 C       30   8 O                                       1.3600128
    28   6 C       30   8 O                                       1.3403505
    24   6 C       31   8 O                                       1.2164363
    23   7 N       32   6 C                                       1.4409186
    33   6 C       34   8 O                                       1.3277864
    33   6 C       35   8 O                                       1.1979398
    11   6 C       36   7 N                                       1.4572057
    32   6 C       36   7 N                                       1.4364084
    36   7 N       37   6 C                                       1.3596014
    38   6 C       39   6 C                                       1.3720913
    39   6 C       40   6 C                                       1.4107178
    40   6 C       41   6 C                                       1.3647224
    41   6 C       42  17 Cl                                      1.6975445
    38   6 C       43   8 O                                       1.3617149
    41   6 C       43   8 O                                       1.3406265
    37   6 C       44   8 O                                       1.2165140
     1   6 C       45   1 H                                       1.0809274
     2   6 C       46   1 H                                       1.0799805
     3   6 C       47   1 H                                       1.0799796
     4   6 C       48   1 H                                       1.0779702
     7   6 C       49   1 H                                       1.0806362
     8   6 C       50   1 H                                       1.0797455
     9   6 C       51   1 H                                       1.0787000
    11   6 C       52   1 H                                       1.0958906
    12   6 C       53   1 H                                       1.0960222
    14   6 C       54   1 H                                       1.0809662
    15   6 C       55   1 H                                       1.0798905
    16   6 C       56   1 H                                       1.0804985
    19   6 C       57   1 H                                       1.0783927
    20   6 C       58   1 H                                       1.0799566
    21   6 C       59   1 H                                       1.0799749
    22   6 C       60   1 H                                       1.0808801
    26   6 C       61   1 H                                       1.0699901
    27   6 C       62   1 H                                       1.0693450
    32   6 C       63   1 H                                       1.0972652
    34   8 O       64   1 H                                       0.9721534 (min)
    39   6 C       65   1 H                                       1.0700352
    40   6 C       66   1 H                                       1.0693854

 * 6 distinct bonds (by element types)

   Z      Z             #   av. dist./Å        max./Å        min./Å
   1 H    6 C          21     1.0803063     1.0972652     1.0693450
   6 C    6 C          28     1.3924988     1.4230087     1.3642269
   6 C    7 N           6     1.4195296     1.4591129     1.3596014
   1 H    8 O           1     0.9721534     0.9721534     0.9721534
   6 C    8 O           8     1.2951727     1.3617149     1.1979398
   6 C   17 Cl          2     1.6978217     1.6980989     1.6975445


optimized geometry written to: xtbopt.xyz


           -------------------------------------------------
          | TOTAL ENERGY             -123.427060934373 Eh   |
          | GRADIENT NORM               0.000280677153 Eh/α |
          | HOMO-LUMO GAP               2.572508910543 eV   |
           -------------------------------------------------

------------------------------------------------------------------------
 * finished run on 2022/03/17 at 02:13:07.837     
------------------------------------------------------------------------
 total:
 * wall-time:     0 d,  0 h,  0 min, 36.759 sec
 *  cpu-time:     0 d,  0 h, 12 min, 59.361 sec
 * ratio c/w:    21.202 speedup
 SCF:
 * wall-time:     0 d,  0 h,  0 min,  0.625 sec
 *  cpu-time:     0 d,  0 h,  0 min,  9.263 sec
 * ratio c/w:    14.816 speedup
 ANC optimizer:
 * wall-time:     0 d,  0 h,  0 min, 35.996 sec
 *  cpu-time:     0 d,  0 h, 12 min, 46.089 sec
 * ratio c/w:    21.283 speedup

