      -----------------------------------------------------------      
     |                   =====================                   |     
     |                           x T B                           |     
     |                   =====================                   |     
     |                         S. Grimme                         |     
     |          Mulliken Center for Theoretical Chemistry        |     
     |                    University of Bonn                     |     
      -----------------------------------------------------------      

   * xtb version 6.3.3 (4ae9cef) compiled by 'conda@95abc7406d43' on 2020-10-14

   xtb is free software: you can redistribute it and/or modify it under
   the terms of the GNU Lesser General Public License as published by
   the Free Software Foundation, either version 3 of the License, or
   (at your option) any later version.
   
   xtb is distributed in the hope that it will be useful,
   but WITHOUT ANY WARRANTY; without even the implied warranty of
   MERCHANTABILITY or FITNESS FOR A PARTICULAR PURPOSE.  See the
   GNU Lesser General Public License for more details.
   
   Cite this work as:
   * C. Bannwarth, E. Caldeweyher, S. Ehlert, A. Hansen, P. Pracht,
     J. Seibert, S. Spicher, S. Grimme, WIREs Comput. Mol. Sci., 2020,
     e01493. DOI: 10.1002/wcms.1493
   
   for GFN2-xTB:
   * S. Grimme, C. Bannwarth, P. Shushkov, J. Chem. Theory Comput., 2017,
     13, 1989-2009. DOI: 10.1021/acs.jctc.7b00118
   for GFN1-xTB:
   * C. Bannwarth, S. Ehlert and S. Grimme., J. Chem. Theory Comput., 2019,
     15, 1652-1671. DOI: 10.1021/acs.jctc.8b01176
   for GFN0-xTB:
   * P. Pracht, E. Caldeweyher, S. Ehlert, S. Grimme, ChemRxiv, 2019, preprint.
     DOI: 10.26434/chemrxiv.8326202.v1
   for GFN-FF:
   * S. Spicher and S. Grimme, Angew. Chem. Int. Ed., 2020, 59, 15665-15673.
     DOI: 10.1002/anie.202004239
   
   for DFT-D4:
   * E. Caldeweyher, C. Bannwarth and S. Grimme, J. Chem. Phys., 2017,
     147, 034112. DOI: 10.1063/1.4993215
   * E. Caldeweyher, S. Ehlert, A. Hansen, H. Neugebauer, S. Spicher,
     C. Bannwarth and S. Grimme, J. Chem. Phys., 2019, 150, 154122.
     DOI: 10.1063/1.5090222
   * E. Caldeweyher, J.-M. Mewes, S. Ehlert and S. Grimme, Phys. Chem. Chem. Phys.
     2020, 22, 8499-8512. DOI: 10.1039/D0CP00502A
   
   for sTDA-xTB:
   * S. Grimme and C. Bannwarth, J. Chem. Phys., 2016, 145, 054103.
     DOI: 10.1063/1.4959605
   
   in the mass-spec context:
   * V. Asgeirsson, C. Bauer and S. Grimme, Chem. Sci., 2017, 8, 4879.
     DOI: 10.1039/c7sc00601b
   * J. Koopman and S. Grimme, ACS Omega 2019, 4, 12, 15120-15133.
     DOI: 10.1021/acsomega.9b02011
   
   for metadynamics refer to:
   * S. Grimme, J. Chem. Theory Comput., 2019, 155, 2847-2862
     DOI: 10.1021/acs.jctc.9b00143
   
   with help from (in alphabetical order)
   C. Bannwarth, F. Bohle, G. Brandenburg, E. Caldeweyher, M. Checinski,
   S. Dohm, S. Ehlert, S. Ehrlich, F. März, H. Neugebauer, J. Pisarek,
   P. Pracht, P. Shushkov, and S. Spicher.
   
 * started run on 2022/03/17 at 19:41:31.190     

           -------------------------------------------------
          |                Calculation Setup                |
           -------------------------------------------------

          program call               : xtb alk_6.xyz --opt --chrg 0 --uhf 0 --gfn 2
          coordinate file            : alk_6.xyz
          omp threads                :                    64
          number of atoms            :                    26
          number of electrons        :                    94
          charge                     :                     0
          spin                       :                   0.0
          first test random number   :      0.85463035432674

   ID    Z sym.   atoms
    1    8 O      1, 3, 17
    2   16 S      2
    3    6 C      4-13
    4    9 F      14-16
    5    1 H      18-26

           -------------------------------------------------
          |                 G F N 2 - x T B                 |
           -------------------------------------------------

        Reference                      10.1021/acs.jctc.8b01176
      * Hamiltonian:
        H0-scaling (s, p, d)           1.850000    2.230000    2.230000
        zeta-weighting                 0.500000
      * Dispersion:
        s8                             2.700000
        a1                             0.520000
        a2                             5.000000
        s9                             5.000000
      * Repulsion:
        kExp                           1.500000    1.000000
        rExp                           1.000000
      * Coulomb:
        alpha                          2.000000
        third order                    shell-resolved
        anisotropic                    true
        a3                             3.000000
        a5                             4.000000
        cn-shift                       1.200000
        cn-exp                         4.000000
        max-rad                        5.000000


          ...................................................
          :                      SETUP                      :
          :.................................................:
          :  # basis functions                  83          :
          :  # atomic orbitals                  82          :
          :  # shells                           44          :
          :  # electrons                        94          :
          :  max. iterations                   250          :
          :  Hamiltonian                  GFN2-xTB          :
          :  restarted?                      false          :
          :  GBSA solvation                  false          :
          :  PC potential                    false          :
          :  electronic temp.          300.0000000     K    :
          :  accuracy                    1.0000000          :
          :  -> integral cutoff          0.2500000E+02      :
          :  -> integral neglect         0.1000000E-07      :
          :  -> SCF convergence          0.1000000E-05 Eh   :
          :  -> wf. convergence          0.1000000E-03 e    :
          :  Broyden damping             0.4000000          :
          ...................................................

 iter      E             dE          RMSdq      gap      omega  full diag
   1    -55.9735691 -0.559736E+02  0.599E+00    4.05       0.0  T
   2    -56.0743922 -0.100823E+00  0.388E+00    4.38       1.0  T
   3    -56.0782418 -0.384964E-02  0.174E+00    4.23       1.0  T
   4    -56.0958833 -0.176415E-01  0.612E-01    4.26       1.0  T
   5    -56.0964094 -0.526168E-03  0.397E-01    4.26       1.0  T
   6    -56.0981300 -0.172054E-02  0.155E-01    4.26       1.0  T
   7    -56.0982198 -0.898267E-04  0.989E-02    4.27       1.0  T
   8    -56.0983185 -0.987349E-04  0.412E-02    4.27       1.0  T
   9    -56.0983289 -0.103053E-04  0.106E-02    4.27       1.8  T
  10    -56.0983294 -0.518692E-06  0.546E-03    4.27       3.6  T
  11    -56.0983296 -0.185779E-06  0.205E-03    4.27       9.6  T
  12    -56.0983296 -0.169690E-07  0.585E-04    4.27      33.5  T
  13    -56.0983296 -0.298069E-08  0.266E-04    4.27      73.7  T

   *** convergence criteria satisfied after 13 iterations ***

         #    Occupation            Energy/Eh            Energy/eV
      -------------------------------------------------------------
         1        2.0000           -0.9227298             -25.1088
       ...           ...                  ...                  ...
        41        2.0000           -0.4702283             -12.7956
        42        2.0000           -0.4536755             -12.3451
        43        2.0000           -0.4457768             -12.1302
        44        2.0000           -0.4410029             -12.0003
        45        2.0000           -0.4272682             -11.6266
        46        2.0000           -0.4117418             -11.2041
        47        2.0000           -0.4079218             -11.1001 (HOMO)
        48                         -0.2509064              -6.8275 (LUMO)
        49                         -0.2461009              -6.6967
        50                         -0.2294845              -6.2446
        51                         -0.2166051              -5.8941
        52                         -0.1892445              -5.1496
       ...                                ...                  ...
        82                          1.0691178              29.0922
      -------------------------------------------------------------
                  HL-Gap            0.1570153 Eh            4.2726 eV
             Fermi-level           -0.3294141 Eh           -8.9638 eV

 SCC (total)                   0 d,  0 h,  0 min,  0.031 sec
 SCC setup                      ...        0 min,  0.000 sec (  0.456%)
 Dispersion                     ...        0 min,  0.000 sec (  1.059%)
 classical contributions        ...        0 min,  0.000 sec (  0.238%)
 integral evaluation            ...        0 min,  0.006 sec ( 19.390%)
 iterations                     ...        0 min,  0.020 sec ( 66.477%)
 molecular gradient             ...        0 min,  0.004 sec ( 11.526%)
 printout                       ...        0 min,  0.000 sec (  0.716%)

         :::::::::::::::::::::::::::::::::::::::::::::::::::::
         ::                     SUMMARY                     ::
         :::::::::::::::::::::::::::::::::::::::::::::::::::::
         :: total energy             -55.591745750664 Eh    ::
         :: gradient norm              0.129015566190 Eh/a0 ::
         :: HOMO-LUMO gap              4.272605041824 eV    ::
         ::.................................................::
         :: SCC energy               -56.098329574640 Eh    ::
         :: -> isotropic ES            0.097556012904 Eh    ::
         :: -> anisotropic ES         -0.004594986259 Eh    ::
         :: -> anisotropic XC         -0.004066972071 Eh    ::
         :: -> dispersion             -0.026012407415 Eh    ::
         :: repulsion energy           0.506650669673 Eh    ::
         :: add. restraining           0.000000000000 Eh    ::
         :: total charge              -0.000000000000 e     ::
         :::::::::::::::::::::::::::::::::::::::::::::::::::::

      ----------------------------------------------------------- 
     |                   =====================                   |
     |                        A N C O P T                        |
     |                   =====================                   |
     |               Approximate Normal Coordinate               |
     |                Rational Function Optimizer                |
      ----------------------------------------------------------- 

          ...................................................
          :                      SETUP                      :
          :.................................................:
          :   optimization level            normal          :
          :   max. optcycles                   200          :
          :   ANC micro-cycles                  20          :
          :   degrees of freedom                72          :
          :.................................................:
          :   RF solver                   davidson          :
          :   write xtbopt.log                true          :
          :   linear?                        false          :
          :   energy convergence         0.5000000E-05 Eh   :
          :   grad. convergence          0.1000000E-02 Eh/α :
          :   maximium RF displ.         1.0000000          :
          :   Hlow (freq-cutoff)         0.1000000E-01      :
          :   Hmax (freq-cutoff)         5.0000000          :
          :   S6 in model hess.         20.0000000          :
          ...................................................

generating ANC from model Hessian ...
Using Lindh-Hessian (1995)
 Shifting diagonal of input Hessian by    9.4626416583025817E-003
 Lowest  eigenvalues of input Hessian
    0.000000    0.000000    0.000000    0.000000    0.000000    0.000000
    0.010000    0.010628    0.011372    0.012237    0.013018    0.013945
    0.018835    0.020374    0.023823    0.024386    0.027942    0.028229
 Highest eigenvalues
    1.838826    1.859712    1.956480    2.056993    2.619412    3.353722


........................................................................
.............................. CYCLE    1 ..............................
........................................................................
   1    -56.0983296 -0.560983E+02  0.120E-04    4.27       0.0  T
   2    -56.0983296 -0.434284E-10  0.682E-05    4.27     287.7  T
   3    -56.0983296 -0.102673E-10  0.487E-05    4.27     402.7  T
     SCC iter.                  ...        0 min,  0.006 sec
     gradient                   ...        0 min,  0.002 sec
 * total energy  :   -55.5917458 Eh     change       -0.4524594E-09 Eh
   gradient norm :     0.1290132 Eh/α   predicted     0.0000000E+00 (-100.00%)
   displ. norm   :     0.2144199 α      lambda       -0.1371720E-01
   maximum displ.:     0.1019209 α      in ANC's #8, #21, #35, ...

........................................................................
.............................. CYCLE    2 ..............................
........................................................................
   1    -56.1409961 -0.561410E+02  0.238E-01    4.36       0.0  T
   2    -56.1410799 -0.838153E-04  0.131E-01    4.36       1.0  T
   3    -56.1410599  0.199855E-04  0.699E-02    4.36       1.0  T
   4    -56.1411065 -0.466182E-04  0.177E-02    4.36       1.1  T
   5    -56.1411111 -0.457287E-05  0.817E-03    4.36       2.4  T
   6    -56.1411116 -0.483937E-06  0.328E-03    4.36       6.0  T
   7    -56.1411118 -0.199844E-06  0.108E-03    4.36      18.2  T
   8    -56.1411118 -0.461488E-08  0.421E-04    4.36      46.6  T
   9    -56.1411118 -0.438078E-09  0.181E-04    4.36     108.6  T
     SCC iter.                  ...        0 min,  0.014 sec
     gradient                   ...        0 min,  0.003 sec
 * total energy  :   -55.6019326 Eh     change       -0.1018680E-01 Eh
   gradient norm :     0.0682949 Eh/α   predicted    -0.7173956E-02 ( -29.58%)
   displ. norm   :     0.2319284 α      lambda       -0.7176875E-02
   maximum displ.:     0.1294418 α      in ANC's #8, #21, #5, ...

........................................................................
.............................. CYCLE    3 ..............................
........................................................................
   1    -56.1694148 -0.561694E+02  0.250E-01    4.41       0.0  T
   2    -56.1694832 -0.684157E-04  0.132E-01    4.40       1.0  T
   3    -56.1694551  0.281226E-04  0.708E-02    4.40       1.0  T
   4    -56.1695081 -0.530738E-04  0.172E-02    4.40       1.1  T
   5    -56.1695111 -0.298761E-05  0.841E-03    4.40       2.3  T
   6    -56.1695117 -0.618909E-06  0.314E-03    4.40       6.2  T
   7    -56.1695119 -0.173076E-06  0.101E-03    4.40      19.3  T
   8    -56.1695119 -0.359773E-08  0.399E-04    4.40      49.2  T
   9    -56.1695119 -0.737600E-09  0.157E-04    4.40     125.2  T
     SCC iter.                  ...        0 min,  0.014 sec
     gradient                   ...        0 min,  0.003 sec
 * total energy  :   -55.6057291 Eh     change       -0.3796543E-02 Eh
   gradient norm :     0.0151783 Eh/α   predicted    -0.3781466E-02 (  -0.40%)
   displ. norm   :     0.1130307 α      lambda       -0.4734041E-03
   maximum displ.:     0.0700971 α      in ANC's #8, #5, #7, ...

........................................................................
.............................. CYCLE    4 ..............................
........................................................................
   1    -56.1681159 -0.561681E+02  0.628E-02    4.38       0.0  T
   2    -56.1681199 -0.404924E-05  0.390E-02    4.38       1.0  T
   3    -56.1681185  0.143446E-05  0.136E-02    4.38       1.4  T
   4    -56.1681206 -0.211946E-05  0.465E-03    4.38       4.2  T
   5    -56.1681208 -0.251958E-06  0.242E-03    4.38       8.1  T
   6    -56.1681209 -0.587352E-07  0.919E-04    4.38      21.3  T
   7    -56.1681209 -0.880808E-08  0.431E-04    4.38      45.5  T
     SCC iter.                  ...        0 min,  0.012 sec
     gradient                   ...        0 min,  0.003 sec
 * total energy  :   -55.6060477 Eh     change       -0.3186362E-03 Eh
   gradient norm :     0.0107926 Eh/α   predicted    -0.2397273E-03 ( -24.76%)
   displ. norm   :     0.1778794 α      lambda       -0.4297365E-03
   maximum displ.:     0.1073236 α      in ANC's #5, #8, #7, ...

........................................................................
.............................. CYCLE    5 ..............................
........................................................................
   1    -56.1655331 -0.561655E+02  0.819E-02    4.36       0.0  T
   2    -56.1655448 -0.116862E-04  0.532E-02    4.35       1.0  T
   3    -56.1655444  0.428324E-06  0.207E-02    4.35       1.0  T
   4    -56.1655466 -0.219146E-05  0.596E-03    4.35       3.3  T
   5    -56.1655469 -0.299394E-06  0.343E-03    4.35       5.7  T
   6    -56.1655470 -0.136872E-06  0.143E-03    4.35      13.7  T
   7    -56.1655470 -0.165220E-07  0.664E-04    4.35      29.5  T
   8    -56.1655470 -0.280700E-08  0.392E-04    4.35      50.0  T
     SCC iter.                  ...        0 min,  0.013 sec
     gradient                   ...        0 min,  0.003 sec
 * total energy  :   -55.6062495 Eh     change       -0.2017777E-03 Eh
   gradient norm :     0.0066007 Eh/α   predicted    -0.2216672E-03 (   9.86%)
   displ. norm   :     0.0424769 α      lambda       -0.6952246E-04
   maximum displ.:     0.0237772 α      in ANC's #5, #1, #6, ...

........................................................................
.............................. CYCLE    6 ..............................
........................................................................
   1    -56.1662805 -0.561663E+02  0.229E-02    4.36       0.0  T
   2    -56.1662808 -0.348384E-06  0.138E-02    4.36       1.4  T
   3    -56.1662808  0.417721E-07  0.325E-03    4.36       6.0  T
   4    -56.1662809 -0.609985E-07  0.135E-03    4.36      14.5  T
   5    -56.1662809 -0.242597E-07  0.605E-04    4.36      32.4  T
   6    -56.1662809 -0.202009E-08  0.289E-04    4.36      67.8  T
     SCC iter.                  ...        0 min,  0.010 sec
     gradient                   ...        0 min,  0.003 sec
 * total energy  :   -55.6062965 Eh     change       -0.4694103E-04 Eh
   gradient norm :     0.0033258 Eh/α   predicted    -0.3482488E-04 ( -25.81%)
   displ. norm   :     0.0532625 α      lambda       -0.3583891E-04
   maximum displ.:     0.0317927 α      in ANC's #5, #1, #6, ...

........................................................................
.............................. CYCLE    7 ..............................
........................................................................
   1    -56.1671738 -0.561672E+02  0.230E-02    4.36       0.0  T
   2    -56.1671742 -0.449631E-06  0.138E-02    4.36       1.4  T
   3    -56.1671741  0.730971E-07  0.432E-03    4.36       4.5  T
   4    -56.1671742 -0.554683E-07  0.208E-03    4.36       9.4  T
   5    -56.1671743 -0.777098E-07  0.700E-04    4.36      28.0  T
   6    -56.1671743 -0.352372E-08  0.251E-04    4.36      78.2  T
     SCC iter.                  ...        0 min,  0.010 sec
     gradient                   ...        0 min,  0.003 sec
 * total energy  :   -55.6063205 Eh     change       -0.2408426E-04 Eh
   gradient norm :     0.0014974 Eh/α   predicted    -0.1797236E-04 ( -25.38%)
   displ. norm   :     0.0725877 α      lambda       -0.1551358E-04
   maximum displ.:     0.0459751 α      in ANC's #1, #5, #6, ...

........................................................................
.............................. CYCLE    8 ..............................
........................................................................
   1    -56.1675278 -0.561675E+02  0.283E-02    4.36       0.0  T
   2    -56.1675285 -0.717809E-06  0.171E-02    4.36       1.1  T
   3    -56.1675283  0.191962E-06  0.616E-03    4.36       3.2  T
   4    -56.1675286 -0.225428E-06  0.244E-03    4.36       8.0  T
   5    -56.1675287 -0.112953E-06  0.835E-04    4.36      23.5  T
   6    -56.1675287 -0.595777E-08  0.329E-04    4.36      59.6  T
     SCC iter.                  ...        0 min,  0.010 sec
     gradient                   ...        0 min,  0.003 sec
 * total energy  :   -55.6063342 Eh     change       -0.1367112E-04 Eh
   gradient norm :     0.0018734 Eh/α   predicted    -0.7777323E-05 ( -43.11%)
   displ. norm   :     0.0374003 α      lambda       -0.6977523E-05
   maximum displ.:     0.0272179 α      in ANC's #1, #5, #6, ...

........................................................................
.............................. CYCLE    9 ..............................
........................................................................
   1    -56.1672637 -0.561673E+02  0.125E-02    4.36       0.0  T
   2    -56.1672638 -0.112432E-06  0.733E-03    4.36       2.7  T
   3    -56.1672637  0.634815E-07  0.269E-03    4.36       7.3  T
   4    -56.1672638 -0.842641E-07  0.983E-04    4.36      19.9  T
   5    -56.1672638 -0.139507E-07  0.424E-04    4.36      46.2  T
     SCC iter.                  ...        0 min,  0.009 sec
     gradient                   ...        0 min,  0.003 sec
 * total energy  :   -55.6063422 Eh     change       -0.8032539E-05 Eh
   gradient norm :     0.0012955 Eh/α   predicted    -0.3493154E-05 ( -56.51%)
   displ. norm   :     0.0541561 α      lambda       -0.6993494E-05
   maximum displ.:     0.0386511 α      in ANC's #1, #5, #6, ...

........................................................................
.............................. CYCLE   10 ..............................
........................................................................
   1    -56.1670820 -0.561671E+02  0.191E-02    4.36       0.0  T
   2    -56.1670821 -0.110238E-06  0.109E-02    4.36       1.8  T
   3    -56.1670821  0.641917E-07  0.251E-03    4.36       7.8  T
   4    -56.1670822 -0.839806E-07  0.109E-03    4.36      18.0  T
   5    -56.1670822 -0.149724E-07  0.387E-04    4.36      50.7  T
   6    -56.1670822 -0.541007E-09  0.196E-04    4.36     100.0  T
     SCC iter.                  ...        0 min,  0.010 sec
     gradient                   ...        0 min,  0.003 sec
 * total energy  :   -55.6063496 Eh     change       -0.7309923E-05 Eh
   gradient norm :     0.0007847 Eh/α   predicted    -0.3504452E-05 ( -52.06%)
   displ. norm   :     0.0535071 α      lambda       -0.7497279E-06
   maximum displ.:     0.0377362 α      in ANC's #1, #5, #6, ...

........................................................................
.............................. CYCLE   11 ..............................
........................................................................
   1    -56.1668633 -0.561669E+02  0.190E-02    4.36       0.0  T
   2    -56.1668634 -0.114714E-06  0.108E-02    4.36       1.8  T
   3    -56.1668634  0.738625E-07  0.261E-03    4.36       7.5  T
   4    -56.1668634 -0.939612E-07  0.114E-03    4.36      17.3  T
   5    -56.1668635 -0.162440E-07  0.425E-04    4.36      46.1  T
   6    -56.1668635 -0.831818E-09  0.222E-04    4.36      88.3  T
     SCC iter.                  ...        0 min,  0.010 sec
     gradient                   ...        0 min,  0.003 sec
 * total energy  :   -55.6063504 Eh     change       -0.8386632E-06 Eh
   gradient norm :     0.0013272 Eh/α   predicted    -0.3772003E-06 ( -55.02%)
   displ. norm   :     0.0090538 α      lambda       -0.2748343E-05
   maximum displ.:     0.0063798 α      in ANC's #4, #13, #6, ...

........................................................................
.............................. CYCLE   12 ..............................
........................................................................
   1    -56.1670753 -0.561671E+02  0.648E-03    4.36       0.0  T
   2    -56.1670753 -0.507665E-07  0.379E-03    4.36       5.2  T
   3    -56.1670753  0.670982E-08  0.150E-03    4.36      13.0  T
   4    -56.1670754 -0.133309E-07  0.606E-04    4.36      32.4  T
   5    -56.1670754 -0.424664E-08  0.217E-04    4.36      90.3  T
     SCC iter.                  ...        0 min,  0.009 sec
     gradient                   ...        0 min,  0.003 sec
 * total energy  :   -55.6063535 Eh     change       -0.3103834E-05 Eh
   gradient norm :     0.0007056 Eh/α   predicted    -0.1375533E-05 ( -55.68%)
   displ. norm   :     0.0332716 α      lambda       -0.3806314E-05
   maximum displ.:     0.0256909 α      in ANC's #4, #1, #2, ...

   *** GEOMETRY OPTIMIZATION CONVERGED AFTER 12 ITERATIONS ***

------------------------------------------------------------------------
 total energy gain   :        -0.0146077 Eh       -9.1665 kcal/mol
 total RMSD          :         0.1597575 a0        0.0845 Å
 total power (kW/mol):        -3.1960519 (step) -152.3632 (real)
------------------------------------------------------------------------

 ANCopt (total)                0 d,  0 h,  0 min,  0.252 sec
 optimizer setup                ...        0 min,  0.000 sec (  0.025%)
 model hessian                  ...        0 min,  0.003 sec (  1.319%)
 ANC generation                 ...        0 min,  0.001 sec (  0.427%)
 coordinate transformation      ...        0 min,  0.000 sec (  0.052%)
 single point calculation       ...        0 min,  0.245 sec ( 97.284%)
 optimization log               ...        0 min,  0.001 sec (  0.296%)
 hessian update                 ...        0 min,  0.000 sec (  0.123%)
 rational function              ...        0 min,  0.001 sec (  0.299%)

================
 final structure:
================
26
 xtb: 6.3.3 (4ae9cef)
O        -3.59519414484890   -1.75397195677854   -0.73665318294653
S        -3.53960146374255   -0.70412056560734    0.21560524832725
O        -2.48498797949354    0.40597788038945   -0.18278816365105
C        -1.11515686480856    0.13141843984544   -0.20762283705219
C        -0.26852845322561    1.14966141411824   -0.62168238383333
C         1.09386196654435    0.92005550969983   -0.66151347215369
C         1.62311391313503   -0.31380425878794   -0.29929232879137
C         3.11188234917551   -0.53003379106550   -0.31274600594836
C         3.71895077117601    0.06496099621507    0.92583611607330
C         4.63958727991475    1.00934324910236    0.92422406256628
C         0.75571156372004   -1.31487914470674    0.11703280036811
C        -0.61259228685413   -1.10192459145491    0.16462291270695
C        -4.99785126343331    0.43327743180490   -0.08027181763009
F        -5.00980333958130    0.83767776652734   -1.34284463918999
F        -6.13499574898592   -0.20153287297908    0.17488375852015
F        -4.91753131049449    1.49650672747398    0.70755806185978
O        -3.49155121033003   -1.01577286391212    1.59862593516265
H        -0.68569261606417    2.10244838952423   -0.90456312868789
H         1.75655141067984    1.71127663416499   -0.97868603729816
H         3.55231662417356   -0.06517898241228   -1.19604990278060
H         3.32598291469154   -1.60103673799877   -0.33635666445329
H         3.33473441104434   -0.32947289741735    1.85704588952183
H         5.04765373220134    1.40879953714293    1.83676332220734
H         5.03379919222964    1.41813891204051    0.00799911508254
H         1.14740293102028   -2.27862834782556    0.40652126620872
H        -1.28806437784391   -1.87918587710314    0.48506607581184

 Bond Distances (Angstroems)
 ---------------------------
O1-S2=1.4185         S2-O1=1.4185         S2-O3=1.5822         S2-C13=1.8729        S2-O17=1.4185        O3-S2=1.5822         
O3-C4=1.3973         C4-O3=1.3973         C4-C5=1.3875         C4-C12=1.3828        C5-C4=1.3875         C5-C6=1.3822         
C5-H18=1.0779        C6-C5=1.3822         C6-C7=1.3906         C6-H19=1.0797        C7-C6=1.3906         C7-C8=1.5044         
C7-C11=1.3885        C8-C7=1.5044         C8-C9=1.5022         C8-H20=1.0910        C8-H21=1.0924        C9-C8=1.5022         
C9-C10=1.3189        C9-H22=1.0818        C10-C9=1.3189        C10-H23=1.0765       C10-H24=1.0780       C11-C7=1.3885        
C11-C12=1.3856       C11-H25=1.0798       C12-C4=1.3828        C12-C11=1.3856       C12-H26=1.0785       C13-S2=1.8729        
C13-F14=1.3258       C13-F15=1.3271       C13-F16=1.3257       F14-C13=1.3258       F15-C13=1.3271       F16-C13=1.3257       
O17-S2=1.4185        H18-C5=1.0779        H19-C6=1.0797        H20-C8=1.0910        H21-C8=1.0924        H22-C9=1.0818        
H23-C10=1.0765       H24-C10=1.0780       H25-C11=1.0798       H26-C12=1.0785       
 C  H  Rav=1.0817 sigma=0.0055  Rmin=1.0765  Rmax=1.0924     9
 C  C  Rav=1.4047 sigma=0.0567  Rmin=1.3189  Rmax=1.5044     9
 O  C  Rav=1.3973 sigma=0.0000  Rmin=1.3973  Rmax=1.3973     1
 F  C  Rav=1.3262 sigma=0.0006  Rmin=1.3257  Rmax=1.3271     3
 S  C  Rav=1.8729 sigma=0.0000  Rmin=1.8729  Rmax=1.8729     1
 S  O  Rav=1.4731 sigma=0.0772  Rmin=1.4185  Rmax=1.5822     3

 selected bond angles (degree)
 --------------------
O3-S2-O1=112.11                C13-S2-O1=108.23               C13-S2-O3= 93.04               O17-S2-O1=119.55               
O17-S2-O3=112.15               O17-S2-C13=108.29              C4-O3-S2=121.34                C5-C4-O3=117.34                
C12-C4-O3=121.79               C12-C4-C5=120.87               C6-C5-C4=119.22                H18-C5-C4=119.40               
H18-C5-C6=121.38               C7-C6-C5=121.00                H19-C6-C5=119.45               H19-C6-C7=119.55               
C8-C7-C6=120.12                C11-C7-C6=118.69               C11-C7-C8=121.15               C9-C8-C7=109.61                
H20-C8-C7=110.21               H20-C8-C9=109.61               H21-C8-C7=109.57               H21-C8-C9=109.08               
H21-C8-H20=108.73              C10-C9-C8=124.38               H22-C9-C8=114.95               H22-C9-C10=120.67              
H23-C10-C9=121.96              H24-C10-C9=121.86              H24-C10-H23=116.18             

 selected dihedral angles (degree)
 ---------------------------------
C4-O3-S2-O1=293.43            C4-O3-S2-C13=182.34           C4-O3-S2-O17= 71.18           C5-C4-O3-S2=177.42            
C12-C4-O3-S2=357.37           C6-C5-C4-O3=180.02            C6-C5-C4-C12=  0.08           H18-C5-C4-O3=  0.07           
H18-C5-C4-C12=180.13          C7-C6-C5-C4=  0.28            C7-C6-C5-H18=180.23           H19-C6-C5-C4=180.29           
H19-C6-C5-H18=  0.24          C8-C7-C6-C5=181.73            C8-C7-C6-H19=  1.72           C11-C7-C6-C5=359.45           
C11-C7-C6-H19=179.44          C9-C8-C7-C6= 79.30            C9-C8-C7-C11=261.64           H20-C8-C7-C6=318.58           
H20-C8-C7-C11=140.92          H21-C8-C7-C6=198.97           H21-C8-C7-C11= 21.31          C10-C9-C8-C7=239.18           
C10-C9-C8-H20=  0.26          C10-C9-C8-H21=119.20          H22-C9-C8-C7= 58.34           H22-C9-C8-H20=179.42          
H22-C9-C8-H21=298.37          H23-C10-C9-C8=179.94          H23-C10-C9-H22=  0.82         H24-C10-C9-C8=359.30          
H24-C10-C9-H22=180.18         
           -------------------------------------------------
          |                Final Singlepoint                |
           -------------------------------------------------

          ...................................................
          :                      SETUP                      :
          :.................................................:
          :  # basis functions                  83          :
          :  # atomic orbitals                  82          :
          :  # shells                           44          :
          :  # electrons                        94          :
          :  max. iterations                   250          :
          :  Hamiltonian                  GFN2-xTB          :
          :  restarted?                      false          :
          :  GBSA solvation                  false          :
          :  PC potential                    false          :
          :  electronic temp.          300.0000000     K    :
          :  accuracy                    1.0000000          :
          :  -> integral cutoff          0.2500000E+02      :
          :  -> integral neglect         0.1000000E-07      :
          :  -> SCF convergence          0.1000000E-05 Eh   :
          :  -> wf. convergence          0.1000000E-03 e    :
          :  Broyden damping             0.4000000          :
          ...................................................

 iter      E             dE          RMSdq      gap      omega  full diag
   1    -56.1670754 -0.561671E+02  0.790E-05    4.36       0.0  T
   2    -56.1670754 -0.202789E-10  0.555E-05    4.36     353.4  T
   3    -56.1670754 -0.358682E-10  0.348E-05    4.36     564.3  T

   *** convergence criteria satisfied after 3 iterations ***

         #    Occupation            Energy/Eh            Energy/eV
      -------------------------------------------------------------
         1        2.0000           -0.9208289             -25.0570
       ...           ...                  ...                  ...
        41        2.0000           -0.4715353             -12.8311
        42        2.0000           -0.4582371             -12.4693
        43        2.0000           -0.4478151             -12.1857
        44        2.0000           -0.4457620             -12.1298
        45        2.0000           -0.4347543             -11.8303
        46        2.0000           -0.4187691             -11.3953
        47        2.0000           -0.4131400             -11.2421 (HOMO)
        48                         -0.2529529              -6.8832 (LUMO)
        49                         -0.2496569              -6.7935
        50                         -0.2134423              -5.8081
        51                         -0.2043676              -5.5611
        52                         -0.1417652              -3.8576
       ...                                ...                  ...
        82                          1.2672503              34.4836
      -------------------------------------------------------------
                  HL-Gap            0.1601871 Eh            4.3589 eV
             Fermi-level           -0.3330464 Eh           -9.0627 eV

 SCC (total)                   0 d,  0 h,  0 min,  0.015 sec
 SCC setup                      ...        0 min,  0.000 sec (  0.542%)
 Dispersion                     ...        0 min,  0.000 sec (  1.694%)
 classical contributions        ...        0 min,  0.000 sec (  0.383%)
 integral evaluation            ...        0 min,  0.006 sec ( 41.437%)
 iterations                     ...        0 min,  0.006 sec ( 38.512%)
 molecular gradient             ...        0 min,  0.002 sec ( 15.860%)
 printout                       ...        0 min,  0.000 sec (  1.319%)

         :::::::::::::::::::::::::::::::::::::::::::::::::::::
         ::                     SUMMARY                     ::
         :::::::::::::::::::::::::::::::::::::::::::::::::::::
         :: total energy             -55.606353493390 Eh    ::
         :: gradient norm              0.000706084063 Eh/a0 ::
         :: HOMO-LUMO gap              4.358912879145 eV    ::
         ::.................................................::
         :: SCC energy               -56.167075359657 Eh    ::
         :: -> isotropic ES            0.092291922156 Eh    ::
         :: -> anisotropic ES         -0.007881608153 Eh    ::
         :: -> anisotropic XC         -0.007562432860 Eh    ::
         :: -> dispersion             -0.026455350139 Eh    ::
         :: repulsion energy           0.560784747204 Eh    ::
         :: add. restraining           0.000000000000 Eh    ::
         :: total charge              -0.000000000000 e     ::
         :::::::::::::::::::::::::::::::::::::::::::::::::::::

           -------------------------------------------------
          |                Property Printout                |
           -------------------------------------------------

    * Orbital Energies and Occupations

         #    Occupation            Energy/Eh            Energy/eV
      -------------------------------------------------------------
         1        2.0000           -0.9208289             -25.0570
       ...           ...                  ...                  ...
        35        2.0000           -0.5074300             -13.8079
        36        2.0000           -0.5040639             -13.7163
        37        2.0000           -0.4993910             -13.5891
        38        2.0000           -0.4928494             -13.4111
        39        2.0000           -0.4845084             -13.1841
        40        2.0000           -0.4822573             -13.1229
        41        2.0000           -0.4715353             -12.8311
        42        2.0000           -0.4582371             -12.4693
        43        2.0000           -0.4478151             -12.1857
        44        2.0000           -0.4457620             -12.1298
        45        2.0000           -0.4347543             -11.8303
        46        2.0000           -0.4187691             -11.3953
        47        2.0000           -0.4131400             -11.2421 (HOMO)
        48                         -0.2529529              -6.8832 (LUMO)
        49                         -0.2496569              -6.7935
        50                         -0.2134423              -5.8081
        51                         -0.2043676              -5.5611
        52                         -0.1417652              -3.8576
        53                         -0.1341293              -3.6498
        54                         -0.1226920              -3.3386
        55                         -0.0594183              -1.6169
        56                          0.0538110               1.4643
        57                          0.0691990               1.8830
        58                          0.0794582               2.1622
       ...                                ...                  ...
        82                          1.2672503              34.4836
      -------------------------------------------------------------
                  HL-Gap            0.1601871 Eh            4.3589 eV
             Fermi-level           -0.3330464 Eh           -9.0627 eV

     #   Z          covCN         q      C6AA      α(0)
     1   8 O        0.860    -0.558    25.108     6.718
     2  16 S        3.729     1.373    96.609    16.543
     3   8 O        1.711    -0.411    21.049     6.195
     4   6 C        2.989     0.143    24.889     8.184
     5   6 C        2.916    -0.042    29.046     8.838
     6   6 C        2.928    -0.034    28.835     8.806
     7   6 C        2.972     0.021    27.539     8.608
     8   6 C        3.812    -0.068    21.793     6.645
     9   6 C        2.890    -0.023    28.588     8.766
    10   6 C        2.837    -0.093    30.339     9.026
    11   6 C        2.928    -0.030    28.760     8.795
    12   6 C        2.919    -0.060    29.502     8.907
    13   6 C        3.315     0.371    19.202     6.986
    14   9 F        0.806    -0.166    10.890     3.898
    15   9 F        0.805    -0.168    10.913     3.902
    16   9 F        0.805    -0.166    10.887     3.898
    17   8 O        0.860    -0.558    25.100     6.717
    18   1 H        0.926     0.066     2.125     2.280
    19   1 H        0.926     0.061     2.191     2.315
    20   1 H        0.924     0.056     2.248     2.345
    21   1 H        0.924     0.056     2.249     2.345
    22   1 H        0.925     0.037     2.493     2.469
    23   1 H        0.926     0.042     2.421     2.433
    24   1 H        0.926     0.041     2.434     2.440
    25   1 H        0.926     0.059     2.207     2.323
    26   1 H        0.926     0.054     2.275     2.358

 Mol. C6AA /au·bohr⁶  :       9827.204510
 Mol. C8AA /au·bohr⁸  :     248333.526100
 Mol. α(0) /au        :        152.739449


Wiberg/Mayer (AO) data.
largest (>0.10) Wiberg bond orders for each atom

 ---------------------------------------------------------------------------
     #   Z sym  total        # sym  WBO       # sym  WBO       # sym  WBO
 ---------------------------------------------------------------------------
     1   8 O    1.930 --     2 S    1.608    17 O    0.126
     2  16 S    4.971 --     1 O    1.608    17 O    1.608     3 O    0.976
                            13 C    0.654
     3   8 O    2.208 --     2 S    0.976     4 C    0.917
     4   6 C    3.870 --    12 C    1.402     5 C    1.381     3 O    0.917
     5   6 C    3.984 --     6 C    1.452     4 C    1.381    18 H    0.965
                            11 C    0.109
     6   6 C    3.987 --     5 C    1.452     7 C    1.402    19 H    0.967
                            12 C    0.109
     7   6 C    3.986 --    11 C    1.414     6 C    1.402     8 C    1.001
     8   6 C    3.995 --     9 C    1.004     7 C    1.001    20 H    0.967
                            21 H    0.958
     9   6 C    3.989 --    10 C    1.980     8 C    1.004    22 H    0.967
    10   6 C    3.989 --     9 C    1.980    23 H    0.976    24 H    0.975
    11   6 C    3.988 --    12 C    1.438     7 C    1.414    25 H    0.967
                             5 C    0.109
    12   6 C    3.987 --    11 C    1.438     4 C    1.402    26 H    0.959
                             6 C    0.109
    13   6 C    3.815 --    16 F    0.980    14 F    0.980    15 F    0.976
                             2 S    0.654
    14   9 F    1.118 --    13 C    0.980
    15   9 F    1.115 --    13 C    0.976
    16   9 F    1.119 --    13 C    0.980
    17   8 O    1.931 --     2 S    1.608     1 O    0.126
    18   1 H    0.995 --     5 C    0.965
    19   1 H    0.995 --     6 C    0.967
    20   1 H    0.996 --     8 C    0.967
    21   1 H    0.997 --     8 C    0.958
    22   1 H    0.999 --     9 C    0.967
    23   1 H    0.997 --    10 C    0.976
    24   1 H    0.998 --    10 C    0.975
    25   1 H    0.996 --    11 C    0.967
    26   1 H    0.997 --    12 C    0.959
 ---------------------------------------------------------------------------

Topologies differ in total number of bonds
Writing topology from bond orders to xtbtopo.mol

molecular dipole:
                 x           y           z       tot (Debye)
 q only:        2.002       0.414      -0.302
   full:        1.701       0.562      -0.324       4.628
molecular quadrupole (traceless):
                xx          xy          yy          xz          yz          zz
 q only:       -6.403      -4.529       4.710       0.365      -1.260       1.694
  q+dip:       -6.034      -5.975       6.425       0.628      -3.288      -0.391
   full:       -5.961      -6.589       5.053       0.941      -1.982       0.907

           -------------------------------------------------
          |                Geometry Summary                 |
           -------------------------------------------------

      molecular mass/u    :      266.2370374
   center of mass at/Å    :       -1.7087439      -0.0526096       0.0360677
  moments of inertia/u·Å² :        0.3813215E+03   0.2919217E+04   0.3033829E+04
rotational constants/cm⁻¹ :        0.4420845E-01   0.5774710E-02   0.5556553E-02

 * 24 selected distances

     #   Z          #   Z                                           value/Å
     1   8 O        2  16 S                                       1.4184762
     2  16 S        3   8 O                                       1.5821648
     3   8 O        4   6 C                                       1.3972963
     4   6 C        5   6 C                                       1.3874595
     5   6 C        6   6 C                                       1.3821769
     6   6 C        7   6 C                                       1.3905832
     9   6 C       10   6 C                                       1.3188753
     7   6 C       11   6 C                                       1.3884756
     4   6 C       12   6 C                                       1.3828496
    11   6 C       12   6 C                                       1.3855937
     2  16 S       13   6 C                                       1.8728881 (max)
    13   6 C       14   9 F                                       1.3258102
    13   6 C       15   9 F                                       1.3270969
    13   6 C       16   9 F                                       1.3257389
     2  16 S       17   8 O                                       1.4185141
     5   6 C       18   1 H                                       1.0778917
     6   6 C       19   1 H                                       1.0797160
     8   6 C       20   1 H                                       1.0910078
     8   6 C       21   1 H                                       1.0924485
     9   6 C       22   1 H                                       1.0818281
    10   6 C       23   1 H                                       1.0764811 (min)
    10   6 C       24   1 H                                       1.0779541
    11   6 C       25   1 H                                       1.0798325
    12   6 C       26   1 H                                       1.0784626

 * 6 distinct bonds (by element types)

   Z      Z             #   av. dist./Å        max./Å        min./Å
   1 H    6 C           9     1.0817358     1.0924485     1.0764811
   6 C    6 C           7     1.3765734     1.3905832     1.3188753
   6 C    8 O           1     1.3972963     1.3972963     1.3972963
   6 C    9 F           3     1.3262153     1.3270969     1.3257389
   6 C   16 S           1     1.8728881     1.8728881     1.8728881
   8 O   16 S           3     1.4730517     1.5821648     1.4184762


optimized geometry written to: xtbopt.xyz


           -------------------------------------------------
          | TOTAL ENERGY              -55.606353493390 Eh   |
          | GRADIENT NORM               0.000706084063 Eh/α |
          | HOMO-LUMO GAP               4.358912879145 eV   |
           -------------------------------------------------

------------------------------------------------------------------------
 * finished run on 2022/03/17 at 19:41:31.505     
------------------------------------------------------------------------
 total:
 * wall-time:     0 d,  0 h,  0 min,  0.315 sec
 *  cpu-time:     0 d,  0 h,  0 min, 14.841 sec
 * ratio c/w:    47.041 speedup
 SCF:
 * wall-time:     0 d,  0 h,  0 min,  0.031 sec
 *  cpu-time:     0 d,  0 h,  0 min,  0.939 sec
 * ratio c/w:    30.645 speedup
 ANC optimizer:
 * wall-time:     0 d,  0 h,  0 min,  0.268 sec
 *  cpu-time:     0 d,  0 h,  0 min, 12.965 sec
 * ratio c/w:    48.453 speedup

