26
 energy: -55.591745751116 gnorm: 0.129013161580 xtb: 6.3.3 (4ae9cef)
O        -3.65000300000000   -1.75741900000000   -0.78602900000000
S        -3.64723700000000   -0.67675400000000    0.18886800000000
O        -2.48346200000000    0.39215200000000   -0.22724100000000
C        -1.14795600000000    0.08286600000000   -0.21226300000000
C        -0.29923300000000    1.11710900000000   -0.61487000000000
C         1.08429800000000    0.92940900000000   -0.64299600000000
C         1.63975700000000   -0.30095700000000   -0.27185300000000
C         3.13674900000000   -0.50127500000000   -0.28655000000000
C         3.79924400000000    0.06469300000000    0.93760200000000
C         4.74514600000000    1.01309400000000    0.91626900000000
C         0.78388900000000   -1.33131800000000    0.13858400000000
C        -0.60232600000000   -1.14258100000000    0.16612700000000
C        -5.07403700000000    0.42926100000000   -0.08976900000000
F        -5.14669800000000    0.87179600000000   -1.37957600000000
F        -6.26674700000000   -0.17777400000000    0.17657800000000
F        -5.02780000000000    1.54749400000000    0.69255500000000
O        -3.51180100000000   -0.97645900000000    1.60663300000000
H        -0.71066700000000    2.08010200000000   -0.90734400000000
H         1.72882200000000    1.74981300000000   -0.95162200000000
H         3.54680500000000   -0.05697700000000   -1.20258600000000
H         3.36628000000000   -1.57246400000000   -0.34707600000000
H         3.47999500000000   -0.33878700000000    1.89668400000000
H         5.18461700000000    1.37784800000000    1.83981300000000
H         5.10003900000000    1.44671900000000   -0.01336800000000
H         1.19112000000000   -2.29368800000000    0.44288700000000
H        -1.21879600000000   -1.97590300000000    0.49125700000000
26
 energy: -55.601932554316 gnorm: 0.068294937360 xtb: 6.3.3 (4ae9cef)
O        -3.65869572392487   -1.75441351816718   -0.77164299270880
S        -3.62430624478623   -0.68610529401152    0.19063805591417
O        -2.48914546477780    0.39140167567171   -0.22603814641979
C        -1.13921025147233    0.09044047471211   -0.21259853334792
C        -0.28945899495007    1.11755644484972   -0.61190761994461
C         1.08224039827851    0.92255323621503   -0.63401334747454
C         1.63446525322803   -0.29973353956528   -0.26307102501458
C         3.13055772178750   -0.50164782720984   -0.28998968989202
C         3.78984569561667    0.07270794551678    0.92941491244628
C         4.72538084667577    1.00803242906044    0.91156283584431
C         0.77361275343950   -1.31616110781058    0.14035245128910
C        -0.60495711141983   -1.13050114898145    0.16597628276870
C        -5.06173115451994    0.43745413549483   -0.09337663938568
F        -5.11405752039886    0.85595943995052   -1.36873326683228
F        -6.21968120165945   -0.18818565936592    0.17687762043356
F        -4.99628577772077    1.52704236975638    0.68946735541280
O        -3.52329564278429   -0.98209494419994    1.59444243527822
H        -0.70601859474726    2.07054611720878   -0.90515457473722
H         1.72622843294108    1.73300629729245   -0.94666452115956
H         3.54815672188413   -0.03868429915956   -1.18949665520572
H         3.35161878368628   -1.57373915840738   -0.33657496341222
H         3.46368003165123   -0.33576420626418    1.87829175366784
H         5.17541497888373    1.36629763657042    1.82417287389251
H         5.08826986033433    1.43634551543673   -0.00964550005247
H         1.17675151743883   -2.27539133215566    0.43610624324295
H        -1.23938131268389   -1.94692168243738    0.48231865539696
26
 energy: -55.605729097726 gnorm: 0.015178355622 xtb: 6.3.3 (4ae9cef)
O        -3.65776215500945   -1.75378008394512   -0.75352140666289
S        -3.59133134657951   -0.70002544625612    0.19390910147860
O        -2.49710847147696    0.38872809913191   -0.22240838528013
C        -1.13042152988107    0.10435078433928   -0.21130956167878
C        -0.28238147093332    1.12904132005547   -0.61027020500875
C         1.08135226188334    0.92277828273344   -0.63136489454601
C         1.62760501696635   -0.29997802759201   -0.26235597996635
C         3.12051654335927   -0.50569826946533   -0.29402696567793
C         3.77886735920556    0.06937936517691    0.92677950311729
C         4.71456814095878    0.99534257997537    0.90827391102077
C         0.76276250918246   -1.30686191628358    0.13993586717579
C        -0.61055458308031   -1.11801392896724    0.16819815955393
C        -5.04270725682125    0.44395887465468   -0.09677591732982
F        -5.07559805444353    0.84005751611120   -1.35662485490982
F        -6.16708284324341   -0.19877464284551    0.17656147772935
F        -4.95964037636081    1.50549491860071    0.68505511072882
O        -3.52680875458694   -0.99250088391669    1.58065853539951
H        -0.70697464744658    2.07399263080340   -0.90368527090578
H         1.72987150692745    1.72590339874534   -0.94298400064401
H         3.54041757353776   -0.03178937381465   -1.18264167238641
H         3.33440841970259   -1.57664254015954   -0.33210346722815
H         3.43350419533438   -0.33638548973159    1.86787551040545
H         5.15717143350766    1.37249818172025    1.81274070890330
H         5.07396684942971    1.42922120121432   -0.00916832672339
H         1.16217251473259   -2.26495047833135    0.43392090591517
H        -1.26881483486477   -1.91534607195354    0.47604611752024
26
 energy: -55.606047733942 gnorm: 0.010792653957 xtb: 6.3.3 (4ae9cef)
O        -3.64691322158757   -1.75836520370230   -0.75008697353458
S        -3.57647400555041   -0.70579158793210    0.19619250608489
O        -2.49643089998787    0.38855380337350   -0.21990032117574
C        -1.12765173404125    0.11244680486157   -0.21112851899744
C        -0.28126083562664    1.13831197230733   -0.61062158330552
C         1.08279826637073    0.92671732959468   -0.63312754263178
C         1.62390740242428   -0.30042368352030   -0.26575337183122
C         3.11487402503747   -0.50902766145222   -0.29675337384539
C         3.76241770804035    0.07128877967105    0.92806330886462
C         4.69528243179517    1.00264615609067    0.90895595724591
C         0.75879010464390   -1.30695611377544    0.14001611833285
C        -0.61389071875016   -1.11274822470611    0.16903158896616
C        -5.02923822079781    0.44058776684749   -0.09604671257893
F        -5.05901013034493    0.83643505901074   -1.35721226967204
F        -6.15388448958458   -0.20412104778105    0.17703831118517
F        -4.94423373264337    1.50237047842801    0.68703134648739
O        -3.51793351188360   -0.99899676831899    1.58159629474941
H        -0.70642868819215    2.08437570084327   -0.90217736809254
H         1.73624946448110    1.72723763282146   -0.94448681403545
H         3.53575371332191   -0.03539341096915   -1.18499519975473
H         3.32965810856081   -1.57971613714686   -0.33378369204942
H         3.41468643009888   -0.33672345133502    1.86769503499612
H         5.15049702260487    1.37077659685848    1.81205362217528
H         5.07197964692716    1.41709587201069   -0.01220919063128
H         1.15626036665370   -2.26685401237009    0.43380093321808
H        -1.27980650197000   -1.90372664970932    0.47752190983019
26
 energy: -55.606249511683 gnorm: 0.006600754279 xtb: 6.3.3 (4ae9cef)
O        -3.62713348017426   -1.76533282046814   -0.74564458572305
S        -3.55359581013621   -0.71321668720715    0.20021768539696
O        -2.49413626938388    0.38925638499656   -0.21460749657724
C        -1.12289154833129    0.12588440722845   -0.21015502266205
C        -0.27864733129942    1.15277869353703   -0.61043378304753
C         1.08582406151389    0.93260232823329   -0.63606886883359
C         1.61886689925930   -0.30072128402443   -0.27214363028809
C         3.10728618288729   -0.51593353141544   -0.30187791482168
C         3.74695647971254    0.06307184724973    0.92815773634445
C         4.68356047199722    0.99325800035257    0.90863782876783
C         0.75364624680236   -1.30672675811552    0.13864573108199
C        -0.61764892012160   -1.10357059137799    0.17031299315115
C        -5.00851747324987    0.43343221502595   -0.09373304166456
F        -5.03461011337611    0.83172050893047   -1.35770215172857
F        -6.13805847970582   -0.20999834990455    0.17713250430084
F        -4.92269905182034    1.49822210313916    0.69066854083457
O        -3.50211585495824   -1.00891488035274    1.58494980795186
H        -0.70299059207153    2.10134773551676   -0.89838141949621
H         1.74704451872320    1.72845401623260   -0.94696610857719
H         3.53253520170592   -0.04529101679100   -1.18974171216117
H         3.31939679960397   -1.58709131633706   -0.33812329424108
H         3.37997302824090   -0.33249607047800    1.86671906721639
H         5.11823148959387    1.38508615346238    1.81334490046345
H         5.05525817619544    1.40842763407496   -0.01500722492716
H         1.14828525241243   -2.26895330389697    0.43196595254770
H        -1.29382188401982   -1.88529541761092    0.48054750669198
26
 energy: -55.606296452708 gnorm: 0.003325811991 xtb: 6.3.3 (4ae9cef)
O        -3.62166011506647   -1.76556560302513   -0.74488177513574
S        -3.55055525088815   -0.71263495858192    0.20170147338794
O        -2.49314936774308    0.39041736124314   -0.21193998204997
C        -1.12186168431869    0.12810856487410   -0.20952757088726
C        -0.27733612381281    1.15373557223216   -0.61066875287686
C         1.08658365401578    0.93136850394889   -0.63874531139423
C         1.61860495834771   -0.30195949125269   -0.27629063837146
C         3.10718119123241   -0.51771293882471   -0.30342474971037
C         3.74103781230667    0.06511842825745    0.92764494139175
C         4.67462880269624    0.99707605257506    0.91036028821007
C         0.75368512173573   -1.30708120911699    0.13588621995004
C        -0.61674554256418   -1.10185657217884    0.17001231292599
C        -5.00632502947374    0.43083913366095   -0.09197012262114
F        -5.03187321603431    0.83113840928697   -1.35611248427945
F        -6.13963994036879   -0.20788648821922    0.17655553515187
F        -4.92169437325239    1.49725681244519    0.69162732018553
O        -3.49830145094230   -1.01007517439449    1.58697748563829
H        -0.69966665613757    2.10344169031426   -0.89689273821658
H         1.74871825295834    1.72623353346885   -0.94873177534804
H         3.53536419938013   -0.04829546372737   -1.19057258354434
H         3.31963172158308   -1.58901230941581   -0.33835408043769
H         3.37327293155144   -0.33125930813534    1.86488048691391
H         5.11017279525301    1.38567618142812    1.81524852275812
H         5.05460291189567    1.40406344799089   -0.01338287252412
H         1.14817954997022   -2.26872791366459    0.42959717583411
H        -1.29285715232405   -1.88240626118893    0.48171767504969
26
 energy: -55.606320536973 gnorm: 0.001497406095 xtb: 6.3.3 (4ae9cef)
O        -3.61525427946517   -1.76452418894577   -0.74332532041788
S        -3.54767135889872   -0.71095301190125    0.20392198981834
O        -2.49232733385570    0.39276069116254   -0.20790197530305
C        -1.12076047187721    0.13031304255672   -0.20904703119794
C        -0.27535692065811    1.15416798237144   -0.61127308668351
C         1.08797269421290    0.92954676830530   -0.64192890286856
C         1.61919741601823   -0.30366288535887   -0.28105494004637
C         3.10796258776584   -0.52056727885286   -0.30576261858659
C         3.73586380746044    0.06549260061667    0.92655480633319
C         4.66731920631107    0.99876471962949    0.91267178647262
C         0.75391974784990   -1.30754137694183    0.13235270467016
C        -0.61555551060602   -1.10024408431155    0.16911164117758
C        -5.00472581033530    0.42858920950451   -0.08949123866845
F        -5.02810511792761    0.83008777664836   -1.35341058660805
F        -6.14111732606925   -0.20525527337966    0.17608775201756
F        -4.92056993911098    1.49565174897973    0.69348115271998
O        -3.49437078403790   -1.01090766390964    1.58931516523386
H        -0.69514987940687    2.10514830475016   -0.89584645798073
H         1.75061813971842    1.72311219817736   -0.95262281660806
H         3.53974094884079   -0.05264065140843   -1.19192362164853
H         3.31970189695853   -1.59212804506981   -0.33819693777257
H         3.36330082189019   -0.32913965136300    1.86229978060141
H         5.09719046567429    1.38969344939760    1.81872032558571
H         5.05165481732527    1.40307317587241   -0.00984452005963
H         1.14798273766136   -2.26914180657409    0.42506914155004
H        -1.29146255543844   -1.87969574995552    0.48275780826954
26
 energy: -55.606334208097 gnorm: 0.001873421737 xtb: 6.3.3 (4ae9cef)
O        -3.60705806500334   -1.76208290187608   -0.74057374701079
S        -3.54437890403363   -0.70832096453077    0.20747757082006
O        -2.49127670645283    0.39692033281839   -0.20133377779971
C        -1.11940922865775    0.13258541976372   -0.20835153206271
C        -0.27284083373533    1.15420498989302   -0.61301642049328
C         1.09004774664777    0.92703268884059   -0.64720612513607
C         1.62042888381198   -0.30644663694403   -0.28762311994441
C         3.10924734373396   -0.52440626730256   -0.30881445886023
C         3.72952739518721    0.06528835610427    0.92546872267760
C         4.65866643264174    1.00080178570478    0.91618696604886
C         0.75404421696923   -1.30895212252040    0.12703562718505
C        -0.61452920154053   -1.09904083582872    0.16759943760253
C        -5.00283877388668    0.42735888535667   -0.08617169764942
F        -5.02179370952857    0.82908617215186   -1.34984825127007
F        -6.14104972332072   -0.20305729876293    0.17581943572770
F        -4.91853408387523    1.49392443550575    0.69710224100568
O        -3.49038357882358   -1.01193127749152    1.59245192261241
H        -0.68993748058724    2.10670962578885   -0.89606412314686
H         1.75296857422817    1.71961067557165   -0.95933333160415
H         3.54491395128445   -0.05847579667107   -1.19398676856772
H         3.32032710561190   -1.59606655538211   -0.33738668760927
H         3.35020872439098   -0.32708733227252    1.85939855991470
H         5.07881902945428    1.39688786099745    1.82441098129181
H         5.04803529131723    1.40413737751182   -0.00434125046402
H         1.14721370772275   -2.27113517415838    0.41836495023576
H        -1.29042011355631   -1.87754544226774    0.48344887649666
26
 energy: -55.606342240636 gnorm: 0.001295542774 xtb: 6.3.3 (4ae9cef)
O        -3.60364748276942   -1.76013527719887   -0.73892265861923
S        -3.54321189133357   -0.70695473100290    0.20973058105581
O        -2.49016180428612    0.39958892495513   -0.19700293885909
C        -1.11858026264561    0.13255310324505   -0.20831290706172
C        -0.27177611807321    1.15331755144547   -0.61504924973546
C         1.09109970741733    0.92552355657040   -0.65070637948424
C         1.62123629800273   -0.30825552303590   -0.29073942950840
C         3.10996414684615   -0.52608147144464   -0.30990127257318
C         3.72660061714559    0.06527388402720    0.92548608849023
C         4.65422679045749    1.00262354876605    0.91833204430707
C         0.75420645327596   -1.31041343908806    0.12408254095226
C        -0.61428169321219   -1.09965963043166    0.16641245801442
C        -5.00184540673320    0.42863124027008   -0.08453712404256
F        -5.01828685209001    0.83009112481839   -1.34812177016304
F        -6.13942500228717   -0.20282889948002    0.17596346004288
F        -4.91772928618438    1.49423159704869    0.69978598316789
O        -3.48979602571750   -1.01257809440729    1.59414483472607
H        -0.68849431701651    2.10619945726897   -0.89793703261799
H         1.75378018230840    1.71806507968067   -0.96414901269343
H         3.54682668653327   -0.06091504471547   -1.19480974682195
H         3.32155139613562   -1.59757248447303   -0.33658917562871
H         3.34498055403677   -0.32677153772693    1.85870030182096
H         5.07049577535826    1.40015947240071    1.82781289949882
H         5.04552172521394    1.40726508875455   -0.00094113979452
H         1.14679501108234   -2.27329358881039    0.41467038059069
H        -1.29005120146507   -1.87806390743617    0.48331226493655
26
 energy: -55.606349550559 gnorm: 0.000784742179 xtb: 6.3.3 (4ae9cef)
O        -3.59910943714920   -1.75710792416275   -0.73722609194321
S        -3.54148976467307   -0.70536463808078    0.21295800967139
O        -2.48770906652958    0.40320835070689   -0.18986398992686
C        -1.11700184313936    0.13193858051573   -0.20803343214271
C        -0.27025140695931    1.15145817157245   -0.61840275033302
C         1.09243823606869    0.92284621633177   -0.65621877643872
C         1.62215341554535   -0.31106896489583   -0.29521558905241
C         3.11084393077164   -0.52805118881396   -0.31122085363834
C         3.72263947291718    0.06534818178537    0.92569456073235
C         4.64719059269377    1.00589355860017    0.92134843671484
C         0.75479056503127   -1.31274206756681    0.12004784046278
C        -0.61364865422528   -1.10093423127248    0.16514508274882
C        -5.00001102347020    0.43108022533612   -0.08234409305529
F        -5.01382692958631    0.83346309393501   -1.34555457010247
F        -6.13706706680272   -0.20235861189813    0.17560472173601
F        -4.91763953402512    1.49549945949461    0.70365938358539
O        -3.49028206553182   -1.01403928523537    1.59662776293367
H        -0.68710072710147    2.10439427954061   -0.90126630585443
H         1.75492990023549    1.71505051063631   -0.97132440645647
H         3.54951345413146   -0.06339320483311   -1.19550708021367
H         3.32376681670176   -1.59927027670302   -0.33592866654585
H         3.33960688842988   -0.32769247562444    1.85790868230841
H         5.05874752621784    1.40484192879746    1.83257994387687
H         5.04080971142104    1.41226177934945    0.00369139639180
H         1.14681918798991   -2.27621035172323    0.40997833410289
H        -1.28911417896197   -1.87905111579201    0.48357645043841
26
 energy: -55.606350389222 gnorm: 0.001327249572 xtb: 6.3.3 (4ae9cef)
O        -3.59453294312827   -1.75407998773908   -0.73557261939895
S        -3.53978760444717   -0.70378702511211    0.21615704554166
O        -2.48527595401220    0.40683949636415   -0.18269066177545
C        -1.11543935259776    0.13135336471832   -0.20767766172789
C        -0.26874325774781    1.14963585171203   -0.62166160063187
C         1.09376044371072    0.92020702067099   -0.66164134428500
C         1.62305528285120   -0.31385072866790   -0.29962464555655
C         3.11170509244828   -0.53001194085805   -0.31254133616974
C         3.71873716058106    0.06541283821597    0.92586823144456
C         4.64024231062405    1.00912389172419    0.92427917464272
C         0.75536177106356   -1.31503730995609    0.11608956945969
C        -0.61302876963261   -1.10217757084074    0.16395613615517
C        -4.99820415445239    0.43349516865221   -0.08022660648618
F        -5.00934825844316    0.83681437693084   -1.34306103079625
F        -6.13473736518256   -0.20194624857555    0.17511304547767
F        -4.91762986342540    1.49672520894910    0.70747173418378
O        -3.49084258283971   -1.01552984604292    1.59908391741865
H        -0.68572553345487    2.10262611425000   -0.90449851604077
H         1.75606159836367    1.71207494698377   -0.97841111974201
H         3.55214492459702   -0.06586662154553   -1.19622378335625
H         3.32594128691413   -1.60096295004534   -0.33528603902257
H         3.33433483765650   -0.32861807133309    1.85709848908144
H         5.04715344383549    1.40946621074193    1.83723700044639
H         5.03615355388914    1.41720317079829    0.00821862040233
H         1.14683131767784   -2.27909745088935    0.40534965667823
H        -1.28818938484892   -1.88001190910603    0.48390834405739
26
 energy: -55.606353493057 gnorm: 0.000705595997 xtb: 6.3.3 (4ae9cef)
O        -3.59519414484890   -1.75397195677854   -0.73665318294653
S        -3.53960146374255   -0.70412056560734    0.21560524832725
O        -2.48498797949354    0.40597788038945   -0.18278816365105
C        -1.11515686480856    0.13141843984544   -0.20762283705219
C        -0.26852845322561    1.14966141411824   -0.62168238383333
C         1.09386196654435    0.92005550969983   -0.66151347215369
C         1.62311391313503   -0.31380425878794   -0.29929232879137
C         3.11188234917551   -0.53003379106550   -0.31274600594836
C         3.71895077117601    0.06496099621507    0.92583611607330
C         4.63958727991475    1.00934324910236    0.92422406256628
C         0.75571156372004   -1.31487914470674    0.11703280036811
C        -0.61259228685413   -1.10192459145491    0.16462291270695
C        -4.99785126343331    0.43327743180490   -0.08027181763009
F        -5.00980333958130    0.83767776652734   -1.34284463918999
F        -6.13499574898592   -0.20153287297908    0.17488375852015
F        -4.91753131049449    1.49650672747398    0.70755806185978
O        -3.49155121033003   -1.01577286391212    1.59862593516265
H        -0.68569261606417    2.10244838952423   -0.90456312868789
H         1.75655141067984    1.71127663416499   -0.97868603729816
H         3.55231662417356   -0.06517898241228   -1.19604990278060
H         3.32598291469154   -1.60103673799877   -0.33635666445329
H         3.33473441104434   -0.32947289741735    1.85704588952183
H         5.04765373220134    1.40879953714293    1.83676332220734
H         5.03379919222964    1.41813891204051    0.00799911508254
H         1.14740293102028   -2.27862834782556    0.40652126620872
H        -1.28806437784391   -1.87918587710314    0.48506607581184
