      -----------------------------------------------------------      
     |                   =====================                   |     
     |                           x T B                           |     
     |                   =====================                   |     
     |                         S. Grimme                         |     
     |          Mulliken Center for Theoretical Chemistry        |     
     |                    University of Bonn                     |     
      -----------------------------------------------------------      

   * xtb version 6.3.3 (4ae9cef) compiled by 'conda@95abc7406d43' on 2020-10-14

   xtb is free software: you can redistribute it and/or modify it under
   the terms of the GNU Lesser General Public License as published by
   the Free Software Foundation, either version 3 of the License, or
   (at your option) any later version.
   
   xtb is distributed in the hope that it will be useful,
   but WITHOUT ANY WARRANTY; without even the implied warranty of
   MERCHANTABILITY or FITNESS FOR A PARTICULAR PURPOSE.  See the
   GNU Lesser General Public License for more details.
   
   Cite this work as:
   * C. Bannwarth, E. Caldeweyher, S. Ehlert, A. Hansen, P. Pracht,
     J. Seibert, S. Spicher, S. Grimme, WIREs Comput. Mol. Sci., 2020,
     e01493. DOI: 10.1002/wcms.1493
   
   for GFN2-xTB:
   * S. Grimme, C. Bannwarth, P. Shushkov, J. Chem. Theory Comput., 2017,
     13, 1989-2009. DOI: 10.1021/acs.jctc.7b00118
   for GFN1-xTB:
   * C. Bannwarth, S. Ehlert and S. Grimme., J. Chem. Theory Comput., 2019,
     15, 1652-1671. DOI: 10.1021/acs.jctc.8b01176
   for GFN0-xTB:
   * P. Pracht, E. Caldeweyher, S. Ehlert, S. Grimme, ChemRxiv, 2019, preprint.
     DOI: 10.26434/chemrxiv.8326202.v1
   for GFN-FF:
   * S. Spicher and S. Grimme, Angew. Chem. Int. Ed., 2020, 59, 15665-15673.
     DOI: 10.1002/anie.202004239
   
   for DFT-D4:
   * E. Caldeweyher, C. Bannwarth and S. Grimme, J. Chem. Phys., 2017,
     147, 034112. DOI: 10.1063/1.4993215
   * E. Caldeweyher, S. Ehlert, A. Hansen, H. Neugebauer, S. Spicher,
     C. Bannwarth and S. Grimme, J. Chem. Phys., 2019, 150, 154122.
     DOI: 10.1063/1.5090222
   * E. Caldeweyher, J.-M. Mewes, S. Ehlert and S. Grimme, Phys. Chem. Chem. Phys.
     2020, 22, 8499-8512. DOI: 10.1039/D0CP00502A
   
   for sTDA-xTB:
   * S. Grimme and C. Bannwarth, J. Chem. Phys., 2016, 145, 054103.
     DOI: 10.1063/1.4959605
   
   in the mass-spec context:
   * V. Asgeirsson, C. Bauer and S. Grimme, Chem. Sci., 2017, 8, 4879.
     DOI: 10.1039/c7sc00601b
   * J. Koopman and S. Grimme, ACS Omega 2019, 4, 12, 15120-15133.
     DOI: 10.1021/acsomega.9b02011
   
   for metadynamics refer to:
   * S. Grimme, J. Chem. Theory Comput., 2019, 155, 2847-2862
     DOI: 10.1021/acs.jctc.9b00143
   
   with help from (in alphabetical order)
   C. Bannwarth, F. Bohle, G. Brandenburg, E. Caldeweyher, M. Checinski,
   S. Dohm, S. Ehlert, S. Ehrlich, F. März, H. Neugebauer, J. Pisarek,
   P. Pracht, P. Shushkov, and S. Spicher.
   
 * started run on 2022/03/17 at 02:20:39.058     

           -------------------------------------------------
          |                Calculation Setup                |
           -------------------------------------------------

          program call               : xtb sub_9.xyz --opt --chrg 0 --uhf 0 --gfn 2
          coordinate file            : sub_9.xyz
          omp threads                :                    64
          number of atoms            :                    28
          number of electrons        :                    78
          charge                     :                     0
          spin                       :                   0.0
          first test random number   :      0.81763436488453

   ID    Z sym.   atoms
    1    6 C      1-4, 6-13, 15, 16
    2    7 N      5, 14
    3    1 H      17-28

           -------------------------------------------------
          |                 G F N 2 - x T B                 |
           -------------------------------------------------

        Reference                      10.1021/acs.jctc.8b01176
      * Hamiltonian:
        H0-scaling (s, p, d)           1.850000    2.230000    2.230000
        zeta-weighting                 0.500000
      * Dispersion:
        s8                             2.700000
        a1                             0.520000
        a2                             5.000000
        s9                             5.000000
      * Repulsion:
        kExp                           1.500000    1.000000
        rExp                           1.000000
      * Coulomb:
        alpha                          2.000000
        third order                    shell-resolved
        anisotropic                    true
        a3                             3.000000
        a5                             4.000000
        cn-shift                       1.200000
        cn-exp                         4.000000
        max-rad                        5.000000


          ...................................................
          :                      SETUP                      :
          :.................................................:
          :  # basis functions                  76          :
          :  # atomic orbitals                  76          :
          :  # shells                           44          :
          :  # electrons                        78          :
          :  max. iterations                   250          :
          :  Hamiltonian                  GFN2-xTB          :
          :  restarted?                      false          :
          :  GBSA solvation                  false          :
          :  PC potential                    false          :
          :  electronic temp.          300.0000000     K    :
          :  accuracy                    1.0000000          :
          :  -> integral cutoff          0.2500000E+02      :
          :  -> integral neglect         0.1000000E-07      :
          :  -> SCF convergence          0.1000000E-05 Eh   :
          :  -> wf. convergence          0.1000000E-03 e    :
          :  Broyden damping             0.4000000          :
          ...................................................

 iter      E             dE          RMSdq      gap      omega  full diag
   1    -42.5963821 -0.425964E+02  0.423E+00    3.07       0.0  T
   2    -42.6409584 -0.445763E-01  0.270E+00    2.91       1.0  T
   3    -42.6291793  0.117792E-01  0.131E+00    3.07       1.0  T
   4    -42.6473887 -0.182095E-01  0.431E-01    2.80       1.0  T
   5    -42.6509332 -0.354452E-02  0.127E-01    2.86       1.0  T
   6    -42.6511610 -0.227762E-03  0.574E-02    2.86       1.0  T
   7    -42.6512159 -0.549359E-04  0.215E-02    2.86       1.0  T
   8    -42.6512162 -0.264361E-06  0.873E-03    2.86       2.2  T
   9    -42.6512171 -0.958320E-06  0.218E-03    2.86       8.7  T
  10    -42.6512172 -0.743444E-07  0.116E-03    2.86      16.2  T
  11    -42.6512172 -0.757301E-08  0.421E-04    2.86      44.8  T
  12    -42.6512172 -0.147245E-08  0.177E-04    2.86     106.9  T

   *** convergence criteria satisfied after 12 iterations ***

         #    Occupation            Energy/Eh            Energy/eV
      -------------------------------------------------------------
         1        2.0000           -0.6661651             -18.1273
       ...           ...                  ...                  ...
        33        2.0000           -0.4242096             -11.5433
        34        2.0000           -0.4222371             -11.4897
        35        2.0000           -0.4096899             -11.1482
        36        2.0000           -0.4040040             -10.9935
        37        2.0000           -0.3785935             -10.3021
        38        2.0000           -0.3728636             -10.1461
        39        2.0000           -0.3599699              -9.7953 (HOMO)
        40                         -0.2547760              -6.9328 (LUMO)
        41                         -0.2447641              -6.6604
        42                         -0.2252125              -6.1283
        43                         -0.1884226              -5.1272
        44                         -0.1573978              -4.2830
       ...                                ...                  ...
        76                          0.7098711              19.3166
      -------------------------------------------------------------
                  HL-Gap            0.1051939 Eh            2.8625 eV
             Fermi-level           -0.3073729 Eh           -8.3640 eV

 SCC (total)                   0 d,  0 h,  0 min,  0.232 sec
 SCC setup                      ...        0 min,  0.023 sec (  9.887%)
 Dispersion                     ...        0 min,  0.021 sec (  9.106%)
 classical contributions        ...        0 min,  0.008 sec (  3.378%)
 integral evaluation            ...        0 min,  0.040 sec ( 17.253%)
 iterations                     ...        0 min,  0.021 sec (  9.032%)
 molecular gradient             ...        0 min,  0.119 sec ( 51.192%)
 printout                       ...        0 min,  0.000 sec (  0.120%)

         :::::::::::::::::::::::::::::::::::::::::::::::::::::
         ::                     SUMMARY                     ::
         :::::::::::::::::::::::::::::::::::::::::::::::::::::
         :: total energy             -41.949916213338 Eh    ::
         :: gradient norm              0.073200549156 Eh/a0 ::
         :: HOMO-LUMO gap              2.862471353971 eV    ::
         ::.................................................::
         :: SCC energy               -42.651217227940 Eh    ::
         :: -> isotropic ES            0.012503017782 Eh    ::
         :: -> anisotropic ES          0.005967650293 Eh    ::
         :: -> anisotropic XC          0.029273502130 Eh    ::
         :: -> dispersion             -0.029149376622 Eh    ::
         :: repulsion energy           0.701398460816 Eh    ::
         :: add. restraining           0.000000000000 Eh    ::
         :: total charge               0.000000000000 e     ::
         :::::::::::::::::::::::::::::::::::::::::::::::::::::

      ----------------------------------------------------------- 
     |                   =====================                   |
     |                        A N C O P T                        |
     |                   =====================                   |
     |               Approximate Normal Coordinate               |
     |                Rational Function Optimizer                |
      ----------------------------------------------------------- 

          ...................................................
          :                      SETUP                      :
          :.................................................:
          :   optimization level            normal          :
          :   max. optcycles                   200          :
          :   ANC micro-cycles                  20          :
          :   degrees of freedom                78          :
          :.................................................:
          :   RF solver                   davidson          :
          :   write xtbopt.log                true          :
          :   linear?                        false          :
          :   energy convergence         0.5000000E-05 Eh   :
          :   grad. convergence          0.1000000E-02 Eh/α :
          :   maximium RF displ.         1.0000000          :
          :   Hlow (freq-cutoff)         0.1000000E-01      :
          :   Hmax (freq-cutoff)         5.0000000          :
          :   S6 in model hess.         20.0000000          :
          ...................................................

generating ANC from model Hessian ...
Using Lindh-Hessian (1995)
 Shifting diagonal of input Hessian by    9.2256633528768513E-003
 Lowest  eigenvalues of input Hessian
    0.000000    0.000000    0.000000    0.000000    0.000000    0.000000
    0.010000    0.010773    0.011381    0.014129    0.016959    0.017866
    0.019258    0.019908    0.022695    0.026865    0.029897    0.030061
 Highest eigenvalues
    1.898514    1.951657    1.976860    2.012903    2.089969    2.096859


........................................................................
.............................. CYCLE    1 ..............................
........................................................................
   1    -42.6512172 -0.426512E+02  0.824E-05    2.86       0.0  T
   2    -42.6512172 -0.154188E-10  0.502E-05    2.86     376.6  T
   3    -42.6512172  0.165556E-11  0.331E-05    2.86     570.9  T
     SCC iter.                  ...        0 min,  0.006 sec
     gradient                   ...        0 min,  0.134 sec
 * total energy  :   -41.9499162 Eh     change       -0.3260183E-09 Eh
   gradient norm :     0.0732008 Eh/α   predicted     0.0000000E+00 (-100.00%)
   displ. norm   :     0.2935435 α      lambda       -0.9872169E-02
   maximum displ.:     0.1591323 α      in ANC's #15, #8, #13, ...

........................................................................
.............................. CYCLE    2 ..............................
........................................................................
   1    -42.6912750 -0.426913E+02  0.188E-01    3.01       0.0  T
   2    -42.6913917 -0.116774E-03  0.131E-01    3.03       1.0  T
   3    -42.6914273 -0.356071E-04  0.683E-02    3.03       1.0  T
   4    -42.6914743 -0.469304E-04  0.153E-02    3.03       1.2  T
   5    -42.6914784 -0.411147E-05  0.582E-03    3.03       3.2  T
   6    -42.6914788 -0.427088E-06  0.263E-03    3.03       7.2  T
   7    -42.6914789 -0.399686E-07  0.821E-04    3.03      23.0  T
   8    -42.6914789 -0.769432E-08  0.244E-04    3.03      77.4  T
     SCC iter.                  ...        0 min,  0.014 sec
     gradient                   ...        0 min,  0.138 sec
 * total energy  :   -41.9566288 Eh     change       -0.6712625E-02 Eh
   gradient norm :     0.0289192 Eh/α   predicted    -0.5361426E-02 ( -20.13%)
   displ. norm   :     0.2306876 α      lambda       -0.2323469E-02
   maximum displ.:     0.1283876 α      in ANC's #8, #15, #3, ...

........................................................................
.............................. CYCLE    3 ..............................
........................................................................
   1    -42.7094599 -0.427095E+02  0.101E-01    3.09       0.0  T
   2    -42.7095303 -0.703263E-04  0.778E-02    3.11       1.0  T
   3    -42.7095680 -0.377254E-04  0.399E-02    3.11       1.0  T
   4    -42.7095699 -0.190608E-05  0.135E-02    3.11       1.4  T
   5    -42.7095726 -0.268623E-05  0.409E-03    3.11       4.6  T
   6    -42.7095729 -0.278406E-06  0.159E-03    3.11      11.9  T
   7    -42.7095729 -0.120071E-07  0.547E-04    3.11      34.5  T
   8    -42.7095729 -0.318098E-08  0.159E-04    3.11     118.9  T
     SCC iter.                  ...        0 min,  0.019 sec
     gradient                   ...        0 min,  0.122 sec
 * total energy  :   -41.9578658 Eh     change       -0.1236988E-02 Eh
   gradient norm :     0.0062358 Eh/α   predicted    -0.1223559E-02 (  -1.09%)
   displ. norm   :     0.0861051 α      lambda       -0.1361279E-03
   maximum displ.:     0.0723502 α      in ANC's #3, #8, #13, ...

........................................................................
.............................. CYCLE    4 ..............................
........................................................................
   1    -42.7091999 -0.427092E+02  0.243E-02    3.11       0.0  T
   2    -42.7092014 -0.143058E-05  0.150E-02    3.11       1.3  T
   3    -42.7092010  0.388545E-06  0.614E-03    3.11       3.1  T
   4    -42.7092015 -0.496062E-06  0.238E-03    3.11       7.9  T
   5    -42.7092016 -0.129919E-06  0.489E-04    3.11      38.6  T
   6    -42.7092016 -0.265583E-08  0.250E-04    3.11      75.7  T
     SCC iter.                  ...        0 min,  0.012 sec
     gradient                   ...        0 min,  0.132 sec
 * total energy  :   -41.9579661 Eh     change       -0.1002503E-03 Eh
   gradient norm :     0.0025490 Eh/α   predicted    -0.6857001E-04 ( -31.60%)
   displ. norm   :     0.0833035 α      lambda       -0.6716289E-04
   maximum displ.:     0.0769204 α      in ANC's #3, #8, #26, ...

........................................................................
.............................. CYCLE    5 ..............................
........................................................................
   1    -42.7084044 -0.427084E+02  0.204E-02    3.11       0.0  T
   2    -42.7084047 -0.324482E-06  0.119E-02    3.11       1.6  T
   3    -42.7084045  0.228754E-06  0.348E-03    3.11       5.4  T
   4    -42.7084048 -0.295132E-06  0.845E-04    3.11      22.4  T
   5    -42.7084048 -0.151806E-07  0.328E-04    3.11      57.6  T
     SCC iter.                  ...        0 min,  0.014 sec
     gradient                   ...        0 min,  0.125 sec
 * total energy  :   -41.9580101 Eh     change       -0.4399697E-04 Eh
   gradient norm :     0.0012122 Eh/α   predicted    -0.3381718E-04 ( -23.14%)
   displ. norm   :     0.0560735 α      lambda       -0.1348521E-04
   maximum displ.:     0.0551015 α      in ANC's #3, #6, #15, ...

........................................................................
.............................. CYCLE    6 ..............................
........................................................................
   1    -42.7084257 -0.427084E+02  0.107E-02    3.11       0.0  T
   2    -42.7084258 -0.628682E-07  0.634E-03    3.11       3.0  T
   3    -42.7084256  0.143630E-06  0.236E-03    3.11       8.0  T
   4    -42.7084258 -0.173833E-06  0.415E-04    3.11      45.5  T
   5    -42.7084258 -0.201317E-08  0.208E-04    3.11      90.9  T
     SCC iter.                  ...        0 min,  0.009 sec
     gradient                   ...        0 min,  0.129 sec
 * total energy  :   -41.9580243 Eh     change       -0.1423849E-04 Eh
   gradient norm :     0.0010038 Eh/α   predicted    -0.6756558E-05 ( -52.55%)
   displ. norm   :     0.0560816 α      lambda        0.3218076E-05
   maximum displ.:     0.0551054 α      in ANC's #3, #6, #15, ...

........................................................................
.............................. CYCLE    7 ..............................
........................................................................
   1    -42.7083958 -0.427084E+02  0.107E-02    3.11       0.0  T
   2    -42.7083958 -0.631539E-07  0.634E-03    3.11       3.0  T
   3    -42.7083957  0.140362E-06  0.234E-03    3.11       8.1  T
   4    -42.7083959 -0.170753E-06  0.401E-04    3.11      47.2  T
   5    -42.7083959 -0.175544E-08  0.206E-04    3.11      91.7  T
     SCC iter.                  ...        0 min,  0.013 sec
     gradient                   ...        0 min,  0.135 sec
 * total energy  :   -41.9580265 Eh     change       -0.2235858E-05 Eh
   gradient norm :     0.0014994 Eh/α   predicted     0.1610237E-05 (-172.02%)
   displ. norm   :     0.0160027 α      lambda       -0.5158669E-05
   maximum displ.:     0.0138534 α      in ANC's #8, #15, #7, ...

........................................................................
.............................. CYCLE    8 ..............................
........................................................................
   1    -42.7086586 -0.427087E+02  0.661E-03    3.11       0.0  T
   2    -42.7086586 -0.375272E-07  0.390E-03    3.11       4.8  T
   3    -42.7086585  0.636965E-07  0.169E-03    3.11      11.2  T
   4    -42.7086586 -0.813769E-07  0.274E-04    3.11      69.0  T
   5    -42.7086586 -0.141589E-08  0.132E-04    3.11     142.8  T
     SCC iter.                  ...        0 min,  0.009 sec
     gradient                   ...        0 min,  0.137 sec
 * total energy  :   -41.9580317 Eh     change       -0.5169532E-05 Eh
   gradient norm :     0.0005939 Eh/α   predicted    -0.2580392E-05 ( -50.08%)
   displ. norm   :     0.0160728 α      lambda       -0.4890182E-07
   maximum displ.:     0.0138534 α      in ANC's #8, #15, #7, ...

........................................................................
.............................. CYCLE    9 ..............................
........................................................................
   1    -42.7089127 -0.427089E+02  0.660E-03    3.11       0.0  T
   2    -42.7089127 -0.381332E-07  0.391E-03    3.11       4.8  T
   3    -42.7089127  0.613938E-07  0.166E-03    3.11      11.4  T
   4    -42.7089127 -0.789964E-07  0.264E-04    3.11      71.7  T
   5    -42.7089127 -0.125316E-08  0.129E-04    3.11     146.9  T
     SCC iter.                  ...        0 min,  0.009 sec
     gradient                   ...        0 min,  0.127 sec
 * total energy  :   -41.9580318 Eh     change       -0.4374039E-07 Eh
   gradient norm :     0.0009320 Eh/α   predicted    -0.2614178E-07 ( -40.23%)
   displ. norm   :     0.0084924 α      lambda       -0.1693030E-05
   maximum displ.:     0.0060925 α      in ANC's #3, #8, #6, ...

   *** GEOMETRY OPTIMIZATION CONVERGED AFTER 9 ITERATIONS ***

------------------------------------------------------------------------
 total energy gain   :        -0.0081155 Eh       -5.0926 kcal/mol
 total RMSD          :         0.1247317 a0        0.0660 Å
 total power (kW/mol):        -2.3674854 (step)   -9.8500 (real)
------------------------------------------------------------------------

 ANCopt (total)                0 d,  0 h,  0 min,  2.163 sec
 optimizer setup                ...        0 min,  0.000 sec (  0.005%)
 model hessian                  ...        0 min,  0.012 sec (  0.540%)
 ANC generation                 ...        0 min,  0.001 sec (  0.061%)
 coordinate transformation      ...        0 min,  0.000 sec (  0.006%)
 single point calculation       ...        0 min,  2.021 sec ( 93.408%)
 optimization log               ...        0 min,  0.016 sec (  0.753%)
 hessian update                 ...        0 min,  0.112 sec (  5.171%)
 rational function              ...        0 min,  0.001 sec (  0.026%)

================
 final structure:
================
28
 xtb: 6.3.3 (4ae9cef)
C        -4.45486050011663    0.94075237713587    0.07351359312985
C        -3.18630176439502    0.15697846239983    0.19804185366898
C        -1.95951908665009    0.75312944214382   -0.04339867394334
C        -0.79090802864968   -0.01108520923471    0.05869178412219
N         0.46213601528765    0.53383179066989   -0.17163819588721
C         0.71839252311014    1.84657267764223   -0.51793972146925
C         2.04683673944402    2.05492528189332   -0.67218191916567
C         2.69730936827302    0.81254551865803   -0.41282263612313
C         1.68301946793206   -0.12274746318317   -0.10161523496058
C         2.00104481773268   -1.43964164712400    0.20171246215043
C         3.33380762091714   -1.80000830475705    0.18844466506308
C         4.33987054369308   -0.88332405969043   -0.11747424574574
C         4.03418144685783    0.42498253958285   -0.41957051233422
N        -0.82845217922592   -1.29924481568715    0.38468389133658
C        -1.99821857923648   -1.86438417118301    0.61398377745731
C        -3.20400815061687   -1.19448257697412    0.53657046441137
H        -5.23375972132300    0.51770802843065    0.70329454690656
H        -4.80331287083505    0.91290849419812   -0.95943393094360
H        -4.29909113894661    1.98145402282573    0.34817672392158
H        -1.92880112154270    1.79791065557977   -0.30536999611547
H        -0.07328437757860    2.55897269507963   -0.63466769714760
H         2.52132672114632    2.97847590010026   -0.93893756945971
H         1.22935996275515   -2.15117281500760    0.43818084057444
H         3.60491178985374   -2.81927097666891    0.42118497076076
H         5.37013006450846   -1.20840916915545   -0.11594738389502
H         4.80755339641176    1.14032927676105   -0.65731678859365
H        -1.95532598820625   -2.91404459267924    0.87452161988398
H        -4.13403697060019   -1.70366136175614    0.73432631239699

 Bond Distances (Angstroems)
 ---------------------------
C1-C2=1.4963         C1-H17=1.0873        C1-H18=1.0905        C1-H19=1.0875        C2-C1=1.4963         C2-C3=1.3852         
C2-C16=1.3933        C3-C2=1.3852         C3-C4=1.4000         C3-H20=1.0776        C4-C3=1.4000         C4-N5=1.3857         
C4-N14=1.3293        N5-C4=1.3857         N5-C6=1.3816         N5-C9=1.3880         C6-N5=1.3816         C6-C7=1.3535         
C6-H21=1.0714        C7-C6=1.3535         C7-C8=1.4261         C7-H22=1.0720        C8-C7=1.4261         C8-C9=1.4144         
C8-C13=1.3919        C9-N5=1.3880         C9-C8=1.4144         C9-C10=1.3883        C10-C9=1.3883        C10-C11=1.3807       
C10-H23=1.0760       C11-C10=1.3807       C11-C12=1.3950       C11-H24=1.0801       C12-C11=1.3950       C12-C13=1.3771       
C12-H25=1.0803       C13-C8=1.3919        C13-C12=1.3771       C13-H26=1.0800       N14-C4=1.3293        N14-C15=1.3192       
C15-N14=1.3192       C15-C16=1.3816       C15-H27=1.0824       C16-C2=1.3933        C16-C15=1.3816       C16-H28=1.0786       
H17-C1=1.0873        H18-C1=1.0905        H19-C1=1.0875        H20-C3=1.0776        H21-C6=1.0714        H22-C7=1.0720        
H23-C10=1.0760       H24-C11=1.0801       H25-C12=1.0803       H26-C13=1.0800       H27-C15=1.0824       H28-C16=1.0786       
 C  H  Rav=1.0803 sigma=0.0057  Rmin=1.0714  Rmax=1.0905    12
 C  C  Rav=1.3987 sigma=0.0329  Rmin=1.3535  Rmax=1.4963    13
 N  C  Rav=1.3608 sigma=0.0300  Rmin=1.3192  Rmax=1.3880     5

 selected bond angles (degree)
 --------------------
H17-C1-C2=110.81               H18-C1-C2=109.65               H18-C1-H17=108.05              H19-C1-C2=111.03               
H19-C1-H17=109.19              H19-C1-H18=108.02              C3-C2-C1=120.72                C16-C2-C1=121.16               
C16-C2-C3=118.10               C4-C3-C2=119.45                H20-C3-C2=119.01               H20-C3-C4=121.55               
N5-C4-C3=121.87                N14-C4-C3=121.55               N14-C4-N5=116.58               C6-N5-C4=125.66                
C9-N5-C4=126.94                C9-N5-C6=107.39                C7-C6-N5=110.91                H21-C6-N5=121.47               
H21-C6-C7=127.62               C8-C7-C6=107.03                H22-C7-C6=126.54               H22-C7-C8=126.43               
C9-C8-C7=106.80                C13-C8-C7=132.82               C13-C8-C9=120.38               C8-C9-N5=107.87                
C10-C9-N5=131.39               C10-C9-C8=120.74               C11-C10-C9=117.81              H23-C10-C9=120.73              
H23-C10-C11=121.45             

 selected dihedral angles (degree)
 ---------------------------------
C3-C2-C1-H17=206.15           C3-C2-C1-H18= 86.96           C3-C2-C1-H19=327.66           C16-C2-C1-H17= 27.25          
C16-C2-C1-H18=268.06          C16-C2-C1-H19=148.77          C4-C3-C2-C1=181.08            C4-C3-C2-C16=  0.00           
H20-C3-C2-C1=  1.13           H20-C3-C2-C16=180.06          N5-C4-C3-C2=180.02            N5-C4-C3-H20=359.97           
N14-C4-C3-C2=359.90           N14-C4-C3-H20=179.85          C6-N5-C4-C3=  0.00            C6-N5-C4-N14=180.11           
C9-N5-C4-C3=180.07            C9-N5-C4-N14=  0.17           C7-C6-N5-C4=180.09            C7-C6-N5-C9=  0.03            
H21-C6-N5-C4=  0.06           H21-C6-N5-C9=180.00           C8-C7-C6-N5=  0.00            C8-C7-C6-H21=180.02           
H22-C7-C6-N5=179.97           H22-C7-C6-H21=  0.00          C9-C8-C7-C6=  0.00            C9-C8-C7-H22=180.01           
C13-C8-C7-C6=179.98           C13-C8-C7-H22=  0.00          C8-C9-N5-C4=179.91            C8-C9-N5-C6=359.96            
C10-C9-N5-C4=359.95           C10-C9-N5-C6=180.00           N5-C9-C8-C7=  0.02            N5-C9-C8-C13=180.03           
C10-C9-C8-C7=179.99           C10-C9-C8-C13=  0.00          C11-C10-C9-N5=179.95          C11-C10-C9-C8=  0.00          
H23-C10-C9-N5=359.97          H23-C10-C9-C8=180.02          
           -------------------------------------------------
          |                Final Singlepoint                |
           -------------------------------------------------

          ...................................................
          :                      SETUP                      :
          :.................................................:
          :  # basis functions                  76          :
          :  # atomic orbitals                  76          :
          :  # shells                           44          :
          :  # electrons                        78          :
          :  max. iterations                   250          :
          :  Hamiltonian                  GFN2-xTB          :
          :  restarted?                      false          :
          :  GBSA solvation                  false          :
          :  PC potential                    false          :
          :  electronic temp.          300.0000000     K    :
          :  accuracy                    1.0000000          :
          :  -> integral cutoff          0.2500000E+02      :
          :  -> integral neglect         0.1000000E-07      :
          :  -> SCF convergence          0.1000000E-05 Eh   :
          :  -> wf. convergence          0.1000000E-03 e    :
          :  Broyden damping             0.4000000          :
          ...................................................

 iter      E             dE          RMSdq      gap      omega  full diag
   1    -42.7089127 -0.427089E+02  0.653E-05    3.11       0.0  T
   2    -42.7089127 -0.143814E-10  0.485E-05    3.11     389.8  T
   3    -42.7089127 -0.319318E-10  0.240E-05    3.11     786.0  T

   *** convergence criteria satisfied after 3 iterations ***

         #    Occupation            Energy/Eh            Energy/eV
      -------------------------------------------------------------
         1        2.0000           -0.6729120             -18.3109
       ...           ...                  ...                  ...
        33        2.0000           -0.4242236             -11.5437
        34        2.0000           -0.4229930             -11.5102
        35        2.0000           -0.4107408             -11.1768
        36        2.0000           -0.4059618             -11.0468
        37        2.0000           -0.3777383             -10.2788
        38        2.0000           -0.3694677             -10.0537
        39        2.0000           -0.3630618              -9.8794 (HOMO)
        40                         -0.2487671              -6.7693 (LUMO)
        41                         -0.2408540              -6.5540
        42                         -0.2201706              -5.9911
        43                         -0.1873532              -5.0981
        44                         -0.1537840              -4.1847
       ...                                ...                  ...
        76                          0.7352155              20.0062
      -------------------------------------------------------------
                  HL-Gap            0.1142947 Eh            3.1101 eV
             Fermi-level           -0.3059144 Eh           -8.3244 eV

 SCC (total)                   0 d,  0 h,  0 min,  0.219 sec
 SCC setup                      ...        0 min,  0.010 sec (  4.755%)
 Dispersion                     ...        0 min,  0.021 sec (  9.705%)
 classical contributions        ...        0 min,  0.014 sec (  6.294%)
 integral evaluation            ...        0 min,  0.034 sec ( 15.466%)
 iterations                     ...        0 min,  0.006 sec (  2.539%)
 molecular gradient             ...        0 min,  0.134 sec ( 61.117%)
 printout                       ...        0 min,  0.000 sec (  0.093%)

         :::::::::::::::::::::::::::::::::::::::::::::::::::::
         ::                     SUMMARY                     ::
         :::::::::::::::::::::::::::::::::::::::::::::::::::::
         :: total energy             -41.958031761626 Eh    ::
         :: gradient norm              0.000931055705 Eh/a0 ::
         :: HOMO-LUMO gap              3.110116935204 eV    ::
         ::.................................................::
         :: SCC energy               -42.708912748456 Eh    ::
         :: -> isotropic ES            0.012468723496 Eh    ::
         :: -> anisotropic ES          0.005170757717 Eh    ::
         :: -> anisotropic XC          0.027610443821 Eh    ::
         :: -> dispersion             -0.029628456314 Eh    ::
         :: repulsion energy           0.750973735304 Eh    ::
         :: add. restraining           0.000000000000 Eh    ::
         :: total charge               0.000000000000 e     ::
         :::::::::::::::::::::::::::::::::::::::::::::::::::::

           -------------------------------------------------
          |                Property Printout                |
           -------------------------------------------------

    * Orbital Energies and Occupations

         #    Occupation            Energy/Eh            Energy/eV
      -------------------------------------------------------------
         1        2.0000           -0.6729120             -18.3109
       ...           ...                  ...                  ...
        27        2.0000           -0.4659166             -12.6782
        28        2.0000           -0.4619812             -12.5711
        29        2.0000           -0.4549344             -12.3794
        30        2.0000           -0.4533542             -12.3364
        31        2.0000           -0.4434245             -12.0662
        32        2.0000           -0.4262971             -11.6001
        33        2.0000           -0.4242236             -11.5437
        34        2.0000           -0.4229930             -11.5102
        35        2.0000           -0.4107408             -11.1768
        36        2.0000           -0.4059618             -11.0468
        37        2.0000           -0.3777383             -10.2788
        38        2.0000           -0.3694677             -10.0537
        39        2.0000           -0.3630618              -9.8794 (HOMO)
        40                         -0.2487671              -6.7693 (LUMO)
        41                         -0.2408540              -6.5540
        42                         -0.2201706              -5.9911
        43                         -0.1873532              -5.0981
        44                         -0.1537840              -4.1847
        45                         -0.1000780              -2.7233
        46                         -0.0633267              -1.7232
        47                          0.0193322               0.5261
        48                          0.0957864               2.6065
        49                          0.1015571               2.7635
        50                          0.1171349               3.1874
       ...                                ...                  ...
        76                          0.7352155              20.0062
      -------------------------------------------------------------
                  HL-Gap            0.1142947 Eh            3.1101 eV
             Fermi-level           -0.3059144 Eh           -8.3244 eV

     #   Z          covCN         q      C6AA      α(0)
     1   6 C        3.758    -0.111    22.671     6.788
     2   6 C        2.974     0.034    27.239     8.561
     3   6 C        2.922    -0.071    29.761     8.946
     4   6 C        2.895     0.146    24.836     8.171
     5   7 N        2.823    -0.015    21.543     6.894
     6   6 C        3.035    -0.007    28.156     8.703
     7   6 C        2.998    -0.067    29.649     8.932
     8   6 C        3.113    -0.008    28.068     8.679
     9   6 C        3.084     0.043    26.936     8.508
    10   6 C        2.909    -0.046    29.147     8.853
    11   6 C        2.925    -0.036    28.891     8.815
    12   6 C        2.920    -0.038    28.953     8.824
    13   6 C        2.912    -0.037    28.927     8.819
    14   7 N        1.846    -0.252    27.417     7.760
    15   6 C        2.904     0.060    26.665     8.467
    16   6 C        2.918    -0.060    29.496     8.906
    17   1 H        0.925     0.048     2.347     2.396
    18   1 H        0.924     0.054     2.274     2.358
    19   1 H        0.925     0.047     2.359     2.402
    20   1 H        0.926     0.035     2.510     2.477
    21   1 H        0.926     0.034     2.536     2.490
    22   1 H        0.926     0.033     2.543     2.494
    23   1 H        0.926     0.060     2.201     2.320
    24   1 H        0.926     0.029     2.595     2.519
    25   1 H        0.926     0.027     2.635     2.538
    26   1 H        0.926     0.028     2.610     2.526
    27   1 H        0.925     0.038     2.478     2.462
    28   1 H        0.926     0.034     2.534     2.489

 Mol. C6AA /au·bohr⁶  :      10492.368375
 Mol. C8AA /au·bohr⁸  :     258445.421564
 Mol. α(0) /au        :        164.098146


Wiberg/Mayer (AO) data.
largest (>0.10) Wiberg bond orders for each atom

 ---------------------------------------------------------------------------
     #   Z sym  total        # sym  WBO       # sym  WBO       # sym  WBO
 ---------------------------------------------------------------------------
     1   6 C    3.996 --     2 C    1.028    17 H    0.982    19 H    0.980
                            18 H    0.964
     2   6 C    3.984 --     3 C    1.443    16 C    1.382     1 C    1.028
     3   6 C    3.983 --     2 C    1.443     4 C    1.337    20 H    0.962
                            15 C    0.106
     4   6 C    3.969 --    14 N    1.361     3 C    1.337     5 N    1.102
     5   7 N    3.633 --     6 C    1.148     9 C    1.111     4 C    1.102
     6   6 C    3.952 --     7 C    1.648     5 N    1.148    21 H    0.964
     7   6 C    3.972 --     6 C    1.648     8 C    1.194    22 H    0.973
     8   6 C    3.983 --    13 C    1.343     9 C    1.266     7 C    1.194
     9   6 C    3.955 --    10 C    1.361     8 C    1.266     5 N    1.111
    10   6 C    3.988 --    11 C    1.477     9 C    1.361    23 H    0.960
                            13 C    0.111
    11   6 C    3.988 --    10 C    1.477    12 C    1.386    24 H    0.972
    12   6 C    3.987 --    13 C    1.491    11 C    1.386    25 H    0.972
    13   6 C    3.990 --    12 C    1.491     8 C    1.343    26 H    0.970
                            10 C    0.111
    14   7 N    3.061 --    15 C    1.433     4 C    1.361
    15   6 C    3.981 --    16 C    1.441    14 N    1.433    27 H    0.963
                             3 C    0.106
    16   6 C    3.973 --    15 C    1.441     2 C    1.382    28 H    0.969
    17   1 H    0.997 --     1 C    0.982
    18   1 H    0.997 --     1 C    0.964
    19   1 H    0.998 --     1 C    0.980
    20   1 H    0.999 --     3 C    0.962
    21   1 H    0.998 --     6 C    0.964
    22   1 H    0.998 --     7 C    0.973
    23   1 H    0.996 --    10 C    0.960
    24   1 H    0.999 --    11 C    0.972
    25   1 H    0.999 --    12 C    0.972
    26   1 H    0.999 --    13 C    0.970
    27   1 H    0.998 --    15 C    0.963
    28   1 H    0.999 --    16 C    0.969
 ---------------------------------------------------------------------------

Topologies differ in total number of bonds
Writing topology from bond orders to xtbtopo.mol

molecular dipole:
                 x           y           z       tot (Debye)
 q only:       -0.731       0.283      -0.035
   full:       -1.200       0.516      -0.070       3.324
molecular quadrupole (traceless):
                xx          xy          yy          xz          yz          zz
 q only:        4.105      -1.518      -0.060       0.006      -1.004      -4.045
  q+dip:        8.192      -1.021       1.910      -0.790      -3.225     -10.102
   full:        5.582      -0.813      -0.217      -0.247      -1.401      -5.365

           -------------------------------------------------
          |                Geometry Summary                 |
           -------------------------------------------------

      molecular mass/u    :      208.2589980
   center of mass at/Å    :        0.2550678      -0.0649863      -0.0099954
  moments of inertia/u·Å² :        0.3512537E+03   0.1542935E+04   0.1891051E+04
rotational constants/cm⁻¹ :        0.4799275E-01   0.1092569E-01   0.8914423E-02

 * 29 selected distances

     #   Z          #   Z                                           value/Å
     2   6 C        3   6 C                                       1.3851661
     3   6 C        4   6 C                                       1.4000351
     4   6 C        5   7 N                                       1.3856788
     5   7 N        6   6 C                                       1.3816225
     6   6 C        7   6 C                                       1.3535012
     7   6 C        8   6 C                                       1.4261449 (max)
     5   7 N        9   6 C                                       1.3880043
     8   6 C        9   6 C                                       1.4143575
     9   6 C       10   6 C                                       1.3882932
    10   6 C       11   6 C                                       1.3806871
    11   6 C       12   6 C                                       1.3950122
     8   6 C       13   6 C                                       1.3919330
    12   6 C       13   6 C                                       1.3770890
     4   6 C       14   7 N                                       1.3292989
    14   7 N       15   6 C                                       1.3192097
     2   6 C       16   6 C                                       1.3933277
    15   6 C       16   6 C                                       1.3815533
     1   6 C       17   1 H                                       1.0873245
     1   6 C       18   1 H                                       1.0904930
     1   6 C       19   1 H                                       1.0875495
     3   6 C       20   1 H                                       1.0775622
     6   6 C       21   1 H                                       1.0713970 (min)
     7   6 C       22   1 H                                       1.0720285
    10   6 C       23   1 H                                       1.0759607
    11   6 C       24   1 H                                       1.0800750
    12   6 C       25   1 H                                       1.0803321
    13   6 C       26   1 H                                       1.0799761
    15   6 C       27   1 H                                       1.0823617
    16   6 C       28   1 H                                       1.0785750

 * 3 distinct bonds (by element types)

   Z      Z             #   av. dist./Å        max./Å        min./Å
   1 H    6 C          12     1.0803029     1.0904930     1.0713970
   6 C    6 C          12     1.3905917     1.4261449     1.3535012
   6 C    7 N           5     1.3607629     1.3880043     1.3192097


optimized geometry written to: xtbopt.xyz


           -------------------------------------------------
          | TOTAL ENERGY              -41.958031761626 Eh   |
          | GRADIENT NORM               0.000931055705 Eh/α |
          | HOMO-LUMO GAP               3.110116935204 eV   |
           -------------------------------------------------

------------------------------------------------------------------------
 * finished run on 2022/03/17 at 02:20:41.803     
------------------------------------------------------------------------
 total:
 * wall-time:     0 d,  0 h,  0 min,  2.744 sec
 *  cpu-time:     0 d,  0 h,  1 min, 28.175 sec
 * ratio c/w:    32.129 speedup
 SCF:
 * wall-time:     0 d,  0 h,  0 min,  0.233 sec
 *  cpu-time:     0 d,  0 h,  0 min,  7.333 sec
 * ratio c/w:    31.512 speedup
 ANC optimizer:
 * wall-time:     0 d,  0 h,  0 min,  2.383 sec
 *  cpu-time:     0 d,  0 h,  1 min, 16.936 sec
 * ratio c/w:    32.280 speedup

