28
 energy: -41.949916213664 gnorm: 0.073200805859 xtb: 6.3.3 (4ae9cef)
C        -4.48399400000000    0.95965200000000    0.06454600000000
C        -3.22770300000000    0.15414500000000    0.21123300000000
C        -1.97588000000000    0.73393200000000   -0.03913300000000
C        -0.81901800000000   -0.04210300000000    0.07253200000000
N         0.47753000000000    0.54084400000000   -0.17350300000000
C         0.71840500000000    1.86238500000000   -0.52137300000000
C         2.06867600000000    2.05977700000000   -0.67603100000000
C         2.71254700000000    0.82881000000000   -0.41897500000000
C         1.71965900000000   -0.11086100000000   -0.10700100000000
C         2.07438300000000   -1.44185100000000    0.19761700000000
C         3.42444800000000   -1.80816700000000    0.18404400000000
C         4.41132500000000   -0.88206400000000   -0.12397000000000
C         4.06748400000000    0.43678200000000   -0.42651300000000
N        -0.88389200000000   -1.35425400000000    0.41024600000000
C        -2.09892500000000   -1.89872500000000    0.63320100000000
C        -3.28534000000000   -1.19648800000000    0.54264700000000
H        -5.28142400000000    0.56191400000000    0.70108700000000
H        -4.82127600000000    0.94071400000000   -0.97632300000000
H        -4.31707400000000    1.99929600000000    0.36532000000000
H        -1.94593400000000    1.78048300000000   -0.31591100000000
H        -0.07975200000000    2.57865700000000   -0.63638400000000
H         2.54307900000000    2.99416400000000   -0.94570700000000
H         1.32558200000000   -2.18827300000000    0.44217700000000
H         3.69950200000000   -2.83371600000000    0.41871500000000
H         5.45552000000000   -1.18284900000000   -0.13007900000000
H         4.84351000000000    1.15786100000000   -0.66688200000000
H        -2.09160400000000   -2.95336500000000    0.89346900000000
H        -4.22983400000000   -1.69670000000000    0.72796400000000
28
 energy: -41.956628838933 gnorm: 0.028919207896 xtb: 6.3.3 (4ae9cef)
C        -4.46830943286790    0.96313851674903    0.06806461945913
C        -3.20981298263657    0.16053976376036    0.19904882495294
C        -1.96551538899703    0.73552321869016   -0.04117121694558
C        -0.80881422219296   -0.04058090284469    0.07072975458424
N         0.46906312206437    0.51521784313544   -0.16608752857689
C         0.71532479306436    1.83257890089385   -0.51341273551693
C         2.04970516574430    2.04545159396345   -0.67054155953053
C         2.70454600924608    0.81318036187551   -0.41429663355215
C         1.70384196375756   -0.13166613570443   -0.10054584185585
C         2.04953054632348   -1.44659326636164    0.20054843791887
C         3.39107826637902   -1.79577083184768    0.18339614683919
C         4.38311686754610   -0.86822968937862   -0.12527561080083
C         4.05148624110081    0.43743469725161   -0.42542855520087
N        -0.86377560215721   -1.33440949112901    0.40232612979663
C        -2.05772735094833   -1.87724993406086    0.62377838407496
C        -3.25167031584395   -1.18739598608734    0.53715227106803
H        -5.26121128383938    0.55250763174477    0.69347784920302
H        -4.81113616761246    0.94489333375584   -0.96678700405104
H        -4.30545655658322    2.00193064820690    0.35473101989346
H        -1.93140106504426    1.77922060496307   -0.31150941528298
H        -0.07820492854624    2.54524564430753   -0.62835597263437
H         2.51478750186819    2.97766496671926   -0.93914127220682
H         1.29830387931575   -2.18121913173151    0.44254892731044
H         3.66973065947121   -2.81514575387440    0.41629376285319
H         5.42302954523955   -1.16955804985285   -0.13090589560078
H         4.82116109634163    1.15909492104218   -0.66546497156434
H        -2.04047245123962   -2.92823418036519    0.88497395800358
H        -4.19119790895329   -1.68756929382074    0.72886712736229
28
 energy: -41.957865826634 gnorm: 0.006235820720 xtb: 6.3.3 (4ae9cef)
C        -4.45265389802658    0.96107526679187    0.06852165746241
C        -3.19262191802970    0.16330099897078    0.19554068557251
C        -1.95653770428932    0.74221763781798   -0.04346073440380
C        -0.79690054542065   -0.03291498919753    0.06512359596878
N         0.46147740177548    0.50859407693954   -0.16440876589632
C         0.70892257682749    1.82329934722032   -0.51046001608451
C         2.03471643656167    2.04297470038660   -0.66822408365755
C         2.69499659646095    0.80724676146022   -0.41180829548427
C         1.68885619930428   -0.13825333902479   -0.09784339636233
C         2.02506799275515   -1.44914589913700    0.20297018439282
C         3.36224814482645   -1.79394973439327    0.18506755453991
C         4.35838492062640   -0.86713322048813   -0.12362638210511
C         4.03597833167778    0.43608780548973   -0.42363775957671
N        -0.84445903189724   -1.31840314098642    0.39386253698602
C        -2.02299579301841   -1.86762207168370    0.61767607333156
C        -3.22295303243528   -1.18651615034838    0.53558833742041
H        -5.23942861774542    0.54295391554111    0.69193690826623
H        -4.79777227935812    0.94244444315352   -0.96539238344691
H        -4.28945592586925    1.99889339235942    0.34899889265078
H        -1.91947490069767    1.78546133928125   -0.30906524243925
H        -0.08414035746132    2.53346249566469   -0.62515449564223
H         2.49781665384564    2.97200523611523   -0.93566455151266
H         1.26680999582708   -2.17391451770193    0.44287532819591
H         3.64414239063598   -2.81030764494125    0.41680434376505
H         5.39390027152525   -1.17582094225780   -0.12710390648070
H         4.80116844808510    1.15947612242297   -0.66371481781629
H        -1.99700642921461   -2.91716549177504    0.88073608270570
H        -4.15808592727113   -1.68834639767994    0.73087564965055
28
 energy: -41.957966076890 gnorm: 0.002549032638 xtb: 6.3.3 (4ae9cef)
C        -4.44951187053002    0.95594975759916    0.06923015000659
C        -3.18873285084166    0.16018830058069    0.19566419702223
C        -1.95638196183181    0.74517200700883   -0.04371154981859
C        -0.79349241484736   -0.02653501992188    0.06339959686142
N         0.46087062117206    0.51631320008655   -0.16630992138034
C         0.70954947282570    1.83030918477803   -0.51261507115767
C         2.03578402594382    2.04755796985029   -0.66937042636812
C         2.69381065090501    0.80932681268468   -0.41221130026872
C         1.68540844806773   -0.13336618960506   -0.09911057801048
C         2.01549944638720   -1.44691879036119    0.20283956882215
C         3.35172275414008   -1.79615097458248    0.18628137732709
C         4.35047310820386   -0.87214374603353   -0.12174336778999
C         4.03319663752845    0.43356898751462   -0.42261081082034
N        -0.83808281163627   -1.31364312524387    0.39115134006815
C        -2.01366851982303   -1.86861542642877    0.61719425139525
C        -3.21530957297636   -1.19055225583601    0.53594221806774
H        -5.23497185176777    0.53763234891431    0.69373552116380
H        -4.79406895312152    0.93674080571274   -0.96516038004319
H        -4.28527456138536    1.99402176720493    0.34884096972685
H        -1.92065866212283    1.78883492106939   -0.30808166157679
H        -0.08380349202398    2.54055547459248   -0.62738612973645
H         2.50197553986064    2.97499398528556   -0.93623225831429
H         1.25219572579872   -2.16722481994824    0.44198759610604
H         3.63197815910237   -2.81300764605046    0.41828521113644
H         5.38402937360082   -1.18678545409986   -0.12357415503409
H         4.79944495158661    1.15585951430823   -0.66228723631528
H        -1.98317635845907   -2.91824252109081    0.88005856629299
H        -4.14880503375609   -1.69383906798829    0.73280728263759
28
 energy: -41.958010073861 gnorm: 0.001212174969 xtb: 6.3.3 (4ae9cef)
C        -4.44877026606935    0.94977373300069    0.07035170028586
C        -3.18652822058932    0.15675073209481    0.19703608019650
C        -1.95754053337632    0.74752287993701   -0.04347592664747
C        -0.79129268810027   -0.02026231019888    0.06130087951489
N         0.46097731580224    0.52495609462545   -0.16873022824006
C         0.71180564767692    1.83853221629278   -0.51501750872173
C         2.03921028144813    2.05218152119608   -0.67072529442857
C         2.69423093449414    0.81163077748467   -0.41266821110706
C         1.68347968593777   -0.12758354242494   -0.10053549561875
C         2.00743930346683   -1.44350965876880    0.20242256445347
C         3.34241847479895   -1.79794715333643    0.18730932066881
C         4.34413538950709   -0.87737787935216   -0.11986076808485
C         4.03243877447558    0.43035237498961   -0.42148853823414
N        -0.83329035032779   -1.30878360679470    0.38843038365473
C        -2.00636093021615   -1.86920284675572    0.61658305805586
C        -3.20962359422150   -1.19447432582352    0.53684691160014
H        -5.23351414615018    0.53213864087972    0.69603283356875
H        -4.79283445072699    0.92912751435041   -0.96434450501843
H        -4.28422891518061    1.98834747116833    0.34883907071912
H        -1.92335372243269    1.79165493786547   -0.30674244321725
H        -0.08175905625280    2.54907158568638   -0.63019006462205
H         2.50933131864155    2.97792819255043   -0.93733408634928
H         1.23927229764533   -2.15905656444656    0.44040092626040
H         3.61978493622952   -2.81573639374855    0.41962222840477
H         5.37580659110669   -1.19807537502741   -0.11999405840586
H         4.80095686222070    1.15049988083064   -0.66054226344394
H        -1.97044616708888   -2.91880965517391    0.87895820851829
H        -4.14174477271867   -1.69964924110083    0.73452822623782
28
 energy: -41.958024312346 gnorm: 0.001003844159 xtb: 6.3.3 (4ae9cef)
C        -4.45043043294910    0.94517584116705    0.07156804844041
C        -3.18607368364680    0.15524586405412    0.19791972029781
C        -1.95876288171146    0.74940456436377   -0.04299236926998
C        -0.79057813205889   -0.01575270623818    0.06038960446390
N         0.46137567246443    0.53032855906707   -0.17024896073303
C         0.71454757700005    1.84356821523910   -0.51680387876783
C         2.04271192488789    2.05443498638216   -0.67161283643572
C         2.69548057212043    0.81266628474814   -0.41293100676284
C         1.68299803331712   -0.12418708934120   -0.10149752148401
C         2.00317564903840   -1.44102253083982    0.20183374045861
C         3.33698797509415   -1.79884493213815    0.18780782838248
C         4.34099728710323   -0.88061159705879   -0.11863670694257
C         4.03305856419110    0.42772957993822   -0.42058922678041
N        -0.83072380519807   -1.30451463602815    0.38672354116488
C        -2.00199576469231   -1.86802841916796    0.61566626715273
C        -3.20659042114448   -1.19602750872772    0.53719312967050
H        -5.23400277865531    0.52683191581089    0.69833802601354
H        -4.79509652318391    0.92220847846920   -0.96283611220971
H        -4.28787633641101    1.98445196011159    0.34873801493176
H        -1.92581425928107    1.79380644808540   -0.30577586610277
H        -0.07868809299242    2.55461478153412   -0.63244017942947
H         2.51560441412114    2.97900968713745   -0.93802440003037
H         1.23232238558577   -2.15343913264854    0.43905912270145
H         3.61146287603685   -2.81740643707453    0.42040562680084
H         5.37158024668583   -1.20478639346722   -0.11775489850881
H         4.80388953503732    1.14564102278190   -0.65905532029240
H        -1.96178416855576   -2.91757488161513    0.87733348393360
H        -4.13777543220318   -1.70292192454474    0.73523612933734
28
 energy: -41.958026548204 gnorm: 0.001499376977 xtb: 6.3.3 (4ae9cef)
C        -4.45208539598590    0.94059912832377    0.07286709017414
C        -3.18561833657689    0.15374118773841    0.19880822084024
C        -1.95998678981796    0.75128100027607   -0.04252820106184
C        -0.78986768065725   -0.01125786317413    0.05941974364125
N         0.46176999763566    0.53568744125219   -0.17182314825066
C         0.71728438639814    1.84858728403194   -0.51865928975566
C         2.04620986411949    2.05667568426678   -0.67255225826850
C         2.69672913919449    0.81369752079501   -0.41321127845384
C         1.68251466973204   -0.12079668817714   -0.10248482698686
C         1.99891276469996   -1.43853279324914    0.20125482861444
C         3.33156159525343   -1.79972941144750    0.18835987451132
C         4.33786394557273   -0.88383037859954   -0.11735191331349
C         4.03368049783173    0.42511262935883   -0.41966599009018
N        -0.82816320451866   -1.30026720807910    0.38493178227054
C        -1.99763610350794   -1.86687442881823    0.61466996248618
C        -3.20355954279372   -1.19758991591371    0.53750520757226
H        -5.23446559484298    0.52153526159049    0.70074497070030
H        -4.79739525589834    0.91535116587491   -0.96123201535785
H        -4.29149296050196    1.98056493800736    0.34874987727099
H        -1.92827443457981    1.79596074753831   -0.30479809614516
H        -0.07562436675208    2.56013463857280   -0.63478487651038
H         2.52187347008952    2.98007672891683   -0.93877315335756
H         1.22537301539551   -2.14781870633976    0.43772754985455
H         3.60314740871328   -2.81905517905067    0.42127474947324
H         5.36736148503130   -1.21147343803229   -0.11541735259995
H         4.80682509160925    1.14079024073158   -0.65753542924666
H        -1.95312972102671   -2.91636824488887    0.87559806588950
H        -4.13380794381643   -1.70620134150516    0.73591890609957
28
 energy: -41.958031717736 gnorm: 0.000593853593 xtb: 6.3.3 (4ae9cef)
C        -4.45347615301490    0.94066215987483    0.07313804335713
C        -3.18596052555017    0.15535943360148    0.19842204182438
C        -1.95975204690635    0.75220849695346   -0.04295111020736
C        -0.79038516796669   -0.01116201840668    0.05909283920501
N         0.46195555847634    0.53476855250938   -0.17169566359461
C         0.71784175395559    1.84759102962420   -0.51825595743965
C         2.04652576934679    2.05580875740697   -0.67233434108389
C         2.69701995487582    0.81312433042923   -0.41300594613669
C         1.68276809648116   -0.12176798798616   -0.10203413816194
C         1.99997800015512   -1.43908869947099    0.20147732342802
C         3.33268165038761   -1.79987729504304    0.18836842319265
C         4.33886399404762   -0.88358684320292   -0.11745143724026
C         4.03392961544253    0.42504378673183   -0.41963336174202
N        -0.82830379031726   -1.29974227532199    0.38486152002567
C        -1.99792364039668   -1.86561648156855    0.61437718375197
C        -3.20378224821958   -1.19603067858918    0.53705950193501
H        -5.23412910370984    0.51961525336689    0.70195526521964
H        -4.80033057351167    0.91409075383963   -0.96039357943451
H        -4.29531123053896    1.98100387387866    0.34839200439584
H        -1.92853814647902    1.79693389218583   -0.30509108068834
H        -0.07444975380978    2.55956878271077   -0.63466656486504
H         2.52160295002212    2.97928560141309   -0.93881842433143
H         1.22736563083414   -2.14949724401079    0.43794765504106
H         3.60402499175936   -2.81917660954867    0.42117568039756
H         5.36874065673376   -1.20995692637728   -0.11574448350258
H         4.80718749088778    1.14055448773439   -0.65744691617366
H        -1.95422263145405   -2.91518871864976    0.87512989211693
H        -4.13392110153087   -1.70492741408457    0.73513863071102
28
 energy: -41.958031761477 gnorm: 0.000931961324 xtb: 6.3.3 (4ae9cef)
C        -4.45486050011663    0.94075237713587    0.07351359312985
C        -3.18630176439502    0.15697846239983    0.19804185366898
C        -1.95951908665009    0.75312944214382   -0.04339867394334
C        -0.79090802864968   -0.01108520923471    0.05869178412219
N         0.46213601528765    0.53383179066989   -0.17163819588721
C         0.71839252311014    1.84657267764223   -0.51793972146925
C         2.04683673944402    2.05492528189332   -0.67218191916567
C         2.69730936827302    0.81254551865803   -0.41282263612313
C         1.68301946793206   -0.12274746318317   -0.10161523496058
C         2.00104481773268   -1.43964164712400    0.20171246215043
C         3.33380762091714   -1.80000830475705    0.18844466506308
C         4.33987054369308   -0.88332405969043   -0.11747424574574
C         4.03418144685783    0.42498253958285   -0.41957051233422
N        -0.82845217922592   -1.29924481568715    0.38468389133658
C        -1.99821857923648   -1.86438417118301    0.61398377745731
C        -3.20400815061687   -1.19448257697412    0.53657046441137
H        -5.23375972132300    0.51770802843065    0.70329454690656
H        -4.80331287083505    0.91290849419812   -0.95943393094360
H        -4.29909113894661    1.98145402282573    0.34817672392158
H        -1.92880112154270    1.79791065557977   -0.30536999611547
H        -0.07328437757860    2.55897269507963   -0.63466769714760
H         2.52132672114632    2.97847590010026   -0.93893756945971
H         1.22935996275515   -2.15117281500760    0.43818084057444
H         3.60491178985374   -2.81927097666891    0.42118497076076
H         5.37013006450846   -1.20840916915545   -0.11594738389502
H         4.80755339641176    1.14032927676105   -0.65731678859365
H        -1.95532598820625   -2.91404459267924    0.87452161988398
H        -4.13403697060019   -1.70366136175614    0.73432631239699
