      -----------------------------------------------------------      
     |                   =====================                   |     
     |                           x T B                           |     
     |                   =====================                   |     
     |                         S. Grimme                         |     
     |          Mulliken Center for Theoretical Chemistry        |     
     |                    University of Bonn                     |     
      -----------------------------------------------------------      

   * xtb version 6.3.3 (4ae9cef) compiled by 'conda@95abc7406d43' on 2020-10-14

   xtb is free software: you can redistribute it and/or modify it under
   the terms of the GNU Lesser General Public License as published by
   the Free Software Foundation, either version 3 of the License, or
   (at your option) any later version.
   
   xtb is distributed in the hope that it will be useful,
   but WITHOUT ANY WARRANTY; without even the implied warranty of
   MERCHANTABILITY or FITNESS FOR A PARTICULAR PURPOSE.  See the
   GNU Lesser General Public License for more details.
   
   Cite this work as:
   * C. Bannwarth, E. Caldeweyher, S. Ehlert, A. Hansen, P. Pracht,
     J. Seibert, S. Spicher, S. Grimme, WIREs Comput. Mol. Sci., 2020,
     e01493. DOI: 10.1002/wcms.1493
   
   for GFN2-xTB:
   * S. Grimme, C. Bannwarth, P. Shushkov, J. Chem. Theory Comput., 2017,
     13, 1989-2009. DOI: 10.1021/acs.jctc.7b00118
   for GFN1-xTB:
   * C. Bannwarth, S. Ehlert and S. Grimme., J. Chem. Theory Comput., 2019,
     15, 1652-1671. DOI: 10.1021/acs.jctc.8b01176
   for GFN0-xTB:
   * P. Pracht, E. Caldeweyher, S. Ehlert, S. Grimme, ChemRxiv, 2019, preprint.
     DOI: 10.26434/chemrxiv.8326202.v1
   for GFN-FF:
   * S. Spicher and S. Grimme, Angew. Chem. Int. Ed., 2020, 59, 15665-15673.
     DOI: 10.1002/anie.202004239
   
   for DFT-D4:
   * E. Caldeweyher, C. Bannwarth and S. Grimme, J. Chem. Phys., 2017,
     147, 034112. DOI: 10.1063/1.4993215
   * E. Caldeweyher, S. Ehlert, A. Hansen, H. Neugebauer, S. Spicher,
     C. Bannwarth and S. Grimme, J. Chem. Phys., 2019, 150, 154122.
     DOI: 10.1063/1.5090222
   * E. Caldeweyher, J.-M. Mewes, S. Ehlert and S. Grimme, Phys. Chem. Chem. Phys.
     2020, 22, 8499-8512. DOI: 10.1039/D0CP00502A
   
   for sTDA-xTB:
   * S. Grimme and C. Bannwarth, J. Chem. Phys., 2016, 145, 054103.
     DOI: 10.1063/1.4959605
   
   in the mass-spec context:
   * V. Asgeirsson, C. Bauer and S. Grimme, Chem. Sci., 2017, 8, 4879.
     DOI: 10.1039/c7sc00601b
   * J. Koopman and S. Grimme, ACS Omega 2019, 4, 12, 15120-15133.
     DOI: 10.1021/acsomega.9b02011
   
   for metadynamics refer to:
   * S. Grimme, J. Chem. Theory Comput., 2019, 155, 2847-2862
     DOI: 10.1021/acs.jctc.9b00143
   
   with help from (in alphabetical order)
   C. Bannwarth, F. Bohle, G. Brandenburg, E. Caldeweyher, M. Checinski,
   S. Dohm, S. Ehlert, S. Ehrlich, F. März, H. Neugebauer, J. Pisarek,
   P. Pracht, P. Shushkov, and S. Spicher.
   
 * started run on 2022/03/16 at 21:58:13.638     

           -------------------------------------------------
          |                Calculation Setup                |
           -------------------------------------------------

          program call               : xtb acid_161.xyz --opt --chrg 0 --uhf 0 --gfn 2
          coordinate file            : acid_161.xyz
          omp threads                :                    64
          number of atoms            :                    66
          number of electrons        :                   190
          charge                     :                     0
          spin                       :                   0.0
          first test random number   :      0.55807439396177

   ID    Z sym.   atoms
    1    6 C      1-14, 16-23, 25, 26, 30-37
    2    7 N      15, 29
    3    8 O      24, 27, 28, 38
    4    1 H      39-66

           -------------------------------------------------
          |                 G F N 2 - x T B                 |
           -------------------------------------------------

        Reference                      10.1021/acs.jctc.8b01176
      * Hamiltonian:
        H0-scaling (s, p, d)           1.850000    2.230000    2.230000
        zeta-weighting                 0.500000
      * Dispersion:
        s8                             2.700000
        a1                             0.520000
        a2                             5.000000
        s9                             5.000000
      * Repulsion:
        kExp                           1.500000    1.000000
        rExp                           1.000000
      * Coulomb:
        alpha                          2.000000
        third order                    shell-resolved
        anisotropic                    true
        a3                             3.000000
        a5                             4.000000
        cn-shift                       1.200000
        cn-exp                         4.000000
        max-rad                        5.000000


          ...................................................
          :                      SETUP                      :
          :.................................................:
          :  # basis functions                 180          :
          :  # atomic orbitals                 180          :
          :  # shells                          104          :
          :  # electrons                       190          :
          :  max. iterations                   250          :
          :  Hamiltonian                  GFN2-xTB          :
          :  restarted?                      false          :
          :  GBSA solvation                  false          :
          :  PC potential                    false          :
          :  electronic temp.          300.0000000     K    :
          :  accuracy                    1.0000000          :
          :  -> integral cutoff          0.2500000E+02      :
          :  -> integral neglect         0.1000000E-07      :
          :  -> SCF convergence          0.1000000E-05 Eh   :
          :  -> wf. convergence          0.1000000E-03 e    :
          :  Broyden damping             0.4000000          :
          ...................................................

 iter      E             dE          RMSdq      gap      omega  full diag
   1   -106.3074397 -0.106307E+03  0.443E+00    3.55       0.0  T
   2   -106.4543749 -0.146935E+00  0.254E+00    3.23       1.0  T
   3   -106.4529708  0.140411E-02  0.124E+00    3.70       1.0  T
   4   -106.4719244 -0.189536E-01  0.241E-01    3.09       1.0  T
   5   -106.4745101 -0.258572E-02  0.950E-02    3.16       1.0  T
   6   -106.4748501 -0.340037E-03  0.419E-02    3.17       1.0  T
   7   -106.4748864 -0.363264E-04  0.189E-02    3.17       1.0  T
   8   -106.4748875 -0.104325E-05  0.641E-03    3.18       1.9  T
   9   -106.4748895 -0.202126E-05  0.275E-03    3.18       4.5  T
  10   -106.4748897 -0.155822E-06  0.104E-03    3.18      11.8  T
  11   -106.4748897 -0.239868E-07  0.552E-04    3.18      22.3  T
  12   -106.4748897 -0.390574E-08  0.186E-04    3.18      66.0  T

   *** convergence criteria satisfied after 12 iterations ***

         #    Occupation            Energy/Eh            Energy/eV
      -------------------------------------------------------------
         1        2.0000           -0.7633548             -20.7719
       ...           ...                  ...                  ...
        89        2.0000           -0.4074097             -11.0862
        90        2.0000           -0.4069186             -11.0728
        91        2.0000           -0.4050323             -11.0215
        92        2.0000           -0.3991763             -10.8621
        93        2.0000           -0.3950825             -10.7507
        94        2.0000           -0.3920337             -10.6678
        95        2.0000           -0.3852800             -10.4840 (HOMO)
        96                         -0.2684257              -7.3042 (LUMO)
        97                         -0.2444836              -6.6527
        98                         -0.2405163              -6.5448
        99                         -0.2374014              -6.4600
       100                         -0.2353437              -6.4040
       ...                                ...                  ...
       180                          0.6216643              16.9163
      -------------------------------------------------------------
                  HL-Gap            0.1168542 Eh            3.1798 eV
             Fermi-level           -0.3268529 Eh           -8.8941 eV

 SCC (total)                   0 d,  0 h,  0 min,  0.427 sec
 SCC setup                      ...        0 min,  0.017 sec (  4.086%)
 Dispersion                     ...        0 min,  0.013 sec (  3.101%)
 classical contributions        ...        0 min,  0.020 sec (  4.728%)
 integral evaluation            ...        0 min,  0.070 sec ( 16.325%)
 iterations                     ...        0 min,  0.177 sec ( 41.469%)
 molecular gradient             ...        0 min,  0.128 sec ( 29.886%)
 printout                       ...        0 min,  0.002 sec (  0.384%)

         :::::::::::::::::::::::::::::::::::::::::::::::::::::
         ::                     SUMMARY                     ::
         :::::::::::::::::::::::::::::::::::::::::::::::::::::
         :: total energy            -104.932576238167 Eh    ::
         :: gradient norm              0.091742972235 Eh/a0 ::
         :: HOMO-LUMO gap              3.179765094616 eV    ::
         ::.................................................::
         :: SCC energy              -106.474889691309 Eh    ::
         :: -> isotropic ES            0.123440331333 Eh    ::
         :: -> anisotropic ES          0.008254939496 Eh    ::
         :: -> anisotropic XC          0.049666861829 Eh    ::
         :: -> dispersion             -0.086016457340 Eh    ::
         :: repulsion energy           1.539714815931 Eh    ::
         :: add. restraining           0.000000000000 Eh    ::
         :: total charge               0.000000000000 e     ::
         :::::::::::::::::::::::::::::::::::::::::::::::::::::

      ----------------------------------------------------------- 
     |                   =====================                   |
     |                        A N C O P T                        |
     |                   =====================                   |
     |               Approximate Normal Coordinate               |
     |                Rational Function Optimizer                |
      ----------------------------------------------------------- 

          ...................................................
          :                      SETUP                      :
          :.................................................:
          :   optimization level            normal          :
          :   max. optcycles                   200          :
          :   ANC micro-cycles                  20          :
          :   degrees of freedom               192          :
          :.................................................:
          :   RF solver                   davidson          :
          :   write xtbopt.log                true          :
          :   linear?                        false          :
          :   energy convergence         0.5000000E-05 Eh   :
          :   grad. convergence          0.1000000E-02 Eh/α :
          :   maximium RF displ.         1.0000000          :
          :   Hlow (freq-cutoff)         0.1000000E-01      :
          :   Hmax (freq-cutoff)         5.0000000          :
          :   S6 in model hess.         20.0000000          :
          ...................................................

generating ANC from model Hessian ...
Using Lindh-Hessian (1995)
 Shifting diagonal of input Hessian by    9.8126342781995248E-003
 Lowest  eigenvalues of input Hessian
    0.000000    0.000000    0.000000    0.000000    0.000000    0.000000
    0.010000    0.010028    0.010083    0.010231    0.010362    0.010600
    0.010796    0.010929    0.011057    0.011133    0.011425    0.011745
 Highest eigenvalues
    1.938168    1.980539    1.996139    2.202897    2.247268    2.261887


........................................................................
.............................. CYCLE    1 ..............................
........................................................................
   1   -106.4748897 -0.106475E+03  0.806E-05    3.18       0.0  T
   2   -106.4748897 -0.931664E-10  0.500E-05    3.18     246.1  T
   3   -106.4748897 -0.567155E-10  0.314E-05    3.18     391.8  T
     SCC iter.                  ...        0 min,  0.045 sec
     gradient                   ...        0 min,  0.123 sec
 * total energy  :  -104.9325762 Eh     change       -0.1060883E-08 Eh
   gradient norm :     0.0917412 Eh/α   predicted     0.0000000E+00 (-100.00%)
   displ. norm   :     0.3564299 α      lambda       -0.1911872E-01
   maximum displ.:     0.0982815 α      in ANC's #65, #103, #66, ...

........................................................................
.............................. CYCLE    2 ..............................
........................................................................
   1   -106.5672886 -0.106567E+03  0.178E-01    3.50       0.0  T
   2   -106.5673954 -0.106801E-03  0.109E-01    3.43       1.0  T
   3   -106.5673329  0.624724E-04  0.447E-02    3.44       1.0  T
   4   -106.5674255 -0.925526E-04  0.784E-03    3.42       1.6  T
   5   -106.5674285 -0.306413E-05  0.286E-03    3.42       4.3  T
   6   -106.5674287 -0.179435E-06  0.150E-03    3.42       8.2  T
   7   -106.5674287 -0.134820E-07  0.471E-04    3.42      26.2  T
   8   -106.5674287 -0.633401E-08  0.226E-04    3.42      54.4  T
     SCC iter.                  ...        0 min,  0.123 sec
     gradient                   ...        0 min,  0.136 sec
 * total energy  :  -104.9456535 Eh     change       -0.1307729E-01 Eh
   gradient norm :     0.0317149 Eh/α   predicted    -0.1077380E-01 ( -17.61%)
   displ. norm   :     0.3613897 α      lambda       -0.5843370E-02
   maximum displ.:     0.1271042 α      in ANC's #15, #22, #18, ...

........................................................................
.............................. CYCLE    3 ..............................
........................................................................
   1   -106.6079138 -0.106608E+03  0.123E-01    3.57       0.0  T
   2   -106.6079590 -0.452354E-04  0.761E-02    3.54       1.0  T
   3   -106.6079243  0.346510E-04  0.312E-02    3.55       1.0  T
   4   -106.6079750 -0.506392E-04  0.537E-03    3.54       2.3  T
   5   -106.6079765 -0.146979E-05  0.188E-03    3.53       6.6  T
   6   -106.6079765 -0.287556E-07  0.983E-04    3.53      12.5  T
   7   -106.6079765 -0.816458E-08  0.316E-04    3.54      38.9  T
     SCC iter.                  ...        0 min,  0.104 sec
     gradient                   ...        0 min,  0.130 sec
 * total energy  :  -104.9493038 Eh     change       -0.3650310E-02 Eh
   gradient norm :     0.0126448 Eh/α   predicted    -0.3303266E-02 (  -9.51%)
   displ. norm   :     0.2942780 α      lambda       -0.1453256E-02
   maximum displ.:     0.1530197 α      in ANC's #15, #16, #18, ...

........................................................................
.............................. CYCLE    4 ..............................
........................................................................
   1   -106.6113809 -0.106611E+03  0.728E-02    3.56       0.0  T
   2   -106.6113908 -0.994435E-05  0.440E-02    3.55       1.0  T
   3   -106.6113797  0.111154E-04  0.152E-02    3.55       1.0  T
   4   -106.6113939 -0.142303E-04  0.291E-03    3.55       4.2  T
   5   -106.6113944 -0.442438E-06  0.115E-03    3.55      10.7  T
   6   -106.6113944 -0.658565E-08  0.588E-04    3.55      20.9  T
   7   -106.6113944 -0.487429E-08  0.180E-04    3.55      68.5  T
     SCC iter.                  ...        0 min,  0.108 sec
     gradient                   ...        0 min,  0.130 sec
 * total energy  :  -104.9503435 Eh     change       -0.1039674E-02 Eh
   gradient norm :     0.0091594 Eh/α   predicted    -0.7895717E-03 ( -24.06%)
   displ. norm   :     0.3628351 α      lambda       -0.1021618E-02
   maximum displ.:     0.2008000 α      in ANC's #15, #16, #6, ...

........................................................................
.............................. CYCLE    5 ..............................
........................................................................
   1   -106.6092600 -0.106609E+03  0.796E-02    3.54       0.0  T
   2   -106.6092643 -0.426820E-05  0.471E-02    3.54       1.0  T
   3   -106.6092564  0.791035E-05  0.115E-02    3.55       1.1  T
   4   -106.6092662 -0.986030E-05  0.221E-03    3.55       5.6  T
   5   -106.6092664 -0.114770E-06  0.126E-03    3.54       9.8  T
   6   -106.6092664 -0.573165E-08  0.478E-04    3.54      25.8  T
   7   -106.6092664 -0.765277E-08  0.169E-04    3.54      72.6  T
     SCC iter.                  ...        0 min,  0.103 sec
     gradient                   ...        0 min,  0.135 sec
 * total energy  :  -104.9510598 Eh     change       -0.7163084E-03 Eh
   gradient norm :     0.0074474 Eh/α   predicted    -0.5780687E-03 ( -19.30%)
   displ. norm   :     0.3544638 α      lambda       -0.6366003E-03
   maximum displ.:     0.1973012 α      in ANC's #15, #6, #11, ...

........................................................................
.............................. CYCLE    6 ..............................
........................................................................
   1   -106.6063418 -0.106606E+03  0.763E-02    3.51       0.0  T
   2   -106.6063449 -0.314186E-05  0.450E-02    3.52       1.0  T
   3   -106.6063404  0.449806E-05  0.879E-03    3.52       1.4  T
   4   -106.6063462 -0.578930E-05  0.183E-03    3.53       6.7  T
   5   -106.6063463 -0.527178E-07  0.107E-03    3.52      11.5  T
   6   -106.6063463 -0.136132E-07  0.449E-04    3.52      27.4  T
   7   -106.6063463 -0.340577E-08  0.155E-04    3.52      79.2  T
     SCC iter.                  ...        0 min,  0.107 sec
     gradient                   ...        0 min,  0.141 sec
 * total energy  :  -104.9515228 Eh     change       -0.4630287E-03 Eh
   gradient norm :     0.0073637 Eh/α   predicted    -0.3582951E-03 ( -22.62%)
   displ. norm   :     0.3721960 α      lambda       -0.5134828E-03
   maximum displ.:     0.1836766 α      in ANC's #15, #6, #11, ...

........................................................................
.............................. CYCLE    7 ..............................
........................................................................
   1   -106.6060414 -0.106606E+03  0.759E-02    3.50       0.0  T
   2   -106.6060446 -0.316816E-05  0.449E-02    3.51       1.0  T
   3   -106.6060403  0.428747E-05  0.837E-03    3.51       1.5  T
   4   -106.6060458 -0.552116E-05  0.184E-03    3.51       6.7  T
   5   -106.6060459 -0.906412E-07  0.108E-03    3.51      11.4  T
   6   -106.6060459 -0.147400E-07  0.376E-04    3.51      32.7  T
   7   -106.6060459 -0.296755E-08  0.165E-04    3.51      74.7  T
     SCC iter.                  ...        0 min,  0.106 sec
     gradient                   ...        0 min,  0.126 sec
 * total energy  :  -104.9519088 Eh     change       -0.3859597E-03 Eh
   gradient norm :     0.0065561 Eh/α   predicted    -0.2923196E-03 ( -24.26%)
   displ. norm   :     0.3949023 α      lambda       -0.4569110E-03
   maximum displ.:     0.1740969 α      in ANC's #6, #15, #11, ...

........................................................................
.............................. CYCLE    8 ..............................
........................................................................
   1   -106.6071358 -0.106607E+03  0.785E-02    3.48       0.0  T
   2   -106.6071388 -0.293132E-05  0.464E-02    3.49       1.0  T
   3   -106.6071339  0.487707E-05  0.846E-03    3.49       1.5  T
   4   -106.6071399 -0.606691E-05  0.185E-03    3.49       6.7  T
   5   -106.6071400 -0.103829E-06  0.103E-03    3.49      12.0  T
   6   -106.6071401 -0.981869E-08  0.384E-04    3.49      32.1  T
   7   -106.6071401 -0.362235E-08  0.163E-04    3.49      75.6  T
     SCC iter.                  ...        0 min,  0.104 sec
     gradient                   ...        0 min,  0.162 sec
 * total energy  :  -104.9522672 Eh     change       -0.3583976E-03 Eh
   gradient norm :     0.0067993 Eh/α   predicted    -0.2640921E-03 ( -26.31%)
   displ. norm   :     0.4404334 α      lambda       -0.4649996E-03
   maximum displ.:     0.1997993 α      in ANC's #6, #14, #15, ...

........................................................................
.............................. CYCLE    9 ..............................
........................................................................
   1   -106.6091656 -0.106609E+03  0.855E-02    3.48       0.0  T
   2   -106.6091684 -0.282376E-05  0.504E-02    3.48       1.0  T
   3   -106.6091629  0.553355E-05  0.910E-03    3.48       1.4  T
   4   -106.6091698 -0.687589E-05  0.181E-03    3.48       6.8  T
   5   -106.6091699 -0.787726E-07  0.104E-03    3.48      11.9  T
   6   -106.6091699 -0.885764E-08  0.350E-04    3.48      35.1  T
   7   -106.6091699 -0.387220E-08  0.150E-04    3.48      82.2  T
     SCC iter.                  ...        0 min,  0.106 sec
     gradient                   ...        0 min,  0.142 sec
 * total energy  :  -104.9526311 Eh     change       -0.3638596E-03 Eh
   gradient norm :     0.0061037 Eh/α   predicted    -0.2776214E-03 ( -23.70%)
   displ. norm   :     0.4691786 α      lambda       -0.4083034E-03
   maximum displ.:     0.2147134 α      in ANC's #6, #14, #4, ...

........................................................................
.............................. CYCLE   10 ..............................
........................................................................
   1   -106.6092730 -0.106609E+03  0.923E-02    3.45       0.0  T
   2   -106.6092766 -0.358471E-05  0.543E-02    3.46       1.0  T
   3   -106.6092697  0.688595E-05  0.104E-02    3.46       1.2  T
   4   -106.6092782 -0.851524E-05  0.192E-03    3.46       6.4  T
   5   -106.6092783 -0.861940E-07  0.108E-03    3.46      11.4  T
   6   -106.6092783 -0.728519E-08  0.471E-04    3.46      26.1  T
   7   -106.6092783 -0.642929E-08  0.156E-04    3.46      78.9  T
     SCC iter.                  ...        0 min,  0.113 sec
     gradient                   ...        0 min,  0.127 sec
 * total energy  :  -104.9529440 Eh     change       -0.3129651E-03 Eh
   gradient norm :     0.0054811 Eh/α   predicted    -0.2490921E-03 ( -20.41%)
   displ. norm   :     0.4230399 α      lambda       -0.3116929E-03
   maximum displ.:     0.1902144 α      in ANC's #6, #14, #4, ...

........................................................................
.............................. CYCLE   11 ..............................
........................................................................
   1   -106.6100512 -0.106610E+03  0.844E-02    3.47       0.0  T
   2   -106.6100549 -0.373144E-05  0.496E-02    3.47       1.0  T
   3   -106.6100489  0.606489E-05  0.106E-02    3.47       1.2  T
   4   -106.6100564 -0.755327E-05  0.177E-03    3.47       7.0  T
   5   -106.6100565 -0.993346E-07  0.961E-04    3.47      12.8  T
   6   -106.6100565 -0.673644E-08  0.358E-04    3.47      34.4  T
     SCC iter.                  ...        0 min,  0.093 sec
     gradient                   ...        0 min,  0.137 sec
 * total energy  :  -104.9531607 Eh     change       -0.2166602E-03 Eh
   gradient norm :     0.0048589 Eh/α   predicted    -0.1837427E-03 ( -15.19%)
   displ. norm   :     0.3991763 α      lambda       -0.1914684E-03
   maximum displ.:     0.1780965 α      in ANC's #6, #4, #14, ...

........................................................................
.............................. CYCLE   12 ..............................
........................................................................
   1   -106.6066404 -0.106607E+03  0.836E-02    3.41       0.0  T
   2   -106.6066455 -0.508172E-05  0.492E-02    3.42       1.0  T
   3   -106.6066378  0.773185E-05  0.116E-02    3.42       1.1  T
   4   -106.6066473 -0.954065E-05  0.199E-03    3.42       6.2  T
   5   -106.6066474 -0.111931E-06  0.108E-03    3.42      11.4  T
   6   -106.6066474 -0.144223E-07  0.555E-04    3.42      22.2  T
   7   -106.6066474 -0.452046E-08  0.176E-04    3.42      70.0  T
     SCC iter.                  ...        0 min,  0.104 sec
     gradient                   ...        0 min,  0.126 sec
 * total energy  :  -104.9532671 Eh     change       -0.1064468E-03 Eh
   gradient norm :     0.0073233 Eh/α   predicted    -0.1109888E-03 (   4.27%)
   displ. norm   :     0.2115499 α      lambda       -0.1543284E-03
   maximum displ.:     0.0860096 α      in ANC's #4, #14, #1, ...

........................................................................
.............................. CYCLE   13 ..............................
........................................................................
   1   -106.6097989 -0.106610E+03  0.456E-02    3.46       0.0  T
   2   -106.6098018 -0.284761E-05  0.268E-02    3.45       1.0  T
   3   -106.6097995  0.224098E-05  0.809E-03    3.45       1.5  T
   4   -106.6098026 -0.302012E-05  0.114E-03    3.45      10.8  T
   5   -106.6098026 -0.648242E-07  0.534E-04    3.45      23.0  T
   6   -106.6098026 -0.333289E-08  0.238E-04    3.45      51.7  T
     SCC iter.                  ...        0 min,  0.090 sec
     gradient                   ...        0 min,  0.126 sec
 * total energy  :  -104.9533668 Eh     change       -0.9964860E-04 Eh
   gradient norm :     0.0033593 Eh/α   predicted    -0.8062346E-04 ( -19.09%)
   displ. norm   :     0.2337303 α      lambda       -0.1145773E-03
   maximum displ.:     0.0968188 α      in ANC's #4, #1, #12, ...

........................................................................
.............................. CYCLE   14 ..............................
........................................................................
   1   -106.6099236 -0.106610E+03  0.524E-02    3.45       0.0  T
   2   -106.6099250 -0.140292E-05  0.308E-02    3.45       1.0  T
   3   -106.6099221  0.292053E-05  0.682E-03    3.45       1.8  T
   4   -106.6099257 -0.353748E-05  0.976E-04    3.45      12.6  T
   5   -106.6099257 -0.271126E-07  0.527E-04    3.45      23.4  T
   6   -106.6099257 -0.209921E-08  0.231E-04    3.45      53.3  T
     SCC iter.                  ...        0 min,  0.089 sec
     gradient                   ...        0 min,  0.132 sec
 * total energy  :  -104.9534619 Eh     change       -0.9513012E-04 Eh
   gradient norm :     0.0041313 Eh/α   predicted    -0.6042037E-04 ( -36.49%)
   displ. norm   :     0.3786989 α      lambda       -0.2168665E-03
   maximum displ.:     0.1463245 α      in ANC's #4, #2, #1, ...

........................................................................
.............................. CYCLE   15 ..............................
........................................................................
   1   -106.6110533 -0.106611E+03  0.871E-02    3.43       0.0  T
   2   -106.6110585 -0.519536E-05  0.511E-02    3.44       1.0  T
   3   -106.6110503  0.816867E-05  0.117E-02    3.43       1.0  T
   4   -106.6110602 -0.992002E-05  0.188E-03    3.44       6.5  T
   5   -106.6110604 -0.171331E-06  0.892E-04    3.44      13.8  T
   6   -106.6110604 -0.378385E-08  0.416E-04    3.44      29.6  T
     SCC iter.                  ...        0 min,  0.107 sec
     gradient                   ...        0 min,  0.139 sec
 * total energy  :  -104.9536247 Eh     change       -0.1628287E-03 Eh
   gradient norm :     0.0049726 Eh/α   predicted    -0.1239842E-03 ( -23.86%)
   displ. norm   :     0.4091670 α      lambda       -0.1892625E-03
   maximum displ.:     0.1655452 α      in ANC's #11, #2, #1, ...

........................................................................
.............................. CYCLE   16 ..............................
........................................................................
   1   -106.6099086 -0.106610E+03  0.953E-02    3.43       0.0  T
   2   -106.6099130 -0.441522E-05  0.560E-02    3.43       1.0  T
   3   -106.6099036  0.933921E-05  0.123E-02    3.43       1.0  T
   4   -106.6099149 -0.113183E-04  0.167E-03    3.43       7.4  T
   5   -106.6099150 -0.423713E-07  0.880E-04    3.43      14.0  T
   6   -106.6099150 -0.118955E-07  0.419E-04    3.43      29.4  T
     SCC iter.                  ...        0 min,  0.097 sec
     gradient                   ...        0 min,  0.166 sec
 * total energy  :  -104.9537556 Eh     change       -0.1308242E-03 Eh
   gradient norm :     0.0057360 Eh/α   predicted    -0.1104768E-03 ( -15.55%)
   displ. norm   :     0.3568211 α      lambda       -0.1657489E-03
   maximum displ.:     0.1716513 α      in ANC's #11, #2, #1, ...

........................................................................
.............................. CYCLE   17 ..............................
........................................................................
   1   -106.6102435 -0.106610E+03  0.814E-02    3.43       0.0  T
   2   -106.6102474 -0.390301E-05  0.477E-02    3.42       1.0  T
   3   -106.6102425  0.493915E-05  0.927E-03    3.42       1.3  T
   4   -106.6102485 -0.602518E-05  0.173E-03    3.42       7.1  T
   5   -106.6102487 -0.148112E-06  0.769E-04    3.42      16.0  T
   6   -106.6102487 -0.208948E-08  0.353E-04    3.42      34.8  T
     SCC iter.                  ...        0 min,  0.093 sec
     gradient                   ...        0 min,  0.128 sec
 * total energy  :  -104.9538776 Eh     change       -0.1220369E-03 Eh
   gradient norm :     0.0041940 Eh/α   predicted    -0.9342790E-04 ( -23.44%)
   displ. norm   :     0.3685618 α      lambda       -0.1479517E-03
   maximum displ.:     0.1654591 α      in ANC's #11, #2, #1, ...

........................................................................
.............................. CYCLE   18 ..............................
........................................................................
   1   -106.6099953 -0.106610E+03  0.816E-02    3.42       0.0  T
   2   -106.6099975 -0.219802E-05  0.479E-02    3.42       1.0  T
   3   -106.6099922  0.526626E-05  0.917E-03    3.42       1.3  T
   4   -106.6099986 -0.636912E-05  0.125E-03    3.42       9.8  T
   5   -106.6099986 -0.268805E-07  0.689E-04    3.42      17.9  T
   6   -106.6099986 -0.340022E-08  0.323E-04    3.42      38.1  T
     SCC iter.                  ...        0 min,  0.088 sec
     gradient                   ...        0 min,  0.142 sec
 * total energy  :  -104.9539913 Eh     change       -0.1137396E-03 Eh
   gradient norm :     0.0040653 Eh/α   predicted    -0.8402979E-04 ( -26.12%)
   displ. norm   :     0.3478594 α      lambda       -0.1390497E-03
   maximum displ.:     0.1669363 α      in ANC's #2, #1, #11, ...

........................................................................
.............................. CYCLE   19 ..............................
........................................................................
   1   -106.6101118 -0.106610E+03  0.752E-02    3.43       0.0  T
   2   -106.6101137 -0.185180E-05  0.442E-02    3.42       1.0  T
   3   -106.6101097  0.404358E-05  0.807E-03    3.42       1.5  T
   4   -106.6101145 -0.484983E-05  0.113E-03    3.42      10.9  T
   5   -106.6101145 -0.300740E-07  0.580E-04    3.42      21.2  T
   6   -106.6101145 -0.340360E-08  0.288E-04    3.42      42.7  T
     SCC iter.                  ...        0 min,  0.090 sec
     gradient                   ...        0 min,  0.136 sec
 * total energy  :  -104.9540953 Eh     change       -0.1039136E-03 Eh
   gradient norm :     0.0048401 Eh/α   predicted    -0.7793993E-04 ( -25.00%)
   displ. norm   :     0.3604052 α      lambda       -0.1287627E-03
   maximum displ.:     0.1774884 α      in ANC's #2, #1, #10, ...

........................................................................
.............................. CYCLE   20 ..............................
........................................................................
   1   -106.6093313 -0.106609E+03  0.769E-02    3.41       0.0  T
   2   -106.6093330 -0.174325E-05  0.452E-02    3.42       1.0  T
   3   -106.6093282  0.484654E-05  0.868E-03    3.42       1.4  T
   4   -106.6093339 -0.570355E-05  0.104E-03    3.42      11.8  T
   5   -106.6093339 -0.291349E-07  0.557E-04    3.42      22.1  T
   6   -106.6093339 -0.533166E-08  0.283E-04    3.42      43.4  T
     SCC iter.                  ...        0 min,  0.088 sec
     gradient                   ...        0 min,  0.118 sec
 * total energy  :  -104.9541957 Eh     change       -0.1004234E-03 Eh
   gradient norm :     0.0053603 Eh/α   predicted    -0.7274702E-04 ( -27.56%)
   displ. norm   :     0.3823801 α      lambda       -0.1660466E-03
   maximum displ.:     0.1952493 α      in ANC's #2, #1, #10, ...
 * RMSD in coord.:     0.6334824 α      energy gain  -0.2161944E-01 Eh

generating ANC from model Hessian ...
Using Lindh-Hessian (1995)
 Shifting diagonal of input Hessian by    9.8146619285701311E-003
 Lowest  eigenvalues of input Hessian
    0.000000    0.000000    0.000000    0.000000    0.000000    0.000000
    0.010000    0.010036    0.010112    0.010296    0.010437    0.010686
    0.010895    0.011024    0.011253    0.011309    0.011678    0.011901
 Highest eigenvalues
    2.028987    2.048618    2.055491    2.328126    2.346533    2.399520


........................................................................
.............................. CYCLE   21 ..............................
........................................................................
   1   -106.6124294 -0.106612E+03  0.785E-02    3.44       0.0  T
   2   -106.6124319 -0.251701E-05  0.461E-02    3.43       1.0  T
   3   -106.6124288  0.308727E-05  0.731E-03    3.43       1.7  T
   4   -106.6124325 -0.372326E-05  0.136E-03    3.43       9.1  T
   5   -106.6124326 -0.890706E-07  0.575E-04    3.43      21.4  T
   6   -106.6124326 -0.351203E-08  0.291E-04    3.43      42.4  T
     SCC iter.                  ...        0 min,  0.090 sec
     gradient                   ...        0 min,  0.143 sec
 * total energy  :  -104.9543164 Eh     change       -0.1207554E-03 Eh
   gradient norm :     0.0058327 Eh/α   predicted     0.0000000E+00 (-100.00%)
   displ. norm   :     0.0552119 α      lambda       -0.9396516E-04
   maximum displ.:     0.0239286 α      in ANC's #4, #1, #22, ...

........................................................................
.............................. CYCLE   22 ..............................
........................................................................
   1   -106.6109300 -0.106611E+03  0.153E-02    3.42       0.0  T
   2   -106.6109303 -0.356062E-06  0.901E-03    3.42       1.4  T
   3   -106.6109302  0.169799E-06  0.242E-03    3.42       5.1  T
   4   -106.6109304 -0.254790E-06  0.443E-04    3.42      27.8  T
   5   -106.6109304 -0.273037E-08  0.266E-04    3.42      46.3  T
     SCC iter.                  ...        0 min,  0.075 sec
     gradient                   ...        0 min,  0.140 sec
 * total energy  :  -104.9543888 Eh     change       -0.7237463E-04 Eh
   gradient norm :     0.0025495 Eh/α   predicted    -0.4716468E-04 ( -34.83%)
   displ. norm   :     0.1259759 α      lambda       -0.1069541E-03
   maximum displ.:     0.0598972 α      in ANC's #4, #1, #3, ...

........................................................................
.............................. CYCLE   23 ..............................
........................................................................
   1   -106.6098009 -0.106610E+03  0.270E-02    3.41       0.0  T
   2   -106.6098015 -0.648986E-06  0.159E-02    3.42       1.0  T
   3   -106.6098013  0.241359E-06  0.293E-03    3.42       4.2  T
   4   -106.6098017 -0.410665E-06  0.729E-04    3.42      16.9  T
   5   -106.6098017 -0.757385E-08  0.415E-04    3.42      29.7  T
     SCC iter.                  ...        0 min,  0.079 sec
     gradient                   ...        0 min,  0.125 sec
 * total energy  :  -104.9544607 Eh     change       -0.7190695E-04 Eh
   gradient norm :     0.0029408 Eh/α   predicted    -0.5436138E-04 ( -24.40%)
   displ. norm   :     0.1214584 α      lambda       -0.5686986E-04
   maximum displ.:     0.0613200 α      in ANC's #4, #1, #3, ...

........................................................................
.............................. CYCLE   24 ..............................
........................................................................
   1   -106.6098543 -0.106610E+03  0.231E-02    3.42       0.0  T
   2   -106.6098547 -0.339127E-06  0.135E-02    3.42       1.0  T
   3   -106.6098546  0.552072E-07  0.170E-03    3.42       7.3  T
   4   -106.6098547 -0.138184E-06  0.618E-04    3.42      19.9  T
   5   -106.6098548 -0.101022E-07  0.331E-04    3.42      37.2  T
     SCC iter.                  ...        0 min,  0.076 sec
     gradient                   ...        0 min,  0.137 sec
 * total energy  :  -104.9545067 Eh     change       -0.4600877E-04 Eh
   gradient norm :     0.0036432 Eh/α   predicted    -0.2885840E-04 ( -37.28%)
   displ. norm   :     0.2049055 α      lambda       -0.8845717E-04
   maximum displ.:     0.1045949 α      in ANC's #4, #1, #3, ...

........................................................................
.............................. CYCLE   25 ..............................
........................................................................
   1   -106.6103556 -0.106610E+03  0.390E-02    3.43       0.0  T
   2   -106.6103564 -0.800570E-06  0.228E-02    3.43       1.0  T
   3   -106.6103561  0.319572E-06  0.308E-03    3.43       4.0  T
   4   -106.6103566 -0.537513E-06  0.994E-04    3.43      12.4  T
   5   -106.6103567 -0.291610E-07  0.532E-04    3.43      23.1  T
     SCC iter.                  ...        0 min,  0.075 sec
     gradient                   ...        0 min,  0.141 sec
 * total energy  :  -104.9545768 Eh     change       -0.7011625E-04 Eh
   gradient norm :     0.0035524 Eh/α   predicted    -0.4609862E-04 ( -34.25%)
   displ. norm   :     0.2542941 α      lambda       -0.9501699E-04
   maximum displ.:     0.1327710 α      in ANC's #4, #1, #3, ...

........................................................................
.............................. CYCLE   26 ..............................
........................................................................
   1   -106.6107351 -0.106611E+03  0.496E-02    3.44       0.0  T
   2   -106.6107362 -0.114323E-05  0.291E-02    3.44       1.0  T
   3   -106.6107351  0.109720E-05  0.473E-03    3.44       2.6  T
   4   -106.6107366 -0.146598E-05  0.116E-03    3.44      10.6  T
   5   -106.6107366 -0.413485E-07  0.623E-04    3.44      19.8  T
   6   -106.6107366 -0.283609E-08  0.247E-04    3.44      49.7  T
     SCC iter.                  ...        0 min,  0.097 sec
     gradient                   ...        0 min,  0.138 sec
 * total energy  :  -104.9546507 Eh     change       -0.7389369E-04 Eh
   gradient norm :     0.0030185 Eh/α   predicted    -0.5058089E-04 ( -31.55%)
   displ. norm   :     0.2638116 α      lambda       -0.8492483E-04
   maximum displ.:     0.1405024 α      in ANC's #4, #1, #3, ...

........................................................................
.............................. CYCLE   27 ..............................
........................................................................
   1   -106.6107633 -0.106611E+03  0.535E-02    3.45       0.0  T
   2   -106.6107645 -0.126703E-05  0.314E-02    3.45       1.0  T
   3   -106.6107625  0.204709E-05  0.594E-03    3.45       2.1  T
   4   -106.6107650 -0.249842E-05  0.113E-03    3.45      10.9  T
   5   -106.6107650 -0.497874E-07  0.573E-04    3.45      21.5  T
   6   -106.6107650 -0.193249E-08  0.258E-04    3.45      47.7  T
     SCC iter.                  ...        0 min,  0.089 sec
     gradient                   ...        0 min,  0.098 sec
 * total energy  :  -104.9547175 Eh     change       -0.6672188E-04 Eh
   gradient norm :     0.0025196 Eh/α   predicted    -0.4541875E-04 ( -31.93%)
   displ. norm   :     0.2748890 α      lambda       -0.7985765E-04
   maximum displ.:     0.1474292 α      in ANC's #4, #1, #3, ...

........................................................................
.............................. CYCLE   28 ..............................
........................................................................
   1   -106.6104655 -0.106610E+03  0.576E-02    3.46       0.0  T
   2   -106.6104669 -0.139138E-05  0.338E-02    3.46       1.0  T
   3   -106.6104641  0.283159E-05  0.675E-03    3.45       1.8  T
   4   -106.6104674 -0.335433E-05  0.107E-03    3.45      11.5  T
   5   -106.6104675 -0.517440E-07  0.508E-04    3.45      24.2  T
   6   -106.6104675 -0.254087E-08  0.258E-04    3.45      47.7  T
     SCC iter.                  ...        0 min,  0.090 sec
     gradient                   ...        0 min,  0.125 sec
 * total energy  :  -104.9547819 Eh     change       -0.6443654E-04 Eh
   gradient norm :     0.0025356 Eh/α   predicted    -0.4294874E-04 ( -33.35%)
   displ. norm   :     0.3078039 α      lambda       -0.8621410E-04
   maximum displ.:     0.1640171 α      in ANC's #4, #1, #3, ...

........................................................................
.............................. CYCLE   29 ..............................
........................................................................
   1   -106.6098250 -0.106610E+03  0.662E-02    3.46       0.0  T
   2   -106.6098266 -0.156529E-05  0.389E-02    3.46       1.0  T
   3   -106.6098229  0.370388E-05  0.754E-03    3.46       1.6  T
   4   -106.6098272 -0.434309E-05  0.103E-03    3.46      11.9  T
   5   -106.6098273 -0.469476E-07  0.498E-04    3.46      24.7  T
   6   -106.6098273 -0.407208E-08  0.257E-04    3.46      47.8  T
     SCC iter.                  ...        0 min,  0.090 sec
     gradient                   ...        0 min,  0.122 sec
 * total energy  :  -104.9548525 Eh     change       -0.7060506E-04 Eh
   gradient norm :     0.0030355 Eh/α   predicted    -0.4719179E-04 ( -33.16%)
   displ. norm   :     0.3473285 α      lambda       -0.9528154E-04
   maximum displ.:     0.1840237 α      in ANC's #4, #1, #3, ...

........................................................................
.............................. CYCLE   30 ..............................
........................................................................
   1   -106.6089443 -0.106609E+03  0.751E-02    3.46       0.0  T
   2   -106.6089459 -0.153467E-05  0.441E-02    3.46       1.0  T
   3   -106.6089415  0.434254E-05  0.806E-03    3.46       1.5  T
   4   -106.6089466 -0.509266E-05  0.958E-04    3.46      12.8  T
   5   -106.6089466 -0.276432E-07  0.520E-04    3.46      23.7  T
   6   -106.6089467 -0.620409E-08  0.249E-04    3.46      49.5  T
     SCC iter.                  ...        0 min,  0.094 sec
     gradient                   ...        0 min,  0.117 sec
 * total energy  :  -104.9549328 Eh     change       -0.8025695E-04 Eh
   gradient norm :     0.0035040 Eh/α   predicted    -0.5339208E-04 ( -33.47%)
   displ. norm   :     0.3570697 α      lambda       -0.1034843E-03
   maximum displ.:     0.1890362 α      in ANC's #4, #1, #3, ...

........................................................................
.............................. CYCLE   31 ..............................
........................................................................
   1   -106.6084553 -0.106608E+03  0.769E-02    3.46       0.0  T
   2   -106.6084566 -0.137713E-05  0.451E-02    3.45       1.0  T
   3   -106.6084528  0.384027E-05  0.764E-03    3.45       1.6  T
   4   -106.6084573 -0.454056E-05  0.908E-04    3.45      13.6  T
   5   -106.6084574 -0.162156E-07  0.516E-04    3.45      23.9  T
   6   -106.6084574 -0.756988E-08  0.222E-04    3.45      55.5  T
     SCC iter.                  ...        0 min,  0.089 sec
     gradient                   ...        0 min,  0.129 sec
 * total energy  :  -104.9550229 Eh     change       -0.9010366E-04 Eh
   gradient norm :     0.0034706 Eh/α   predicted    -0.5834213E-04 ( -35.25%)
   displ. norm   :     0.3902511 α      lambda       -0.1252399E-03
   maximum displ.:     0.2051327 α      in ANC's #4, #1, #11, ...

........................................................................
.............................. CYCLE   32 ..............................
........................................................................
   1   -106.6085941 -0.106609E+03  0.838E-02    3.45       0.0  T
   2   -106.6085957 -0.162999E-05  0.492E-02    3.45       1.0  T
   3   -106.6085919  0.383342E-05  0.781E-03    3.45       1.6  T
   4   -106.6085965 -0.459910E-05  0.101E-03    3.45      12.1  T
   5   -106.6085965 -0.193969E-07  0.560E-04    3.45      22.0  T
   6   -106.6085965 -0.653699E-08  0.250E-04    3.45      49.3  T
     SCC iter.                  ...        0 min,  0.090 sec
     gradient                   ...        0 min,  0.147 sec
 * total energy  :  -104.9551289 Eh     change       -0.1060151E-03 Eh
   gradient norm :     0.0029267 Eh/α   predicted    -0.7215921E-04 ( -31.93%)
   displ. norm   :     0.4425530 α      lambda       -0.1322798E-03
   maximum displ.:     0.2312177 α      in ANC's #4, #1, #11, ...

........................................................................
.............................. CYCLE   33 ..............................
........................................................................
   1   -106.6085707 -0.106609E+03  0.953E-02    3.45       0.0  T
   2   -106.6085729 -0.222489E-05  0.559E-02    3.44       1.0  T
   3   -106.6085681  0.482479E-05  0.890E-03    3.44       1.4  T
   4   -106.6085739 -0.582130E-05  0.120E-03    3.44      10.3  T
   5   -106.6085739 -0.308114E-07  0.644E-04    3.44      19.1  T
   6   -106.6085739 -0.499969E-08  0.305E-04    3.44      40.4  T
     SCC iter.                  ...        0 min,  0.092 sec
     gradient                   ...        0 min,  0.122 sec
 * total energy  :  -104.9552336 Eh     change       -0.1046741E-03 Eh
   gradient norm :     0.0025848 Eh/α   predicted    -0.7910091E-04 ( -24.43%)
   displ. norm   :     0.4420716 α      lambda       -0.1027692E-03
   maximum displ.:     0.2294361 α      in ANC's #4, #1, #11, ...

........................................................................
.............................. CYCLE   34 ..............................
........................................................................
   1   -106.6086148 -0.106609E+03  0.952E-02    3.44       0.0  T
   2   -106.6086171 -0.221724E-05  0.558E-02    3.44       1.0  T
   3   -106.6086120  0.506906E-05  0.913E-03    3.43       1.3  T
   4   -106.6086181 -0.611148E-05  0.120E-03    3.44      10.3  T
   5   -106.6086181 -0.273284E-07  0.650E-04    3.44      18.9  T
   6   -106.6086181 -0.392566E-08  0.317E-04    3.44      38.9  T
     SCC iter.                  ...        0 min,  0.091 sec
     gradient                   ...        0 min,  0.108 sec
 * total energy  :  -104.9553068 Eh     change       -0.7326747E-04 Eh
   gradient norm :     0.0024764 Eh/α   predicted    -0.6142732E-04 ( -16.16%)
   displ. norm   :     0.2781128 α      lambda       -0.4997580E-04
   maximum displ.:     0.1460566 α      in ANC's #4, #1, #11, ...

........................................................................
.............................. CYCLE   35 ..............................
........................................................................
   1   -106.6091368 -0.106609E+03  0.589E-02    3.43       0.0  T
   2   -106.6091376 -0.760228E-06  0.346E-02    3.43       1.0  T
   3   -106.6091356  0.204435E-05  0.578E-03    3.43       2.1  T
   4   -106.6091380 -0.245212E-05  0.680E-04    3.43      18.1  T
   5   -106.6091380 -0.555809E-08  0.386E-04    3.43      31.9  T
   6   -106.6091380 -0.214821E-08  0.184E-04    3.43      66.8  T
     SCC iter.                  ...        0 min,  0.093 sec
     gradient                   ...        0 min,  0.131 sec
 * total energy  :  -104.9553440 Eh     change       -0.3714628E-04 Eh
   gradient norm :     0.0019149 Eh/α   predicted    -0.2692181E-04 ( -27.52%)
   displ. norm   :     0.3320657 α      lambda       -0.3854278E-04
   maximum displ.:     0.1815190 α      in ANC's #1, #4, #3, ...

........................................................................
.............................. CYCLE   36 ..............................
........................................................................
   1   -106.6097192 -0.106610E+03  0.679E-02    3.43       0.0  T
   2   -106.6097202 -0.103569E-05  0.399E-02    3.43       1.0  T
   3   -106.6097173  0.289099E-05  0.693E-03    3.42       1.8  T
   4   -106.6097208 -0.344991E-05  0.808E-04    3.43      15.2  T
   5   -106.6097208 -0.126313E-07  0.450E-04    3.42      27.3  T
   6   -106.6097208 -0.239434E-08  0.193E-04    3.43      63.8  T
     SCC iter.                  ...        0 min,  0.089 sec
     gradient                   ...        0 min,  0.138 sec
 * total energy  :  -104.9553805 Eh     change       -0.3651532E-04 Eh
   gradient norm :     0.0014805 Eh/α   predicted    -0.2022482E-04 ( -44.61%)
   displ. norm   :     0.1491990 α      lambda       -0.1827390E-04
   maximum displ.:     0.0852461 α      in ANC's #1, #4, #8, ...

........................................................................
.............................. CYCLE   37 ..............................
........................................................................
   1   -106.6098498 -0.106610E+03  0.258E-02    3.42       0.0  T
   2   -106.6098501 -0.304140E-06  0.152E-02    3.42       1.0  T
   3   -106.6098497  0.387659E-06  0.269E-03    3.42       4.6  T
   4   -106.6098501 -0.471797E-06  0.507E-04    3.42      24.3  T
   5   -106.6098502 -0.121234E-07  0.222E-04    3.42      55.5  T
     SCC iter.                  ...        0 min,  0.080 sec
     gradient                   ...        0 min,  0.154 sec
 * total energy  :  -104.9554026 Eh     change       -0.2216207E-04 Eh
   gradient norm :     0.0012340 Eh/α   predicted    -0.9227958E-05 ( -58.36%)
   displ. norm   :     0.2009799 α      lambda       -0.2494522E-04
   maximum displ.:     0.1109550 α      in ANC's #1, #8, #4, ...

........................................................................
.............................. CYCLE   38 ..............................
........................................................................
   1   -106.6098050 -0.106610E+03  0.321E-02    3.42       0.0  T
   2   -106.6098054 -0.402151E-06  0.188E-02    3.42       1.0  T
   3   -106.6098049  0.442479E-06  0.289E-03    3.42       4.3  T
   4   -106.6098055 -0.558965E-06  0.596E-04    3.42      20.7  T
   5   -106.6098055 -0.140112E-07  0.287E-04    3.42      42.8  T
     SCC iter.                  ...        0 min,  0.076 sec
     gradient                   ...        0 min,  0.125 sec
 * total energy  :  -104.9554313 Eh     change       -0.2868082E-04 Eh
   gradient norm :     0.0014510 Eh/α   predicted    -0.1269953E-04 ( -55.72%)
   displ. norm   :     0.2181051 α      lambda       -0.2339613E-04
   maximum displ.:     0.1186892 α      in ANC's #1, #8, #7, ...

........................................................................
.............................. CYCLE   39 ..............................
........................................................................
   1   -106.6105755 -0.106611E+03  0.346E-02    3.42       0.0  T
   2   -106.6105759 -0.494083E-06  0.202E-02    3.42       1.0  T
   3   -106.6105757  0.280703E-06  0.245E-03    3.42       5.0  T
   4   -106.6105761 -0.389975E-06  0.621E-04    3.42      19.8  T
   5   -106.6105761 -0.165153E-07  0.308E-04    3.42      40.0  T
     SCC iter.                  ...        0 min,  0.075 sec
     gradient                   ...        0 min,  0.148 sec
 * total energy  :  -104.9554554 Eh     change       -0.2407801E-04 Eh
   gradient norm :     0.0021520 Eh/α   predicted    -0.1194742E-04 ( -50.38%)
   displ. norm   :     0.1988470 α      lambda       -0.2529542E-04
   maximum displ.:     0.1100194 α      in ANC's #1, #8, #4, ...

........................................................................
.............................. CYCLE   40 ..............................
........................................................................
   1   -106.6085831 -0.106609E+03  0.362E-02    3.41       0.0  T
   2   -106.6085835 -0.399322E-06  0.212E-02    3.41       1.0  T
   3   -106.6085830  0.461658E-06  0.282E-03    3.41       4.4  T
   4   -106.6085836 -0.571331E-06  0.611E-04    3.41      20.1  T
   5   -106.6085836 -0.173408E-07  0.280E-04    3.41      43.9  T
     SCC iter.                  ...        0 min,  0.081 sec
     gradient                   ...        0 min,  0.144 sec
 * total energy  :  -104.9554707 Eh     change       -0.1532858E-04 Eh
   gradient norm :     0.0015221 Eh/α   predicted    -0.1314845E-04 ( -14.22%)
   displ. norm   :     0.2248318 α      lambda       -0.2005573E-04
   maximum displ.:     0.1157989 α      in ANC's #1, #8, #7, ...

........................................................................
.............................. CYCLE   41 ..............................
........................................................................
   1   -106.6104275 -0.106610E+03  0.412E-02    3.41       0.0  T
   2   -106.6104284 -0.880101E-06  0.241E-02    3.41       1.0  T
   3   -106.6104278  0.663564E-06  0.348E-03    3.41       3.5  T
   4   -106.6104286 -0.836944E-06  0.876E-04    3.41      14.0  T
   5   -106.6104286 -0.442171E-07  0.382E-04    3.41      32.2  T
     SCC iter.                  ...        0 min,  0.077 sec
     gradient                   ...        0 min,  0.058 sec
 * total energy  :  -104.9554853 Eh     change       -0.1458914E-04 Eh
   gradient norm :     0.0017517 Eh/α   predicted    -0.1025969E-04 ( -29.68%)
   displ. norm   :     0.1066955 α      lambda       -0.1196634E-04
   maximum displ.:     0.0597008 α      in ANC's #1, #8, #10, ...

........................................................................
.............................. CYCLE   42 ..............................
........................................................................
   1   -106.6098309 -0.106610E+03  0.230E-02    3.41       0.0  T
   2   -106.6098310 -0.141617E-06  0.135E-02    3.41       1.0  T
   3   -106.6098308  0.179296E-06  0.172E-03    3.41       7.2  T
   4   -106.6098311 -0.238208E-06  0.379E-04    3.41      32.5  T
   5   -106.6098311 -0.318458E-08  0.214E-04    3.41      57.6  T
     SCC iter.                  ...        0 min,  0.079 sec
     gradient                   ...        0 min,  0.113 sec
 * total energy  :  -104.9554951 Eh     change       -0.9828970E-05 Eh
   gradient norm :     0.0009258 Eh/α   predicted    -0.6014829E-05 ( -38.81%)
   displ. norm   :     0.0372428 α      lambda       -0.4967284E-05
   maximum displ.:     0.0223249 α      in ANC's #11, #10, #8, ...
 * RMSD in coord.:     0.5761636 α      energy gain  -0.1299466E-02 Eh

generating ANC from model Hessian ...
Using Lindh-Hessian (1995)
 Shifting diagonal of input Hessian by    9.8119901256321883E-003
 Lowest  eigenvalues of input Hessian
    0.000000    0.000000    0.000000    0.000000    0.000000    0.000000
    0.010000    0.010022    0.010113    0.010347    0.010449    0.010687
    0.010888    0.010958    0.011189    0.011360    0.011787    0.011968
 Highest eigenvalues
    2.028873    2.051575    2.055120    2.317747    2.337177    2.392832


........................................................................
.............................. CYCLE   43 ..............................
........................................................................
   1   -106.6099586 -0.106610E+03  0.924E-03    3.41       0.0  T
   2   -106.6099586 -0.347562E-07  0.542E-03    3.41       2.3  T
   3   -106.6099585  0.517178E-07  0.993E-04    3.41      12.4  T
   4   -106.6099586 -0.666211E-07  0.186E-04    3.41      66.1  T
     SCC iter.                  ...        0 min,  0.061 sec
     gradient                   ...        0 min,  0.146 sec
 * total energy  :  -104.9555000 Eh     change       -0.4887558E-05 Eh
   gradient norm :     0.0007762 Eh/α   predicted     0.0000000E+00 (-100.00%)
   displ. norm   :     0.0194763 α      lambda       -0.3260508E-05
   maximum displ.:     0.0089948 α      in ANC's #1, #11, #5, ...

   *** GEOMETRY OPTIMIZATION CONVERGED AFTER 43 ITERATIONS ***

------------------------------------------------------------------------
 total energy gain   :        -0.0229238 Eh      -14.3849 kcal/mol
 total RMSD          :         1.0161624 a0        0.5377 Å
 total power (kW/mol):        -1.3996842 (step)   -3.8680 (real)
------------------------------------------------------------------------

 ANCopt (total)                0 d,  0 h,  0 min, 15.560 sec
 optimizer setup                ...        0 min,  0.000 sec (  0.002%)
 model hessian                  ...        0 min,  0.104 sec (  0.670%)
 ANC generation                 ...        0 min,  0.033 sec (  0.209%)
 coordinate transformation      ...        0 min,  0.003 sec (  0.019%)
 single point calculation       ...        0 min, 14.817 sec ( 95.224%)
 optimization log               ...        0 min,  0.041 sec (  0.267%)
 hessian update                 ...        0 min,  0.522 sec (  3.352%)
 rational function              ...        0 min,  0.015 sec (  0.095%)

================
 final structure:
================
66
 xtb: 6.3.3 (4ae9cef)
C         0.51889840162052   -2.39468875705842    1.19570064873975
C         0.59304687032734   -3.56540459843193    1.92748738809355
C         0.45782974727216   -4.78965733993065    1.29465727383440
C         0.25171028752110   -4.83826773400349   -0.07307624126735
C         0.17647102545437   -3.66704961522011   -0.80604655376084
C         0.30729961423157   -2.43787346122517   -0.17731522899256
C         0.21048383693832   -1.15667947533700   -0.96604534564022
C        -1.03058390987569   -0.31648466262191   -0.55756679734171
C        -1.79830792574548    0.19928397319127   -1.75366950739439
C        -2.03505338645044    1.55237100391317   -1.95107638420155
C        -2.74738772206717    1.98392450124943   -3.05798569631434
C        -3.23821814347998    1.06852867636867   -3.97181231637973
C        -3.02177133287590   -0.28468787168340   -3.77009648625207
C        -2.30849073058863   -0.71628491693466   -2.66738756931852
N        -0.47197743614040    0.73833210153866    0.26785951172675
C        -0.78070337876733    0.95614045619518    1.58880425985615
C        -2.11558787115667    0.49330040075959    2.04650453651265
C        -3.28005774137121    0.68100966884479    1.30831209640754
C        -4.49778478899819    0.28130996647730    1.82437675554361
C        -4.58680555175794   -0.31484304707947    3.07731724519427
C        -5.91097646795123   -0.76035027398297    3.61513087150125
C        -3.42020025643867   -0.49354422009891    3.81161434321014
C        -2.20047029284369   -0.08556157238897    3.30965423590379
O         0.00088098584867    1.51352742471238    2.33259366376639
C         0.88396758083161    0.99414680951044   -0.16740575902258
C         0.91853086982175    2.08636998772669   -1.25059766355644
O         1.06245029517188    1.58027633205315   -2.47424533941934
O         0.82550564392861    3.25948383019306   -1.02440748162122
N         1.33439631319176   -0.28092712110851   -0.66496981697436
C         2.57557056160606   -0.56403578283475   -1.14467365596693
C         3.61533971959328    0.45158161070106   -0.80505982097102
C         4.29820937003704    1.10128628360286   -1.82409006334239
C         5.27321472023372    2.03478079406991   -1.52335670168702
C         5.60030372834386    2.32320758413098   -0.20485603920364
C         6.64102668306554    3.34785711245479    0.12616497412032
C         4.93078869658178    1.64741907902367    0.80972357317485
C         3.94685929360057    0.72311467020115    0.51790767820938
O         2.80090522630074   -1.57383766739470   -1.77816346655616
H         0.63333073574733   -1.44242261818495    1.69376786378990
H         0.76057512198097   -3.52223865959143    2.99356548827704
H         0.51965528340128   -5.70383134823020    1.86622715735280
H         0.15488693931145   -5.79109442811188   -0.57208442070412
H         0.02985684095652   -3.70628719004214   -1.87531595262807
H         0.20930272684614   -1.38223092206294   -2.03853423784950
H        -1.70523488647598   -0.93128096746450    0.04975312875934
H        -1.66836563686513    2.27597193791048   -1.23763554153361
H        -2.91998628620649    3.04032445996949   -3.20066970729085
H        -3.79357037950156    1.40637916795032   -4.83393944157893
H        -3.41250922588321   -1.00557985766143   -4.47275474767405
H        -2.15035926602636   -1.77254281079628   -2.50497128813570
H        -3.24057997311676    1.16132474535001    0.34308388836594
H        -5.39662385658031    0.44027661820528    1.24657981845712
H        -6.69868651067300   -0.06945645772863    3.32318808785945
H        -6.16262359419314   -1.74312281851882    3.21512717841542
H        -5.88646787414159   -0.83244748717866    4.69949044776614
H        -3.47081440179252   -0.94641816236967    4.79125642675370
H        -1.29825655705337   -0.20671878929829    3.89012578959720
H         1.45562680953128    1.36647361664023    0.69546283499389
H         1.08089270846627    2.28716412259668   -3.13920033879005
H         4.05734181190336    0.86984418060324   -2.85111378207386
H         5.79223862561125    2.54139473037651   -2.32456119758002
H         6.16080235058713    4.28768129541085    0.40008207201518
H         7.24641583705116    3.02448950008824    0.97017672885310
H         7.29102220308567    3.53335262704196   -0.72523340211539
H         5.18428547357041    1.84952747130880    1.84032374794396
H         3.44853444542908    0.19439489420699    1.31789927813482

 Bond Distances (Angstroems)
 ---------------------------
C1-C2=1.3826         C1-C6=1.3899         C1-H39=1.0807        C2-C1=1.3826         C2-C3=1.3848         C2-H40=1.0800        
C3-C2=1.3848         C3-C4=1.3840         C3-H41=1.0799        C4-C3=1.3840         C4-C5=1.3837         C4-H42=1.0799        
C5-C4=1.3837         C5-C6=1.3868         C5-H43=1.0800        C6-C1=1.3899         C6-C5=1.3868         C6-C7=1.5076         
C7-C6=1.5076         C7-C8=1.5534         C7-N29=1.4563        C7-H44=1.0960        C8-C7=1.5534         C8-C9=1.5120         
C8-N15=1.4512        C8-H45=1.0963        C9-C8=1.5120         C9-C10=1.3878        C9-C14=1.3905        C10-C9=1.3878        
C10-C11=1.3852       C10-H46=1.0803       C11-C10=1.3852       C11-C12=1.3835       C11-H47=1.0799       C12-C11=1.3835       
C12-C13=1.3852       C12-H48=1.0797       C13-C12=1.3852       C13-C14=1.3824       C13-H49=1.0799       C14-C9=1.3905        
C14-C13=1.3824       C14-H50=1.0803       N15-C8=1.4512        N15-C16=1.3739       N15-C25=1.4469       C16-N15=1.3739       
C16-C17=1.4851       C16-O24=1.2144       C17-C16=1.4851       C17-C18=1.3915       C17-C23=1.3921       C18-C17=1.3915       
C18-C19=1.3816       C18-H51=1.0789       C19-C18=1.3816       C19-C20=1.3904       C19-H52=1.0803       C20-C19=1.3904       
C20-C21=1.4970       C20-C22=1.3900       C21-C20=1.4970       C21-H53=1.0877       C21-H54=1.0905       C21-H55=1.0870       
C22-C20=1.3900       C22-C23=1.3806       C22-H56=1.0804       C23-C17=1.3921       C23-C22=1.3806       C23-H57=1.0796       
O24-C16=1.2144       C25-N15=1.4469       C25-C26=1.5387       C25-N29=1.4409       C25-H58=1.1000       C26-C25=1.5387       
C26-O27=1.3320       C26-O28=1.1983       O27-C26=1.3320       O27-H59=0.9707       O28-C26=1.1983       N29-C7=1.4563        
N29-C25=1.4409       N29-C30=1.3604       C30-N29=1.3604       C30-C31=1.4926       C30-O38=1.2132       C31-C30=1.4926       
C31-C32=1.3881       C31-C37=1.3906       C32-C31=1.3881       C32-C33=1.3829       C32-H60=1.0800       C33-C32=1.3829       
C33-C34=1.3887       C33-H61=1.0807       C34-C33=1.3887       C34-C35=1.4975       C34-C36=1.3908       C35-C34=1.4975       
C35-H62=1.0904       C35-H63=1.0879       C35-H64=1.0871       C36-C34=1.3908       C36-C37=1.3812       C36-H65=1.0804       
C37-C31=1.3906       C37-C36=1.3812       C37-H66=1.0807       O38-C30=1.2132       H39-C1=1.0807        H40-C2=1.0800        
H41-C3=1.0799        H42-C4=1.0799        H43-C5=1.0800        H44-C7=1.0960        H45-C8=1.0963        H46-C10=1.0803       
H47-C11=1.0799       H48-C12=1.0797       H49-C13=1.0799       H50-C14=1.0803       H51-C18=1.0789       H52-C19=1.0803       
H53-C21=1.0877       H54-C21=1.0905       H55-C21=1.0870       H56-C22=1.0804       H57-C23=1.0796       H58-C25=1.1000       
H59-O27=0.9707       H60-C32=1.0800       H61-C33=1.0807       H62-C35=1.0904       H63-C35=1.0879       H64-C35=1.0871       
H65-C36=1.0804       H66-C37=1.0807       
 C  H  Rav=1.0839 sigma=0.0060  Rmin=1.0789  Rmax=1.1000    27
 C  C  Rav=1.4175 sigma=0.0549  Rmin=1.3806  Rmax=1.5534    32
 N  C  Rav=1.4216 sigma=0.0390  Rmin=1.3604  Rmax=1.4563     6
 O  H  Rav=0.9707 sigma=0.0000  Rmin=0.9707  Rmax=0.9707     1
 O  C  Rav=1.2395 sigma=0.0538  Rmin=1.1983  Rmax=1.3320     4

 selected bond angles (degree)
 --------------------
C6-C1-C2=120.31                H39-C1-C2=119.77               H39-C1-C6=119.92               C3-C2-C1=120.10                
H40-C2-C1=119.80               H40-C2-C3=120.10               C4-C3-C2=119.82                H41-C3-C2=120.06               
H41-C3-C4=120.12               C5-C4-C3=120.12                H42-C4-C3=120.06               H42-C4-C5=119.81               
C6-C5-C4=120.33                H43-C5-C4=120.07               H43-C5-C6=119.60               C5-C6-C1=119.32                
C7-C6-C1=120.01                C7-C6-C5=120.66                C8-C7-C6=111.92                N29-C7-C6=110.69               
N29-C7-C8=103.71               H44-C7-C6=109.70               H44-C7-C8=111.58               H44-C7-N29=109.08              
C9-C8-C7=112.47                N15-C8-C7=103.60               N15-C8-C9=113.42               H45-C8-C7=109.51               
H45-C8-C9=108.48               H45-C8-N15=109.23              C10-C9-C8=122.12               C14-C9-C8=118.79               
C14-C9-C10=119.07              C11-C10-C9=120.34              H46-C10-C9=120.08              H46-C10-C11=119.58             

 selected dihedral angles (degree)
 ---------------------------------
C3-C2-C1-C6=  0.06            C3-C2-C1-H39=180.51           H40-C2-C1-C6=179.82           H40-C2-C1-H39=  0.27          
C4-C3-C2-C1=  0.17            C4-C3-C2-H40=180.41           H41-C3-C2-C1=179.76           H41-C3-C2-H40=  0.00          
C5-C4-C3-C2=359.79            C5-C4-C3-H41=180.19           H42-C4-C3-C2=179.43           H42-C4-C3-H41=359.84          
C6-C5-C4-C3=  0.03            C6-C5-C4-H42=180.38           H43-C5-C4-C3=179.12           H43-C5-C4-H42=359.47          
C5-C6-C1-C2=359.76            C5-C6-C1-H39=179.31           C7-C6-C1-C2=179.24            C7-C6-C1-H39=358.79           
C1-C6-C5-C4=  0.20            C1-C6-C5-H43=181.11           C7-C6-C5-C4=180.72            C7-C6-C5-H43=  1.62           
C8-C7-C6-C1=295.17            C8-C7-C6-C5=114.65            N29-C7-C6-C1= 50.33           N29-C7-C6-C5=229.81           
H44-C7-C6-C1=170.75           H44-C7-C6-C5=350.23           C9-C8-C7-C6=226.17            C9-C8-C7-N29=106.82           
C9-C8-C7-H44=349.54           N15-C8-C7-C6=103.31           N15-C8-C7-N29=343.96          N15-C8-C7-H44=226.68          
H45-C8-C7-C6=346.87           H45-C8-C7-N29=227.52          H45-C8-C7-H44=110.24          C10-C9-C8-C7=237.28           
C10-C9-C8-N15=354.44          C10-C9-C8-H45=115.99          C14-C9-C8-C7= 58.78           C14-C9-C8-N15=175.94          
C14-C9-C8-H45=297.49          C11-C10-C9-C8=180.24          C11-C10-C9-C14=358.74         H46-C10-C9-C8=359.91          
H46-C10-C9-C14=178.41         
           -------------------------------------------------
          |                Final Singlepoint                |
           -------------------------------------------------

          ...................................................
          :                      SETUP                      :
          :.................................................:
          :  # basis functions                 180          :
          :  # atomic orbitals                 180          :
          :  # shells                          104          :
          :  # electrons                       190          :
          :  max. iterations                   250          :
          :  Hamiltonian                  GFN2-xTB          :
          :  restarted?                      false          :
          :  GBSA solvation                  false          :
          :  PC potential                    false          :
          :  electronic temp.          300.0000000     K    :
          :  accuracy                    1.0000000          :
          :  -> integral cutoff          0.2500000E+02      :
          :  -> integral neglect         0.1000000E-07      :
          :  -> SCF convergence          0.1000000E-05 Eh   :
          :  -> wf. convergence          0.1000000E-03 e    :
          :  Broyden damping             0.4000000          :
          ...................................................

 iter      E             dE          RMSdq      gap      omega  full diag
   1   -106.6099586 -0.106610E+03  0.107E-04    3.41       0.0  T
   2   -106.6099586 -0.781739E-10  0.694E-05    3.41     177.3  T
   3   -106.6099586 -0.862599E-11  0.453E-05    3.41     271.8  T

   *** convergence criteria satisfied after 3 iterations ***

         #    Occupation            Energy/Eh            Energy/eV
      -------------------------------------------------------------
         1        2.0000           -0.7667346             -20.8639
       ...           ...                  ...                  ...
        89        2.0000           -0.4085258             -11.1166
        90        2.0000           -0.4071443             -11.0790
        91        2.0000           -0.4021026             -10.9418
        92        2.0000           -0.3997550             -10.8779
        93        2.0000           -0.3982011             -10.8356
        94        2.0000           -0.3898873             -10.6094
        95        2.0000           -0.3865378             -10.5182 (HOMO)
        96                         -0.2613342              -7.1113 (LUMO)
        97                         -0.2560113              -6.9664
        98                         -0.2404525              -6.5430
        99                         -0.2377910              -6.4706
       100                         -0.2370669              -6.4509
       ...                                ...                  ...
       180                          0.6694384              18.2163
      -------------------------------------------------------------
                  HL-Gap            0.1252036 Eh            3.4070 eV
             Fermi-level           -0.3239360 Eh           -8.8147 eV

 SCC (total)                   0 d,  0 h,  0 min,  0.315 sec
 SCC setup                      ...        0 min,  0.016 sec (  5.245%)
 Dispersion                     ...        0 min,  0.020 sec (  6.407%)
 classical contributions        ...        0 min,  0.008 sec (  2.530%)
 integral evaluation            ...        0 min,  0.069 sec ( 22.066%)
 iterations                     ...        0 min,  0.049 sec ( 15.710%)
 molecular gradient             ...        0 min,  0.149 sec ( 47.457%)
 printout                       ...        0 min,  0.002 sec (  0.556%)

         :::::::::::::::::::::::::::::::::::::::::::::::::::::
         ::                     SUMMARY                     ::
         :::::::::::::::::::::::::::::::::::::::::::::::::::::
         :: total energy            -104.955500036421 Eh    ::
         :: gradient norm              0.000775588396 Eh/a0 ::
         :: HOMO-LUMO gap              3.406962800062 eV    ::
         ::.................................................::
         :: SCC energy              -106.609958608037 Eh    ::
         :: -> isotropic ES            0.122071709457 Eh    ::
         :: -> anisotropic ES          0.006589653186 Eh    ::
         :: -> anisotropic XC          0.045882962529 Eh    ::
         :: -> dispersion             -0.088936791411 Eh    ::
         :: repulsion energy           1.651898273418 Eh    ::
         :: add. restraining           0.000000000000 Eh    ::
         :: total charge               0.000000000000 e     ::
         :::::::::::::::::::::::::::::::::::::::::::::::::::::

           -------------------------------------------------
          |                Property Printout                |
           -------------------------------------------------

    * Orbital Energies and Occupations

         #    Occupation            Energy/Eh            Energy/eV
      -------------------------------------------------------------
         1        2.0000           -0.7667346             -20.8639
       ...           ...                  ...                  ...
        83        2.0000           -0.4232661             -11.5177
        84        2.0000           -0.4191130             -11.4046
        85        2.0000           -0.4174476             -11.3593
        86        2.0000           -0.4166672             -11.3381
        87        2.0000           -0.4144469             -11.2777
        88        2.0000           -0.4089164             -11.1272
        89        2.0000           -0.4085258             -11.1166
        90        2.0000           -0.4071443             -11.0790
        91        2.0000           -0.4021026             -10.9418
        92        2.0000           -0.3997550             -10.8779
        93        2.0000           -0.3982011             -10.8356
        94        2.0000           -0.3898873             -10.6094
        95        2.0000           -0.3865378             -10.5182 (HOMO)
        96                         -0.2613342              -7.1113 (LUMO)
        97                         -0.2560113              -6.9664
        98                         -0.2404525              -6.5430
        99                         -0.2377910              -6.4706
       100                         -0.2370669              -6.4509
       101                         -0.2340876              -6.3698
       102                         -0.2286751              -6.2226
       103                         -0.2269026              -6.1743
       104                         -0.2249566              -6.1214
       105                         -0.1984695              -5.4006
       106                         -0.1960666              -5.3352
       ...                                ...                  ...
       180                          0.6694384              18.2163
      -------------------------------------------------------------
                  HL-Gap            0.1252036 Eh            3.4070 eV
             Fermi-level           -0.3239360 Eh           -8.8147 eV

     #   Z          covCN         q      C6AA      α(0)
     1   6 C        2.924    -0.032    28.806     8.802
     2   6 C        2.920    -0.028    28.693     8.784
     3   6 C        2.920    -0.029    28.728     8.789
     4   6 C        2.920    -0.026    28.658     8.779
     5   6 C        2.924    -0.029    28.727     8.790
     6   6 C        2.974     0.006    27.876     8.661
     7   6 C        3.826     0.043    19.834     6.337
     8   6 C        3.831     0.036    19.939     6.353
     9   6 C        2.971     0.002    27.986     8.677
    10   6 C        2.923    -0.035    28.870     8.811
    11   6 C        2.920    -0.028    28.711     8.787
    12   6 C        2.920    -0.030    28.752     8.793
    13   6 C        2.919    -0.027    28.665     8.780
    14   6 C        2.925    -0.037    28.909     8.817
    15   7 N        2.762    -0.122    23.644     7.222
    16   6 C        2.769     0.272    22.408     7.753
    17   6 C        2.974    -0.020    28.511     8.759
    18   6 C        2.919    -0.033    28.811     8.802
    19   6 C        2.925    -0.038    28.952     8.824
    20   6 C        2.966     0.025    27.451     8.594
    21   6 C        3.758    -0.112    22.700     6.793
    22   6 C        2.924    -0.037    28.920     8.819
    23   6 C        2.925    -0.021    28.520     8.758
    24   8 O        0.859    -0.421    22.111     6.305
    25   6 C        3.779     0.088    19.141     6.233
    26   6 C        2.688     0.352    21.023     7.504
    27   8 O        1.659    -0.362    20.126     6.056
    28   8 O        0.856    -0.384    21.363     6.197
    29   7 N        2.765    -0.119    23.593     7.214
    30   6 C        2.764     0.273    22.388     7.749
    31   6 C        2.977    -0.026    28.648     8.780
    32   6 C        2.922    -0.026    28.644     8.777
    33   6 C        2.925    -0.038    28.945     8.823
    34   6 C        2.966     0.023    27.497     8.601
    35   6 C        3.758    -0.112    22.686     6.791
    36   6 C        2.925    -0.036    28.902     8.816
    37   6 C        2.921    -0.032    28.796     8.800
    38   8 O        0.859    -0.424    22.166     6.312
    39   1 H        0.926     0.030     2.593     2.518
    40   1 H        0.926     0.036     2.509     2.477
    41   1 H        0.926     0.036     2.508     2.477
    42   1 H        0.926     0.038     2.481     2.463
    43   1 H        0.926     0.038     2.474     2.460
    44   1 H        0.924     0.065     2.140     2.288
    45   1 H        0.924     0.057     2.233     2.337
    46   1 H        0.926     0.038     2.472     2.459
    47   1 H        0.926     0.038     2.470     2.458
    48   1 H        0.926     0.037     2.483     2.464
    49   1 H        0.926     0.039     2.467     2.456
    50   1 H        0.926     0.034     2.532     2.489
    51   1 H        0.926     0.038     2.472     2.459
    52   1 H        0.926     0.037     2.484     2.465
    53   1 H        0.925     0.049     2.330     2.387
    54   1 H        0.924     0.053     2.288     2.365
    55   1 H        0.925     0.048     2.342     2.393
    56   1 H        0.926     0.041     2.442     2.444
    57   1 H        0.926     0.052     2.299     2.371
    58   1 H        0.923     0.102     1.767     2.079
    59   1 H        0.804     0.340     0.612     1.229
    60   1 H        0.926     0.040     2.445     2.445
    61   1 H        0.926     0.037     2.495     2.470
    62   1 H        0.924     0.053     2.280     2.361
    63   1 H        0.925     0.048     2.341     2.392
    64   1 H        0.925     0.045     2.382     2.414
    65   1 H        0.926     0.041     2.437     2.441
    66   1 H        0.926     0.035     2.513     2.479

 Mol. C6AA /au·bohr⁶  :      55485.041715
 Mol. C8AA /au·bohr⁸  :    1353011.942217
 Mol. α(0) /au        :        371.779904


Wiberg/Mayer (AO) data.
largest (>0.10) Wiberg bond orders for each atom

 ---------------------------------------------------------------------------
     #   Z sym  total        # sym  WBO       # sym  WBO       # sym  WBO
 ---------------------------------------------------------------------------
     1   6 C    3.992 --     2 C    1.448     6 C    1.409    39 H    0.968
                             4 C    0.112
     2   6 C    3.992 --     1 C    1.448     3 C    1.436    40 H    0.971
                             5 C    0.111
     3   6 C    3.990 --     4 C    1.441     2 C    1.436    41 H    0.971
                             6 C    0.109
     4   6 C    3.992 --     3 C    1.441     5 C    1.441    42 H    0.971
                             1 C    0.112
     5   6 C    3.989 --     4 C    1.441     6 C    1.416    43 H    0.968
                             2 C    0.111
     6   6 C    3.986 --     5 C    1.416     1 C    1.409     7 C    0.989
                             3 C    0.109
     7   6 C    3.965 --     6 C    0.989    29 N    0.960    44 H    0.953
                             8 C    0.946
     8   6 C    3.967 --     9 C    0.988    15 N    0.974     7 C    0.946
                            45 H    0.946
     9   6 C    3.986 --    10 C    1.419    14 C    1.405     8 C    0.988
                            12 C    0.110
    10   6 C    3.991 --    11 C    1.435     9 C    1.419    46 H    0.964
                            13 C    0.110
    11   6 C    3.992 --    12 C    1.445    10 C    1.435    47 H    0.971
                            14 C    0.112
    12   6 C    3.991 --    11 C    1.445    13 C    1.432    48 H    0.971
                             9 C    0.110
    13   6 C    3.991 --    14 C    1.452    12 C    1.432    49 H    0.971
                            10 C    0.110
    14   6 C    3.991 --    13 C    1.452     9 C    1.405    50 H    0.968
                            11 C    0.112
    15   7 N    3.436 --    16 C    1.167    25 C    0.980     8 C    0.974
                            24 O    0.175
    16   6 C    3.941 --    24 O    1.693    15 N    1.167    17 C    0.993
    17   6 C    3.987 --    23 C    1.390    18 C    1.387    16 C    0.993
                            20 C    0.102
    18   6 C    3.991 --    19 C    1.457    17 C    1.387    51 H    0.965
                            22 C    0.105
    19   6 C    3.991 --    18 C    1.457    20 C    1.403    52 H    0.969
                            23 C    0.106
    20   6 C    3.987 --    22 C    1.405    19 C    1.403    21 C    1.029
                            17 C    0.102
    21   6 C    3.995 --    20 C    1.029    55 H    0.983    53 H    0.979
                            54 H    0.965
    22   6 C    3.991 --    23 C    1.456    20 C    1.405    56 H    0.968
                            18 C    0.105
    23   6 C    3.989 --    22 C    1.456    17 C    1.390    57 H    0.968
                            19 C    0.106
    24   8 O    2.026 --    16 C    1.693    15 N    0.175
    25   6 C    3.965 --    29 N    0.985    15 N    0.980    58 H    0.927
                            26 C    0.916
    26   6 C    3.917 --    28 O    1.781    27 O    1.150    25 C    0.916
    27   8 O    2.219 --    26 C    1.150    59 H    0.858    28 O    0.182
    28   8 O    2.063 --    26 C    1.781    27 O    0.182
    29   7 N    3.454 --    30 C    1.198    25 C    0.985     7 C    0.960
                            38 O    0.186
    30   6 C    3.945 --    38 O    1.694    29 N    1.198    31 C    0.968
    31   6 C    3.987 --    32 C    1.407    37 C    1.394    30 C    0.968
                            34 C    0.106
    32   6 C    3.991 --    33 C    1.445    31 C    1.407    60 H    0.969
                            36 C    0.108
    33   6 C    3.991 --    32 C    1.445    34 C    1.413    61 H    0.968
                            37 C    0.108
    34   6 C    3.988 --    33 C    1.413    36 C    1.401    35 C    1.028
                            31 C    0.106
    35   6 C    3.996 --    34 C    1.028    64 H    0.984    63 H    0.978
                            62 H    0.966
    36   6 C    3.991 --    37 C    1.457    34 C    1.401    65 H    0.968
                            32 C    0.108
    37   6 C    3.991 --    36 C    1.457    31 C    1.394    66 H    0.968
                            33 C    0.108
    38   8 O    2.016 --    30 C    1.694    29 N    0.186
    39   1 H    0.999 --     1 C    0.968
    40   1 H    0.998 --     2 C    0.971
    41   1 H    0.998 --     3 C    0.971
    42   1 H    0.998 --     4 C    0.971
    43   1 H    0.999 --     5 C    0.968
    44   1 H    0.995 --     7 C    0.953
    45   1 H    0.996 --     8 C    0.946
    46   1 H    0.999 --    10 C    0.964
    47   1 H    0.998 --    11 C    0.971
    48   1 H    0.998 --    12 C    0.971
    49   1 H    0.998 --    13 C    0.971
    50   1 H    0.999 --    14 C    0.968
    51   1 H    0.998 --    18 C    0.965
    52   1 H    0.998 --    19 C    0.969
    53   1 H    0.997 --    21 C    0.979
    54   1 H    0.996 --    21 C    0.965
    55   1 H    0.997 --    21 C    0.983
    56   1 H    0.998 --    22 C    0.968
    57   1 H    0.997 --    23 C    0.968
    58   1 H    0.989 --    25 C    0.927
    59   1 H    0.884 --    27 O    0.858
    60   1 H    0.998 --    32 C    0.969
    61   1 H    0.998 --    33 C    0.968
    62   1 H    0.997 --    35 C    0.966
    63   1 H    0.997 --    35 C    0.978
    64   1 H    0.998 --    35 C    0.984
    65   1 H    0.998 --    36 C    0.968
    66   1 H    0.998 --    37 C    0.968
 ---------------------------------------------------------------------------

Topologies differ in total number of bonds
Writing topology from bond orders to xtbtopo.mol

molecular dipole:
                 x           y           z       tot (Debye)
 q only:       -1.567      -0.381      -0.363
   full:       -1.605      -0.261      -0.479       4.308
molecular quadrupole (traceless):
                xx          xy          yy          xz          yz          zz
 q only:       13.714      17.757     -13.498       0.904     -16.219      -0.215
  q+dip:        8.611      21.090     -15.347       4.684     -22.040       6.736
   full:       12.770      18.841     -15.260       2.253     -20.940       2.490

           -------------------------------------------------
          |                Geometry Summary                 |
           -------------------------------------------------

      molecular mass/u    :      504.5769159
   center of mass at/Å    :        0.1228954       0.0565357      -0.1024762
  moments of inertia/u·Å² :        0.3672235E+04   0.6630857E+04   0.7066660E+04
rotational constants/cm⁻¹ :        0.4590564E-02   0.2542301E-02   0.2385516E-02

 * 62 selected distances

     #   Z          #   Z                                           value/Å
     1   6 C        2   6 C                                       1.3826010
     2   6 C        3   6 C                                       1.3847572
     3   6 C        4   6 C                                       1.3840315
     4   6 C        5   6 C                                       1.3837118
     1   6 C        6   6 C                                       1.3898962
     5   6 C        6   6 C                                       1.3868285
     9   6 C       10   6 C                                       1.3877544
    10   6 C       11   6 C                                       1.3852461
    11   6 C       12   6 C                                       1.3834533
    12   6 C       13   6 C                                       1.3851836
     9   6 C       14   6 C                                       1.3904796
    13   6 C       14   6 C                                       1.3823936
     8   6 C       15   7 N                                       1.4512092
    15   7 N       16   6 C                                       1.3739167
    17   6 C       18   6 C                                       1.3914571
    18   6 C       19   6 C                                       1.3816446
    19   6 C       20   6 C                                       1.3903895
    20   6 C       22   6 C                                       1.3899979
    17   6 C       23   6 C                                       1.3920608
    22   6 C       23   6 C                                       1.3806357
    16   6 C       24   8 O                                       1.2144040
    15   7 N       25   6 C                                       1.4468877
    26   6 C       27   8 O                                       1.3319749
    26   6 C       28   8 O                                       1.1983371
     7   6 C       29   7 N                                       1.4562857 (max)
    25   6 C       29   7 N                                       1.4409266
    29   7 N       30   6 C                                       1.3604337
    31   6 C       32   6 C                                       1.3881101
    32   6 C       33   6 C                                       1.3829273
    33   6 C       34   6 C                                       1.3887481
    34   6 C       36   6 C                                       1.3907956
    31   6 C       37   6 C                                       1.3906396
    36   6 C       37   6 C                                       1.3811634
    30   6 C       38   8 O                                       1.2131714
     1   6 C       39   1 H                                       1.0807296
     2   6 C       40   1 H                                       1.0800239
     3   6 C       41   1 H                                       1.0799207
     4   6 C       42   1 H                                       1.0799364
     5   6 C       43   1 H                                       1.0799872
     7   6 C       44   1 H                                       1.0959504
     8   6 C       45   1 H                                       1.0963421
    10   6 C       46   1 H                                       1.0803037
    11   6 C       47   1 H                                       1.0798749
    12   6 C       48   1 H                                       1.0797325
    13   6 C       49   1 H                                       1.0798565
    14   6 C       50   1 H                                       1.0803080
    18   6 C       51   1 H                                       1.0788543
    19   6 C       52   1 H                                       1.0802923
    21   6 C       53   1 H                                       1.0876819
    21   6 C       54   1 H                                       1.0904912
    21   6 C       55   1 H                                       1.0870301
    22   6 C       56   1 H                                       1.0804421
    23   6 C       57   1 H                                       1.0796369
    25   6 C       58   1 H                                       1.0999835
    27   8 O       59   1 H                                       0.9706676 (min)
    32   6 C       60   1 H                                       1.0799816
    33   6 C       61   1 H                                       1.0807276
    35   6 C       62   1 H                                       1.0903740
    35   6 C       63   1 H                                       1.0878504
    35   6 C       64   1 H                                       1.0870980
    36   6 C       65   1 H                                       1.0803912
    37   6 C       66   1 H                                       1.0806752

 * 5 distinct bonds (by element types)

   Z      Z             #   av. dist./Å        max./Å        min./Å
   1 H    6 C          27     1.0838695     1.0999835     1.0788543
   6 C    6 C          24     1.3864544     1.3920608     1.3806357
   6 C    7 N           6     1.4216099     1.4562857     1.3604337
   1 H    8 O           1     0.9706676     0.9706676     0.9706676
   6 C    8 O           4     1.2394719     1.3319749     1.1983371


optimized geometry written to: xtbopt.xyz


           -------------------------------------------------
          | TOTAL ENERGY             -104.955500036421 Eh   |
          | GRADIENT NORM               0.000775588396 Eh/α |
          | HOMO-LUMO GAP               3.406962800062 eV   |
           -------------------------------------------------

------------------------------------------------------------------------
 * finished run on 2022/03/16 at 21:58:30.085     
------------------------------------------------------------------------
 total:
 * wall-time:     0 d,  0 h,  0 min, 16.447 sec
 *  cpu-time:     0 d,  0 h,  6 min, 40.813 sec
 * ratio c/w:    24.371 speedup
 SCF:
 * wall-time:     0 d,  0 h,  0 min,  0.428 sec
 *  cpu-time:     0 d,  0 h,  0 min,  8.653 sec
 * ratio c/w:    20.236 speedup
 ANC optimizer:
 * wall-time:     0 d,  0 h,  0 min, 15.876 sec
 *  cpu-time:     0 d,  0 h,  6 min, 28.080 sec
 * ratio c/w:    24.444 speedup

