      -----------------------------------------------------------      
     |                   =====================                   |     
     |                           x T B                           |     
     |                   =====================                   |     
     |                         S. Grimme                         |     
     |          Mulliken Center for Theoretical Chemistry        |     
     |                    University of Bonn                     |     
      -----------------------------------------------------------      

   * xtb version 6.3.3 (4ae9cef) compiled by 'conda@95abc7406d43' on 2020-10-14

   xtb is free software: you can redistribute it and/or modify it under
   the terms of the GNU Lesser General Public License as published by
   the Free Software Foundation, either version 3 of the License, or
   (at your option) any later version.
   
   xtb is distributed in the hope that it will be useful,
   but WITHOUT ANY WARRANTY; without even the implied warranty of
   MERCHANTABILITY or FITNESS FOR A PARTICULAR PURPOSE.  See the
   GNU Lesser General Public License for more details.
   
   Cite this work as:
   * C. Bannwarth, E. Caldeweyher, S. Ehlert, A. Hansen, P. Pracht,
     J. Seibert, S. Spicher, S. Grimme, WIREs Comput. Mol. Sci., 2020,
     e01493. DOI: 10.1002/wcms.1493
   
   for GFN2-xTB:
   * S. Grimme, C. Bannwarth, P. Shushkov, J. Chem. Theory Comput., 2017,
     13, 1989-2009. DOI: 10.1021/acs.jctc.7b00118
   for GFN1-xTB:
   * C. Bannwarth, S. Ehlert and S. Grimme., J. Chem. Theory Comput., 2019,
     15, 1652-1671. DOI: 10.1021/acs.jctc.8b01176
   for GFN0-xTB:
   * P. Pracht, E. Caldeweyher, S. Ehlert, S. Grimme, ChemRxiv, 2019, preprint.
     DOI: 10.26434/chemrxiv.8326202.v1
   for GFN-FF:
   * S. Spicher and S. Grimme, Angew. Chem. Int. Ed., 2020, 59, 15665-15673.
     DOI: 10.1002/anie.202004239
   
   for DFT-D4:
   * E. Caldeweyher, C. Bannwarth and S. Grimme, J. Chem. Phys., 2017,
     147, 034112. DOI: 10.1063/1.4993215
   * E. Caldeweyher, S. Ehlert, A. Hansen, H. Neugebauer, S. Spicher,
     C. Bannwarth and S. Grimme, J. Chem. Phys., 2019, 150, 154122.
     DOI: 10.1063/1.5090222
   * E. Caldeweyher, J.-M. Mewes, S. Ehlert and S. Grimme, Phys. Chem. Chem. Phys.
     2020, 22, 8499-8512. DOI: 10.1039/D0CP00502A
   
   for sTDA-xTB:
   * S. Grimme and C. Bannwarth, J. Chem. Phys., 2016, 145, 054103.
     DOI: 10.1063/1.4959605
   
   in the mass-spec context:
   * V. Asgeirsson, C. Bauer and S. Grimme, Chem. Sci., 2017, 8, 4879.
     DOI: 10.1039/c7sc00601b
   * J. Koopman and S. Grimme, ACS Omega 2019, 4, 12, 15120-15133.
     DOI: 10.1021/acsomega.9b02011
   
   for metadynamics refer to:
   * S. Grimme, J. Chem. Theory Comput., 2019, 155, 2847-2862
     DOI: 10.1021/acs.jctc.9b00143
   
   with help from (in alphabetical order)
   C. Bannwarth, F. Bohle, G. Brandenburg, E. Caldeweyher, M. Checinski,
   S. Dohm, S. Ehlert, S. Ehrlich, F. März, H. Neugebauer, J. Pisarek,
   P. Pracht, P. Shushkov, and S. Spicher.
   
 * started run on 2022/03/17 at 02:20:36.335     

           -------------------------------------------------
          |                Calculation Setup                |
           -------------------------------------------------

          program call               : xtb sub_8.xyz --opt --chrg 0 --uhf 0 --gfn 2
          coordinate file            : sub_8.xyz
          omp threads                :                    64
          number of atoms            :                    28
          number of electrons        :                    84
          charge                     :                     0
          spin                       :                   0.0
          first test random number   :      0.29829527286130

   ID    Z sym.   atoms
    1   53 I      1
    2    6 C      2-5, 7-9, 11-17
    3    7 N      6, 10
    4    1 H      18-28

           -------------------------------------------------
          |                 G F N 2 - x T B                 |
           -------------------------------------------------

        Reference                      10.1021/acs.jctc.8b01176
      * Hamiltonian:
        H0-scaling (s, p, d)           1.850000    2.230000    2.230000
        zeta-weighting                 0.500000
      * Dispersion:
        s8                             2.700000
        a1                             0.520000
        a2                             5.000000
        s9                             5.000000
      * Repulsion:
        kExp                           1.500000    1.000000
        rExp                           1.000000
      * Coulomb:
        alpha                          2.000000
        third order                    shell-resolved
        anisotropic                    true
        a3                             3.000000
        a5                             4.000000
        cn-shift                       1.200000
        cn-exp                         4.000000
        max-rad                        5.000000


          ...................................................
          :                      SETUP                      :
          :.................................................:
          :  # basis functions                  85          :
          :  # atomic orbitals                  84          :
          :  # shells                           46          :
          :  # electrons                        84          :
          :  max. iterations                   250          :
          :  Hamiltonian                  GFN2-xTB          :
          :  restarted?                      false          :
          :  GBSA solvation                  false          :
          :  PC potential                    false          :
          :  electronic temp.          300.0000000     K    :
          :  accuracy                    1.0000000          :
          :  -> integral cutoff          0.2500000E+02      :
          :  -> integral neglect         0.1000000E-07      :
          :  -> SCF convergence          0.1000000E-05 Eh   :
          :  -> wf. convergence          0.1000000E-03 e    :
          :  Broyden damping             0.4000000          :
          ...................................................

 iter      E             dE          RMSdq      gap      omega  full diag
   1    -45.8969087 -0.458969E+02  0.547E+00    2.97       0.0  T
   2    -45.9390236 -0.421149E-01  0.354E+00    2.91       1.0  T
   3    -45.9035913  0.354323E-01  0.155E+00    2.99       1.0  T
   4    -45.9497338 -0.461425E-01  0.565E-01    2.84       1.0  T
   5    -45.9521450 -0.241120E-02  0.326E-01    2.90       1.0  T
   6    -45.9524317 -0.286724E-03  0.170E-01    2.89       1.0  T
   7    -45.9526195 -0.187829E-03  0.127E-01    2.89       1.0  T
   8    -45.9526808 -0.612686E-04  0.776E-02    2.89       1.0  T
   9    -45.9526766  0.417238E-05  0.381E-02    2.90       1.0  T
  10    -45.9526980 -0.213306E-04  0.744E-03    2.90       2.5  T
  11    -45.9526983 -0.340674E-06  0.463E-03    2.90       4.1  T
  12    -45.9526984 -0.802097E-07  0.165E-03    2.90      11.5  T
  13    -45.9526984 -0.233877E-07  0.520E-04    2.90      36.4  T
  14    -45.9526984 -0.667626E-09  0.184E-04    2.90     102.9  T

   *** convergence criteria satisfied after 14 iterations ***

         #    Occupation            Energy/Eh            Energy/eV
      -------------------------------------------------------------
         1        2.0000           -0.7273066             -19.7910
       ...           ...                  ...                  ...
        36        2.0000           -0.4300928             -11.7034
        37        2.0000           -0.4233925             -11.5211
        38        2.0000           -0.4086327             -11.1195
        39        2.0000           -0.3989789             -10.8568
        40        2.0000           -0.3857156             -10.4959
        41        2.0000           -0.3843068             -10.4575
        42        2.0000           -0.3744226             -10.1886 (HOMO)
        43                         -0.2680119              -7.2930 (LUMO)
        44                         -0.2569564              -6.9921
        45                         -0.2434168              -6.6237
        46                         -0.2094971              -5.7007
        47                         -0.2059382              -5.6039
       ...                                ...                  ...
        84                          0.6883795              18.7318
      -------------------------------------------------------------
                  HL-Gap            0.1064107 Eh            2.8956 eV
             Fermi-level           -0.3212173 Eh           -8.7408 eV

 SCC (total)                   0 d,  0 h,  0 min,  0.183 sec
 SCC setup                      ...        0 min,  0.016 sec (  8.743%)
 Dispersion                     ...        0 min,  0.014 sec (  7.713%)
 classical contributions        ...        0 min,  0.014 sec (  7.605%)
 integral evaluation            ...        0 min,  0.032 sec ( 17.569%)
 iterations                     ...        0 min,  0.031 sec ( 17.224%)
 molecular gradient             ...        0 min,  0.075 sec ( 40.928%)
 printout                       ...        0 min,  0.000 sec (  0.179%)

         :::::::::::::::::::::::::::::::::::::::::::::::::::::
         ::                     SUMMARY                     ::
         :::::::::::::::::::::::::::::::::::::::::::::::::::::
         :: total energy             -45.258270434688 Eh    ::
         :: gradient norm              0.080516471532 Eh/a0 ::
         :: HOMO-LUMO gap              2.895582376596 eV    ::
         ::.................................................::
         :: SCC energy               -45.952698397890 Eh    ::
         :: -> isotropic ES            0.013993803176 Eh    ::
         :: -> anisotropic ES          0.003063836809 Eh    ::
         :: -> anisotropic XC          0.026518178022 Eh    ::
         :: -> dispersion             -0.032088994083 Eh    ::
         :: repulsion energy           0.694662245169 Eh    ::
         :: add. restraining           0.000000000000 Eh    ::
         :: total charge              -0.000000000000 e     ::
         :::::::::::::::::::::::::::::::::::::::::::::::::::::

      ----------------------------------------------------------- 
     |                   =====================                   |
     |                        A N C O P T                        |
     |                   =====================                   |
     |               Approximate Normal Coordinate               |
     |                Rational Function Optimizer                |
      ----------------------------------------------------------- 

          ...................................................
          :                      SETUP                      :
          :.................................................:
          :   optimization level            normal          :
          :   max. optcycles                   200          :
          :   ANC micro-cycles                  20          :
          :   degrees of freedom                78          :
          :.................................................:
          :   RF solver                   davidson          :
          :   write xtbopt.log                true          :
          :   linear?                        false          :
          :   energy convergence         0.5000000E-05 Eh   :
          :   grad. convergence          0.1000000E-02 Eh/α :
          :   maximium RF displ.         1.0000000          :
          :   Hlow (freq-cutoff)         0.1000000E-01      :
          :   Hmax (freq-cutoff)         5.0000000          :
          :   S6 in model hess.         20.0000000          :
          ...................................................

generating ANC from model Hessian ...
Using Lindh-Hessian (1995)
 Shifting diagonal of input Hessian by    9.0853308573396185E-003
 Lowest  eigenvalues of input Hessian
    0.000000    0.000000    0.000000    0.000000    0.000000    0.000000
    0.010000    0.010415    0.010923    0.011387    0.013471    0.018010
    0.018489    0.019278    0.020918    0.023609    0.024849    0.026352
 Highest eigenvalues
    1.890892    1.930170    1.952379    2.004252    2.085290    2.094970


........................................................................
.............................. CYCLE    1 ..............................
........................................................................
   1    -45.9526984 -0.459527E+02  0.686E-05    2.90       0.0  T
   2    -45.9526984 -0.463487E-10  0.466E-05    2.90     405.6  T
   3    -45.9526984 -0.406928E-10  0.231E-05    2.90     817.6  T
     SCC iter.                  ...        0 min,  0.010 sec
     gradient                   ...        0 min,  0.137 sec
 * total energy  :   -45.2582704 Eh     change       -0.3738094E-09 Eh
   gradient norm :     0.0805170 Eh/α   predicted     0.0000000E+00 (-100.00%)
   displ. norm   :     0.2726965 α      lambda       -0.1093116E-01
   maximum displ.:     0.1411337 α      in ANC's #13, #24, #31, ...

........................................................................
.............................. CYCLE    2 ..............................
........................................................................
   1    -45.9904665 -0.459905E+02  0.247E-01    3.05       0.0  T
   2    -45.9906611 -0.194573E-03  0.161E-01    3.06       1.0  T
   3    -45.9906961 -0.350269E-04  0.909E-02    3.06       1.0  T
   4    -45.9907361 -0.400018E-04  0.597E-02    3.05       1.0  T
   5    -45.9907612 -0.250249E-04  0.250E-02    3.05       1.0  T
   6    -45.9907624 -0.120297E-05  0.192E-02    3.05       1.0  T
   7    -45.9907644 -0.205458E-05  0.722E-03    3.05       2.6  T
   8    -45.9907646 -0.238665E-06  0.267E-03    3.05       7.1  T
   9    -45.9907647 -0.453042E-07  0.119E-03    3.05      15.9  T
  10    -45.9907647 -0.828800E-08  0.759E-04    3.05      24.9  T
  11    -45.9907647 -0.492388E-08  0.155E-04    3.05     122.0  T
     SCC iter.                  ...        0 min,  0.024 sec
     gradient                   ...        0 min,  0.130 sec
 * total energy  :   -45.2653837 Eh     change       -0.7113289E-02 Eh
   gradient norm :     0.0304776 Eh/α   predicted    -0.5872044E-02 ( -17.45%)
   displ. norm   :     0.2354661 α      lambda       -0.2545849E-02
   maximum displ.:     0.1397512 α      in ANC's #13, #3, #11, ...

........................................................................
.............................. CYCLE    3 ..............................
........................................................................
   1    -46.0111042 -0.460111E+02  0.136E-01    3.10       0.0  T
   2    -46.0111690 -0.647767E-04  0.962E-02    3.11       1.0  T
   3    -46.0111813 -0.123031E-04  0.510E-02    3.12       1.0  T
   4    -46.0112024 -0.210754E-04  0.203E-02    3.11       1.0  T
   5    -46.0112056 -0.319100E-05  0.129E-02    3.12       1.5  T
   6    -46.0112058 -0.197540E-06  0.894E-03    3.12       2.1  T
   7    -46.0112062 -0.391431E-06  0.423E-03    3.12       4.5  T
   8    -46.0112062 -0.605659E-07  0.231E-03    3.12       8.2  T
   9    -46.0112063 -0.229211E-07  0.464E-04    3.12      40.7  T
  10    -46.0112063 -0.343412E-08  0.181E-04    3.12     104.3  T
     SCC iter.                  ...        0 min,  0.024 sec
     gradient                   ...        0 min,  0.122 sec
 * total energy  :   -45.2666890 Eh     change       -0.1305272E-02 Eh
   gradient norm :     0.0075992 Eh/α   predicted    -0.1343519E-02 (   2.93%)
   displ. norm   :     0.1076920 α      lambda       -0.2139922E-03
   maximum displ.:     0.1006242 α      in ANC's #3, #13, #11, ...

........................................................................
.............................. CYCLE    4 ..............................
........................................................................
   1    -46.0096602 -0.460097E+02  0.423E-02    3.11       0.0  T
   2    -46.0096625 -0.226660E-05  0.250E-02    3.11       1.0  T
   3    -46.0096608  0.172925E-05  0.119E-02    3.11       1.6  T
   4    -46.0096630 -0.219126E-05  0.691E-03    3.11       2.7  T
   5    -46.0096631 -0.190826E-06  0.335E-03    3.11       5.6  T
   6    -46.0096631  0.985770E-08  0.211E-03    3.11       9.0  T
   7    -46.0096632 -0.392346E-07  0.905E-04    3.11      20.9  T
   8    -46.0096632 -0.105894E-08  0.332E-04    3.11      56.9  T
     SCC iter.                  ...        0 min,  0.018 sec
     gradient                   ...        0 min,  0.128 sec
 * total energy  :   -45.2668468 Eh     change       -0.1577895E-03 Eh
   gradient norm :     0.0030131 Eh/α   predicted    -0.1082517E-03 ( -31.39%)
   displ. norm   :     0.1023636 α      lambda       -0.1050001E-03
   maximum displ.:     0.1002173 α      in ANC's #3, #11, #31, ...

........................................................................
.............................. CYCLE    5 ..............................
........................................................................
   1    -46.0083565 -0.460084E+02  0.290E-02    3.10       0.0  T
   2    -46.0083570 -0.456534E-06  0.161E-02    3.10       1.2  T
   3    -46.0083566  0.413717E-06  0.493E-03    3.10       3.8  T
   4    -46.0083571 -0.543480E-06  0.169E-03    3.10      11.2  T
   5    -46.0083571 -0.171128E-07  0.894E-04    3.10      21.1  T
   6    -46.0083571 -0.146712E-08  0.464E-04    3.10      40.8  T
     SCC iter.                  ...        0 min,  0.020 sec
     gradient                   ...        0 min,  0.108 sec
 * total energy  :   -45.2669247 Eh     change       -0.7789313E-04 Eh
   gradient norm :     0.0016911 Eh/α   predicted    -0.5305269E-04 ( -31.89%)
   displ. norm   :     0.1535257 α      lambda        0.4071895E-05
   maximum displ.:     0.1503199 α      in ANC's #3, #11, #31, ...

........................................................................
.............................. CYCLE    6 ..............................
........................................................................
   1    -46.0061178 -0.460061E+02  0.438E-02    3.09       0.0  T
   2    -46.0061188 -0.103284E-05  0.243E-02    3.09       1.0  T
   3    -46.0061179  0.942637E-06  0.745E-03    3.09       2.5  T
   4    -46.0061191 -0.123799E-05  0.259E-03    3.09       7.3  T
   5    -46.0061192 -0.390320E-07  0.140E-03    3.09      13.5  T
   6    -46.0061192 -0.371202E-08  0.730E-04    3.09      25.9  T
   7    -46.0061192 -0.146724E-08  0.467E-04    3.09      40.5  T
     SCC iter.                  ...        0 min,  0.017 sec
     gradient                   ...        0 min,  0.147 sec
 * total energy  :   -45.2669370 Eh     change       -0.1230145E-04 Eh
   gradient norm :     0.0066260 Eh/α   predicted     0.2054892E-05 (-116.70%)
   displ. norm   :     0.0169643 α      lambda       -0.4685393E-04
   maximum displ.:     0.0111027 α      in ANC's #11, #8, #13, ...

........................................................................
.............................. CYCLE    7 ..............................
........................................................................
   1    -46.0075208 -0.460075E+02  0.172E-02    3.10       0.0  T
   2    -46.0075211 -0.284473E-06  0.947E-03    3.10       2.0  T
   3    -46.0075209  0.147947E-06  0.324E-03    3.10       5.8  T
   4    -46.0075211 -0.194654E-06  0.138E-03    3.10      13.7  T
   5    -46.0075212 -0.209374E-07  0.535E-04    3.10      35.3  T
   6    -46.0075212 -0.209013E-09  0.247E-04    3.10      76.5  T
     SCC iter.                  ...        0 min,  0.017 sec
     gradient                   ...        0 min,  0.124 sec
 * total energy  :   -45.2669734 Eh     change       -0.3638617E-04 Eh
   gradient norm :     0.0039049 Eh/α   predicted    -0.2343609E-04 ( -35.59%)
   displ. norm   :     0.0347416 α      lambda       -0.4271540E-04
   maximum displ.:     0.0235147 α      in ANC's #3, #11, #6, ...

........................................................................
.............................. CYCLE    8 ..............................
........................................................................
   1    -46.0091230 -0.460091E+02  0.189E-02    3.11       0.0  T
   2    -46.0091236 -0.642404E-06  0.114E-02    3.11       1.7  T
   3    -46.0091234  0.194802E-06  0.416E-03    3.10       4.5  T
   4    -46.0091237 -0.262918E-06  0.192E-03    3.10       9.8  T
   5    -46.0091237 -0.372424E-07  0.693E-04    3.10      27.3  T
   6    -46.0091237  0.192195E-09  0.408E-04    3.10      46.3  T
     SCC iter.                  ...        0 min,  0.015 sec
     gradient                   ...        0 min,  0.142 sec
 * total energy  :   -45.2669966 Eh     change       -0.2324944E-04 Eh
   gradient norm :     0.0008313 Eh/α   predicted    -0.2138864E-04 (  -8.00%)
   displ. norm   :     0.0323385 α      lambda       -0.4726850E-05
   maximum displ.:     0.0300434 α      in ANC's #3, #6, #11, ...

........................................................................
.............................. CYCLE    9 ..............................
........................................................................
   1    -46.0091126 -0.460091E+02  0.161E-02    3.10       0.0  T
   2    -46.0091126 -0.315106E-07  0.798E-03    3.10       2.4  T
   3    -46.0091126  0.161740E-07  0.112E-03    3.10      16.8  T
   4    -46.0091126 -0.234905E-07  0.567E-04    3.10      33.3  T
   5    -46.0091126 -0.138957E-08  0.264E-04    3.10      71.5  T
     SCC iter.                  ...        0 min,  0.012 sec
     gradient                   ...        0 min,  0.128 sec
 * total energy  :   -45.2670016 Eh     change       -0.4935476E-05 Eh
   gradient norm :     0.0006797 Eh/α   predicted    -0.2367256E-05 ( -52.04%)
   displ. norm   :     0.0323188 α      lambda        0.1125234E-05
   maximum displ.:     0.0300420 α      in ANC's #3, #6, #11, ...

   *** GEOMETRY OPTIMIZATION CONVERGED AFTER 9 ITERATIONS ***

------------------------------------------------------------------------
 total energy gain   :        -0.0087311 Eh       -5.4789 kcal/mol
 total RMSD          :         0.1423952 a0        0.0754 Å
 total power (kW/mol):        -2.5470603 (step)  -10.4759 (real)
------------------------------------------------------------------------

 ANCopt (total)                0 d,  0 h,  0 min,  2.188 sec
 optimizer setup                ...        0 min,  0.000 sec (  0.005%)
 model hessian                  ...        0 min,  0.004 sec (  0.164%)
 ANC generation                 ...        0 min,  0.001 sec (  0.057%)
 coordinate transformation      ...        0 min,  0.000 sec (  0.005%)
 single point calculation       ...        0 min,  2.070 sec ( 94.588%)
 optimization log               ...        0 min,  0.001 sec (  0.037%)
 hessian update                 ...        0 min,  0.111 sec (  5.085%)
 rational function              ...        0 min,  0.001 sec (  0.028%)

================
 final structure:
================
28
 xtb: 6.3.3 (4ae9cef)
I        -6.01067768270825    2.25383516256418   -0.29619995414464
C        -4.14058025320443    1.25544112786623   -0.19951140632072
C        -4.11738093893202   -0.11328451144868   -0.07647055783100
C        -2.87218746154400   -0.73306006055157   -0.01616483614104
C        -1.68265003594500    0.03160286829539   -0.08025003354372
N        -0.61240435202519   -0.84215924851958    0.00199618031081
C        -1.12617170092604   -2.11782240233837    0.11453937908739
C        -2.48081345546691   -2.09719382550418    0.10772103197583
C         0.73678630294775   -0.51108822856928   -0.02187513743997
N         1.03081881678888    0.77934112814061   -0.12747506246399
C         2.29425199547409    1.15575520158078   -0.15423160607409
C         3.37049115366236    0.28169773597801   -0.07868019053125
C         4.78480103557064    0.76284584478135   -0.13516067095728
C         3.05858281446589   -1.07092091247033    0.03268958900700
C         1.74177364763772   -1.48185150213077    0.06272505722865
C        -1.73460824516410    1.41398866116869   -0.20501166476908
C        -2.97488390127155    2.01579822604530   -0.26373339967227
H        -5.02389058031039   -0.69615431759569   -0.02749991462889
H        -0.48562648307540   -2.97285619062442    0.19415104009546
H        -3.13462217622000   -2.94299761786910    0.18138099772124
H         2.45048540656504    2.22378767886758   -0.23957704251320
H         4.86729912671450    1.76917952832948    0.26851831875330
H         5.44067146930732    0.09947241415574    0.42429950616616
H         5.12978660839807    0.78472674408374   -1.16950792054050
H         3.85088573961266   -1.80333239658947    0.09781992504079
H         1.51323930388395   -2.53054956379004    0.15094453152222
H        -0.83199961188693    1.99742674343772   -0.25397454682481
H        -3.04137754234870    3.08836971270677   -0.36048261251248

 Bond Distances (Angstroems)
 ---------------------------
I1-C2=2.1221         C2-I1=2.1221         C2-C3=1.3744         C2-C17=1.3932        C3-C2=1.3744         C3-C4=1.3922         
C3-H18=1.0788        C4-C3=1.3922         C4-C5=1.4156         C4-C8=1.4246         C5-C4=1.4156         C5-N6=1.3841         
C5-C16=1.3890        N6-C5=1.3841         N6-C7=1.3798         N6-C9=1.3894         C7-N6=1.3798         C7-C8=1.3548         
C7-H19=1.0713        C8-C4=1.4246         C8-C7=1.3548         C8-H20=1.0716        C9-N6=1.3894         C9-N10=1.3277        
C9-C15=1.3998        N10-C9=1.3277        N10-C11=1.3186       C11-N10=1.3186       C11-C12=1.3885       C11-H21=1.0828       
C12-C11=1.3885       C12-C13=1.4950       C12-C14=1.3926       C13-C12=1.4950       C13-H22=1.0874       C13-H23=1.0878       
C13-H24=1.0906       C14-C12=1.3926       C14-C15=1.3798       C14-H25=1.0809       C15-C9=1.3998        C15-C14=1.3798       
C15-H26=1.0769       C16-C5=1.3890        C16-C17=1.3798       C16-H27=1.0759       C17-C2=1.3932        C17-C16=1.3798       
C17-H28=1.0790       H18-C3=1.0788        H19-C7=1.0713        H20-C8=1.0716        H21-C11=1.0828       H22-C13=1.0874       
H23-C13=1.0878       H24-C13=1.0906       H25-C14=1.0809       H26-C15=1.0769       H27-C16=1.0759       H28-C17=1.0790       
 C  H  Rav=1.0803 sigma=0.0061  Rmin=1.0713  Rmax=1.0906    11
 C  C  Rav=1.3984 sigma=0.0325  Rmin=1.3548  Rmax=1.4950    13
 N  C  Rav=1.3599 sigma=0.0303  Rmin=1.3186  Rmax=1.3894     5
 I  C  Rav=2.1221 sigma=0.0000  Rmin=2.1221  Rmax=2.1221     1

 selected bond angles (degree)
 --------------------
C3-C2-I1=119.17                C17-C2-I1=118.58               C17-C2-C3=122.24               C4-C3-C2=117.54                
H18-C3-C2=121.86               H18-C3-C4=120.60               C5-C4-C3=120.61                C8-C4-C3=132.51                
C8-C4-C5=106.88                N6-C5-C4=107.82                C16-C5-C4=120.68               C16-C5-N6=131.50               
C7-N6-C5=107.49                C9-N6-C5=126.83                C9-N6-C7=125.68                C8-C7-N6=110.97                
H19-C7-N6=121.42               H19-C7-C8=127.62               C7-C8-C4=106.84                H20-C8-C4=126.45               
H20-C8-C7=126.70               N10-C9-N6=116.62               C15-C9-N6=122.06               C15-C9-N10=121.32              
C11-N10-C9=119.42              

 selected dihedral angles (degree)
 ---------------------------------
C4-C3-C2-I1=180.00            C4-C3-C2-C17=  0.00           H18-C3-C2-I1=  0.00           H18-C3-C2-C17=180.01          
C5-C4-C3-C2=  0.00            C5-C4-C3-H18=180.01           C8-C4-C3-C2=180.01            C8-C4-C3-H18=  0.00           
N6-C5-C4-C3=180.01            N6-C5-C4-C8=  0.00            C16-C5-C4-C3=359.97           C16-C5-C4-C8=179.97           
C7-N6-C5-C4=  0.00            C7-N6-C5-C16=180.03           C9-N6-C5-C4=180.04            C9-N6-C5-C16=  0.08           
C8-C7-N6-C5=  0.00            C8-C7-N6-C9=179.96            H19-C7-N6-C5=180.04           H19-C7-N6-C9=  0.00           
C7-C8-C4-C3=179.99            C7-C8-C4-C5=  0.00            H20-C8-C4-C3=  0.00           H20-C8-C4-C5=179.98           
C4-C8-C7-N6=  0.00            C4-C8-C7-H19=179.97           H20-C8-C7-N6=180.01           H20-C8-C7-H19=359.97          
N10-C9-N6-C5=  0.39           N10-C9-N6-C7=180.44           C15-C9-N6-C5=180.29           C15-C9-N6-C7=  0.34           
C11-N10-C9-N6=179.95          C11-N10-C9-C15=  0.05         
           -------------------------------------------------
          |                Final Singlepoint                |
           -------------------------------------------------

          ...................................................
          :                      SETUP                      :
          :.................................................:
          :  # basis functions                  85          :
          :  # atomic orbitals                  84          :
          :  # shells                           46          :
          :  # electrons                        84          :
          :  max. iterations                   250          :
          :  Hamiltonian                  GFN2-xTB          :
          :  restarted?                      false          :
          :  GBSA solvation                  false          :
          :  PC potential                    false          :
          :  electronic temp.          300.0000000     K    :
          :  accuracy                    1.0000000          :
          :  -> integral cutoff          0.2500000E+02      :
          :  -> integral neglect         0.1000000E-07      :
          :  -> SCF convergence          0.1000000E-05 Eh   :
          :  -> wf. convergence          0.1000000E-03 e    :
          :  Broyden damping             0.4000000          :
          ...................................................

 iter      E             dE          RMSdq      gap      omega  full diag
   1    -46.0091126 -0.460091E+02  0.126E-04    3.10       0.0  T
   2    -46.0091126 -0.390372E-10  0.101E-04    3.10     187.5  T
   3    -46.0091126 -0.687379E-10  0.715E-05    3.10     264.4  T

   *** convergence criteria satisfied after 3 iterations ***

         #    Occupation            Energy/Eh            Energy/eV
      -------------------------------------------------------------
         1        2.0000           -0.7241908             -19.7062
       ...           ...                  ...                  ...
        36        2.0000           -0.4312868             -11.7359
        37        2.0000           -0.4256858             -11.5835
        38        2.0000           -0.4067227             -11.0675
        39        2.0000           -0.3973231             -10.8117
        40        2.0000           -0.3865510             -10.5186
        41        2.0000           -0.3811101             -10.3705
        42        2.0000           -0.3765552             -10.2466 (HOMO)
        43                         -0.2624740              -7.1423 (LUMO)
        44                         -0.2536437              -6.9020
        45                         -0.2397570              -6.5241
        46                         -0.2128701              -5.7925
        47                         -0.2084072              -5.6710
       ...                                ...                  ...
        84                          0.7133933              19.4124
      -------------------------------------------------------------
                  HL-Gap            0.1140812 Eh            3.1043 eV
             Fermi-level           -0.3195146 Eh           -8.6944 eV

 SCC (total)                   0 d,  0 h,  0 min,  0.210 sec
 SCC setup                      ...        0 min,  0.009 sec (  4.371%)
 Dispersion                     ...        0 min,  0.027 sec ( 12.928%)
 classical contributions        ...        0 min,  0.012 sec (  5.622%)
 integral evaluation            ...        0 min,  0.036 sec ( 17.194%)
 iterations                     ...        0 min,  0.007 sec (  3.400%)
 molecular gradient             ...        0 min,  0.118 sec ( 56.345%)
 printout                       ...        0 min,  0.000 sec (  0.109%)

         :::::::::::::::::::::::::::::::::::::::::::::::::::::
         ::                     SUMMARY                     ::
         :::::::::::::::::::::::::::::::::::::::::::::::::::::
         :: total energy             -45.267001551678 Eh    ::
         :: gradient norm              0.000680654738 Eh/a0 ::
         :: HOMO-LUMO gap              3.104307722915 eV    ::
         ::.................................................::
         :: SCC energy               -46.009112606311 Eh    ::
         :: -> isotropic ES            0.014239702013 Eh    ::
         :: -> anisotropic ES          0.002246064864 Eh    ::
         :: -> anisotropic XC          0.025565428487 Eh    ::
         :: -> dispersion             -0.032533072306 Eh    ::
         :: repulsion energy           0.742338859266 Eh    ::
         :: add. restraining           0.000000000000 Eh    ::
         :: total charge              -0.000000000000 e     ::
         :::::::::::::::::::::::::::::::::::::::::::::::::::::

           -------------------------------------------------
          |                Property Printout                |
           -------------------------------------------------

    * Orbital Energies and Occupations

         #    Occupation            Energy/Eh            Energy/eV
      -------------------------------------------------------------
         1        2.0000           -0.7241908             -19.7062
       ...           ...                  ...                  ...
        30        2.0000           -0.4772651             -12.9870
        31        2.0000           -0.4707075             -12.8086
        32        2.0000           -0.4568981             -12.4328
        33        2.0000           -0.4443424             -12.0912
        34        2.0000           -0.4429915             -12.0544
        35        2.0000           -0.4396693             -11.9640
        36        2.0000           -0.4312868             -11.7359
        37        2.0000           -0.4256858             -11.5835
        38        2.0000           -0.4067227             -11.0675
        39        2.0000           -0.3973231             -10.8117
        40        2.0000           -0.3865510             -10.5186
        41        2.0000           -0.3811101             -10.3705
        42        2.0000           -0.3765552             -10.2466 (HOMO)
        43                         -0.2624740              -7.1423 (LUMO)
        44                         -0.2536437              -6.9020
        45                         -0.2397570              -6.5241
        46                         -0.2128701              -5.7925
        47                         -0.2084072              -5.6710
        48                         -0.1695365              -4.6133
        49                         -0.1125566              -3.0628
        50                         -0.0859232              -2.3381
        51                          0.0050192               0.1366
        52                          0.0356863               0.9711
        53                          0.0376513               1.0245
       ...                                ...                  ...
        84                          0.7133933              19.4124
      -------------------------------------------------------------
                  HL-Gap            0.1140812 Eh            3.1043 eV
             Fermi-level           -0.3195146 Eh           -8.6944 eV

     #   Z          covCN         q      C6AA      α(0)
     1  53 I        1.226    -0.152   383.227    33.793
     2   6 C        2.959     0.051    26.860     8.501
     3   6 C        3.046    -0.041    28.976     8.829
     4   6 C        3.121    -0.007    28.006     8.667
     5   6 C        3.085     0.043    26.933     8.507
     6   7 N        2.824    -0.012    21.479     6.883
     7   6 C        3.041    -0.004    28.075     8.691
     8   6 C        2.998    -0.065    29.617     8.927
     9   6 C        2.895     0.142    24.909     8.183
    10   7 N        1.845    -0.246    27.267     7.739
    11   6 C        2.910     0.052    26.835     8.494
    12   6 C        2.960     0.002    27.991     8.678
    13   6 C        3.757    -0.110    22.664     6.788
    14   6 C        2.935    -0.022    28.554     8.764
    15   6 C        2.914    -0.059    29.470     8.902
    16   6 C        2.912    -0.045    29.112     8.847
    17   6 C        3.053    -0.040    28.943     8.823
    18   1 H        0.926     0.047     2.352     2.398
    19   1 H        0.926     0.040     2.452     2.449
    20   1 H        0.926     0.040     2.446     2.446
    21   1 H        0.925     0.041     2.431     2.438
    22   1 H        0.925     0.048     2.345     2.394
    23   1 H        0.925     0.048     2.344     2.394
    24   1 H        0.924     0.053     2.281     2.362
    25   1 H        0.926     0.038     2.470     2.458
    26   1 H        0.926     0.039     2.467     2.456
    27   1 H        0.926     0.070     2.091     2.261
    28   1 H        0.926     0.049     2.338     2.391

 Mol. C6AA /au·bohr⁶  :      14344.005445
 Mol. C8AA /au·bohr⁸  :     472574.693213
 Mol. α(0) /au        :        194.463835


Wiberg/Mayer (AO) data.
largest (>0.10) Wiberg bond orders for each atom

 ---------------------------------------------------------------------------
     #   Z sym  total        # sym  WBO       # sym  WBO       # sym  WBO
 ---------------------------------------------------------------------------
     1  53 I    1.058 --     2 C    0.957
     2   6 C    3.941 --     3 C    1.476    17 C    1.370     1 I    0.957
     3   6 C    3.989 --     2 C    1.476     4 C    1.334    18 H    0.968
                            16 C    0.108
     4   6 C    3.982 --     3 C    1.334     5 C    1.258     8 C    1.200
     5   6 C    3.957 --    16 C    1.356     4 C    1.258     6 N    1.123
     6   7 N    3.633 --     7 C    1.155     5 C    1.123     9 C    1.088
     7   6 C    3.952 --     8 C    1.641     6 N    1.155    19 H    0.964
     8   6 C    3.967 --     7 C    1.641     4 C    1.200    20 H    0.972
     9   6 C    3.968 --    10 N    1.369    15 C    1.334     6 N    1.088
    10   7 N    3.067 --    11 C    1.440     9 C    1.369
    11   6 C    3.981 --    10 N    1.440    12 C    1.399    21 H    0.962
                            15 C    0.109
    12   6 C    3.972 --    11 C    1.399    14 C    1.388    13 C    1.028
    13   6 C    3.995 --    12 C    1.028    22 H    0.981    23 H    0.981
                            24 H    0.965
    14   6 C    3.990 --    15 C    1.477    12 C    1.388    25 H    0.968
    15   6 C    3.986 --    14 C    1.477     9 C    1.334    26 H    0.963
                            11 C    0.109
    16   6 C    3.987 --    17 C    1.475     5 C    1.356    27 H    0.957
                             3 C    0.108
    17   6 C    3.986 --    16 C    1.475     2 C    1.370    28 H    0.970
    18   1 H    0.997 --     3 C    0.968
    19   1 H    0.997 --     7 C    0.964
    20   1 H    0.997 --     8 C    0.972
    21   1 H    0.998 --    11 C    0.962
    22   1 H    0.997 --    13 C    0.981
    23   1 H    0.997 --    13 C    0.981
    24   1 H    0.995 --    13 C    0.965
    25   1 H    0.998 --    14 C    0.968
    26   1 H    0.998 --    15 C    0.963
    27   1 H    0.995 --    16 C    0.957
    28   1 H    0.997 --    17 C    0.970
 ---------------------------------------------------------------------------

Topologies differ in total number of bonds
Writing topology from bond orders to xtbtopo.mol

molecular dipole:
                 x           y           z       tot (Debye)
 q only:        1.796      -0.676       0.051
   full:        2.766      -1.293       0.098       7.764
molecular quadrupole (traceless):
                xx          xy          yy          xz          yz          zz
 q only:       -8.460      10.422       5.894      -1.549      -0.150       2.566
  q+dip:      -17.280      18.918      13.074      -2.688      -0.496       4.206
   full:      -18.557      18.240       9.996      -2.638       0.150       8.561

           -------------------------------------------------
          |                Geometry Summary                 |
           -------------------------------------------------

      molecular mass/u    :      334.1555292
   center of mass at/Å    :       -2.4176390       0.8069329      -0.1527947
  moments of inertia/u·Å² :        0.4681485E+03   0.4515144E+04   0.4980157E+04
rotational constants/cm⁻¹ :        0.3600915E-01   0.3733576E-02   0.3384960E-02

 * 28 selected distances

     #   Z          #   Z                                           value/Å
     2   6 C        3   6 C                                       1.3744407
     3   6 C        4   6 C                                       1.3922160
     4   6 C        5   6 C                                       1.4155619
     5   6 C        6   7 N                                       1.3840703
     6   7 N        7   6 C                                       1.3798331
     4   6 C        8   6 C                                       1.4245639 (max)
     7   6 C        8   6 C                                       1.3548160
     6   7 N        9   6 C                                       1.3894219
     9   6 C       10   7 N                                       1.3277102
    10   7 N       11   6 C                                       1.3185852
    11   6 C       12   6 C                                       1.3885155
    12   6 C       14   6 C                                       1.3925758
     9   6 C       15   6 C                                       1.3998350
    14   6 C       15   6 C                                       1.3797654
     5   6 C       16   6 C                                       1.3889765
     2   6 C       17   6 C                                       1.3932392
    16   6 C       17   6 C                                       1.3798213
     3   6 C       18   1 H                                       1.0788397
     7   6 C       19   1 H                                       1.0713165 (min)
     8   6 C       20   1 H                                       1.0715763
    11   6 C       21   1 H                                       1.0827678
    13   6 C       22   1 H                                       1.0874144
    13   6 C       23   1 H                                       1.0877619
    13   6 C       24   1 H                                       1.0905815
    14   6 C       25   1 H                                       1.0809313
    15   6 C       26   1 H                                       1.0769300
    16   6 C       27   1 H                                       1.0758716
    17   6 C       28   1 H                                       1.0789770

 * 3 distinct bonds (by element types)

   Z      Z             #   av. dist./Å        max./Å        min./Å
   1 H    6 C          11     1.0802698     1.0905815     1.0713165
   6 C    6 C          12     1.3903606     1.4245639     1.3548160
   6 C    7 N           5     1.3599241     1.3894219     1.3185852


optimized geometry written to: xtbopt.xyz


           -------------------------------------------------
          | TOTAL ENERGY              -45.267001551678 Eh   |
          | GRADIENT NORM               0.000680654738 Eh/α |
          | HOMO-LUMO GAP               3.104307722915 eV   |
           -------------------------------------------------

------------------------------------------------------------------------
 * finished run on 2022/03/17 at 02:20:39.046     
------------------------------------------------------------------------
 total:
 * wall-time:     0 d,  0 h,  0 min,  2.711 sec
 *  cpu-time:     0 d,  0 h,  1 min, 25.331 sec
 * ratio c/w:    31.472 speedup
 SCF:
 * wall-time:     0 d,  0 h,  0 min,  0.183 sec
 *  cpu-time:     0 d,  0 h,  0 min,  5.321 sec
 * ratio c/w:    29.103 speedup
 ANC optimizer:
 * wall-time:     0 d,  0 h,  0 min,  2.399 sec
 *  cpu-time:     0 d,  0 h,  1 min, 16.119 sec
 * ratio c/w:    31.733 speedup

