28
 energy: -45.258270435062 gnorm: 0.080516965500 xtb: 6.3.3 (4ae9cef)
I        -6.09890200000000    2.18976300000000   -0.29137100000000
C        -4.23575500000000    1.26756600000000   -0.20092000000000
C        -4.16135700000000   -0.12097100000000   -0.07620400000000
C        -2.89706000000000   -0.74499700000000   -0.01498800000000
C        -1.73220200000000    0.03285700000000   -0.07974700000000
N        -0.63187800000000   -0.83652400000000    0.00244900000000
C        -1.12797100000000   -2.12693500000000    0.11667200000000
C        -2.50085200000000   -2.09579800000000    0.10788100000000
C         0.76260200000000   -0.47057200000000   -0.02473100000000
N         1.08425600000000    0.84198500000000   -0.13853600000000
C         2.39270700000000    1.18391600000000   -0.16178500000000
C         3.43576100000000    0.27655900000000   -0.06611400000000
C         4.86110800000000    0.72123600000000   -0.13364500000000
C         3.09595700000000   -1.06928500000000    0.03465800000000
C         1.75193200000000   -1.45042700000000    0.06130500000000
C        -1.82065700000000    1.43512100000000   -0.20580000000000
C        -3.08241700000000    2.03767500000000   -0.26507100000000
H        -5.06045100000000   -0.72781100000000   -0.02557100000000
H        -0.47825300000000   -2.98435400000000    0.19746400000000
H        -3.15157900000000   -2.95738400000000    0.18275200000000
H         2.57936800000000    2.24999200000000   -0.26371900000000
H         4.97986300000000    1.72052000000000    0.29834100000000
H         5.50886000000000    0.04386300000000    0.43276300000000
H         5.19865100000000    0.74392600000000   -1.17437700000000
H         3.86959200000000   -1.83135400000000    0.09375900000000
H         1.53055800000000   -2.50660800000000    0.14571900000000
H        -0.93370900000000    2.05876100000000   -0.25800100000000
H        -3.13817300000000    3.11927800000000   -0.36220400000000
28
 energy: -45.265383724022 gnorm: 0.030477643139 xtb: 6.3.3 (4ae9cef)
I        -6.10795645917932    2.19241511139285   -0.29167249036738
C        -4.20402378242305    1.24613019392267   -0.19890328508120
C        -4.14256410821157   -0.12684139588301   -0.07562059601195
C        -2.88404907734323   -0.73250558382189   -0.01596530586286
C        -1.70993940979413    0.04922571096552   -0.08109977000629
N        -0.61849533453463   -0.81292956180208    0.00065952333061
C        -1.11962726185154   -2.09760457857397    0.11424311328049
C        -2.48036346998081   -2.08578676592647    0.10732953694151
C         0.75426042420542   -0.47089207973150   -0.02492560468826
N         1.06842996405847    0.82282047634509   -0.13704603116328
C         2.35481793000271    1.16688485243029   -0.16154617353307
C         3.41169084015048    0.27183345218629   -0.07433227131183
C         4.83972095787464    0.72179127320189   -0.12915656136154
C         3.07483498207760   -1.07244244217228    0.03419594983774
C         1.74223254491633   -1.45273856282712    0.06127351633845
C        -1.79336068466127    1.43380955032134   -0.20568463660672
C        -3.04772834810914    2.01918462126874   -0.26333436069612
H        -5.04027965772639   -0.72778976983759   -0.02552906341458
H        -0.47431477400321   -2.95060218802170    0.19437090100041
H        -3.12242678013265   -2.94551890695139    0.18191488868375
H         2.53402160334964    2.23121913102667   -0.25589325397638
H         4.95632717103967    1.72131475260936    0.28939200316191
H         5.48706146856036    0.04104752729340    0.42470080748913
H         5.18539550826831    0.74615337522269   -1.16330853344008
H         3.84867187782871   -1.82663309532869    0.09808671204375
H         1.51294377208985   -2.50302270966208    0.14560387053995
H        -0.90839456485847    2.04708257450591   -0.25687397531772
H        -3.11688633161277    3.09439303784706   -0.35989990980842
28
 energy: -45.266688995734 gnorm: 0.007599233348 xtb: 6.3.3 (4ae9cef)
I        -6.05970810056171    2.19723314074436   -0.29189812568106
C        -4.17435186693766    1.23561975209654   -0.19777753312440
C        -4.12815077780620   -0.12969259198829   -0.07512361473659
C        -2.87342334237310   -0.72687508617372   -0.01631995384653
C        -1.69305663733162    0.05526017273258   -0.08171964669479
N        -0.61034007210665   -0.80476293959777   -0.00071887775525
C        -1.11170620140835   -2.08595659627166    0.11302012338789
C        -2.46549718994849   -2.08390024848536    0.10743781140100
C         0.74317677280185   -0.47698481833094   -0.02653354767441
N         1.05240427324553    0.80762422516209   -0.13560062108078
C         2.32339344381245    1.16021794855699   -0.15978280824995
C         3.38955955288635    0.27291522721376   -0.07830079136187
C         4.81523754213300    0.72725483063693   -0.12900703534812
C         3.05752325717513   -1.07351068052350    0.03389263410511
C         1.73334523145869   -1.46015999487549    0.06028955880789
C        -1.77022623917988    1.43386916109429   -0.20568874118216
C        -3.02104588133433    2.01395221549043   -0.26278155585663
H        -5.02516304668042   -0.72721113580095   -0.02534236912938
H        -0.46679666759740   -2.93634832853947    0.19289957890907
H        -3.10459399766380   -2.94044111578444    0.18196707703092
H         2.49714397788652    2.22480506046471   -0.25040221978256
H         4.92328997164301    1.72665318125317    0.28469859793397
H         5.45738359350200    0.04327186253789    0.42191206727030
H         5.16317773958133    0.75164941658455   -1.16191182223857
H         3.83482860348904   -1.82077889547917    0.10139144959077
H         1.49771025046631   -2.50683109407490    0.14766358970107
H        -0.88170863687757    2.03764976441593   -0.25613746039697
H        -3.10240655227406    3.08547556694145   -0.35914676399798
28
 energy: -45.266846785231 gnorm: 0.003013145913 xtb: 6.3.3 (4ae9cef)
I        -6.05009040939507    2.21188183794078   -0.29313057115610
C        -4.16403973295898    1.24145640799323   -0.19822715816392
C        -4.12382590369678   -0.12634860106454   -0.07531069666765
C        -2.87132350630572   -0.72873323150171   -0.01625177207362
C        -1.68867944833195    0.04925784187979   -0.08157956265581
N        -0.61019360984564   -0.81394824788241   -0.00021465207276
C        -1.11278974489692   -2.09395542408130    0.11326233863818
C        -2.46666576286040   -2.08818839226225    0.10773819796273
C         0.73981041523714   -0.48538424535615   -0.02583584336086
N         1.04563614913011    0.80149944323244   -0.13430497772216
C         2.31441655452126    1.16151105253142   -0.15972509616162
C         3.38259817216315    0.27658943370208   -0.07927723978416
C         4.80521283026410    0.73485048706153   -0.13055473177530
C         3.05568320602465   -1.07198598973025    0.03331067182726
C         1.73413763357465   -1.46617139200501    0.06079044591347
C        -1.75853054686733    1.42996910528730   -0.20566749268965
C        -3.00735429847761    2.01570098029714   -0.26303606869264
H        -5.02225233226685   -0.72156538996042   -0.02553349867606
H        -0.46804637261661   -2.94501073386794    0.19327172954296
H        -3.10915960311198   -2.94198112933595    0.18239929253009
H         2.48495371629039    2.22725641703118   -0.24794520965578
H         4.90733793894848    1.73497088563987    0.28294323378122
H         5.44721663943194    0.05254125420734    0.42229509805140
H         5.15205819340373    0.75916063382063   -1.16420697487254
H         3.83709716182654   -1.81543411659798    0.10145569581173
H         1.49933753148759   -2.51294055037550    0.14916048246762
H        -0.86498181113359    2.02789092992951   -0.25554783641834
H        -3.08756405953828    3.08710873346720   -0.35929880392772
28
 energy: -45.266924678358 gnorm: 0.001691103977 xtb: 6.3.3 (4ae9cef)
I        -6.03730372816018    2.22394146546960   -0.29404296199321
C        -4.15521126677723    1.24734661357557   -0.19877206075425
C        -4.12122478830800   -0.12190807516869   -0.07563980005247
C        -2.87102907435506   -0.73041853661310   -0.01619260947647
C        -1.68631759370097    0.04286342546876   -0.08131623800296
N        -0.61106293728066   -0.82390648474493    0.00026703849248
C        -1.11614246424578   -2.10272537856839    0.11364534070337
C        -2.47056682915083   -2.09196711033841    0.10791046094201
C         0.73765776833675   -0.49400954219584   -0.02508178746562
N         1.04011183548995    0.79513290904043   -0.13258350543083
C         2.30730972440518    1.16197145424915   -0.15855110303341
C         3.37730575785714    0.27976361469774   -0.07950575611175
C         4.79724078063245    0.74301556006477   -0.13206338661087
C         3.05567281706156   -1.07045643225753    0.03294447711469
C         1.73639513369154   -1.47166462433943    0.06142304127360
C        -1.74929561844578    1.42530312860206   -0.20552070890474
C        -2.99559379664504    2.01700948192428   -0.26329715260173
H        -5.02178271435240   -0.71386573615307   -0.02592260335611
H        -0.47178554658758   -2.95464715968232    0.19355033706694
H        -3.11729927975067   -2.94289061629211    0.18247566329938
H         2.47397873422829    2.22853165258890   -0.24586212743027
H         4.89428679036764    1.74441093027981    0.28000507481605
H         5.44173855766372    0.06461360452611    0.42262441540806
H         5.14327167394857    0.76714587622806   -1.16611268136368
H         3.84148316141273   -1.80982053577318    0.10065820018421
H         1.50268166296747   -2.51873995559353    0.15051781102200
H        -0.85134773751145    2.01725168254099   -0.25500644569376
H        -3.07317202279137    3.08871678846438   -0.35957193204070
28
 energy: -45.266936979809 gnorm: 0.006625988467 xtb: 6.3.3 (4ae9cef)
I        -6.01812603451512    2.24205491037497   -0.29513971899021
C        -4.14197036971787    1.25618459064892   -0.19954580393770
C        -4.11732412407167   -0.11524158690529   -0.07606392064407
C        -2.87058796724755   -0.73294573889770   -0.01609847308564
C        -1.68277526814881    0.03326568454791   -0.08099859497899
N        -0.61236668775463   -0.83885062641998    0.00089973771214
C        -1.12117167279070   -2.11588292916754    0.11417717259899
C        -2.47641865983578   -2.09763301271335    0.10818554088686
C         0.73442956769888   -0.50695606077328   -0.02405763278129
N         1.03182629540687    0.78557364172590   -0.13011081398740
C         2.29665012019285    1.16265614457164   -0.15684729019108
C         3.36936691226730    0.28452466247733   -0.07984240808273
C         4.78528478041473    0.75527206450762   -0.13422065020524
C         3.05565743196582   -1.06816368211156    0.03238219718529
C         1.73978158045314   -1.47991001227675    0.06230149665798
C        -1.73544460425649    1.41829396697512   -0.20541640206210
C        -2.97795476409252    2.01896641299361   -0.26374503835778
H        -5.02107954835443   -0.70230329272113   -0.02635537009752
H        -0.47739443677117   -2.96910398233505    0.19392837843642
H        -3.12950881432504   -2.94424774133268    0.18266478366548
H         2.45751728026955    2.23043856583655   -0.24279278624200
H         4.87467625820228    1.75857917056384    0.27571539408700
H         5.43348860946397    0.08273437218504    0.42326828952898
H         5.13016665766293    0.77913758607560   -1.16884150753952
H         3.84806229267942   -1.80139822287100    0.09949268660991
H         1.50769812625067   -2.52744423939346    0.15248833268866
H        -0.83089854318101    2.00127675474521   -0.25438300642487
H        -3.05158541786565    3.09112059968961   -0.36006559244965
28
 energy: -45.266973365975 gnorm: 0.003904885030 xtb: 6.3.3 (4ae9cef)
I        -6.01701474541512    2.24553662145289   -0.29547534433581
C        -4.14290078544270    1.25473195451459   -0.19938562228720
C        -4.11767458524205   -0.11555757891764   -0.07608927154224
C        -2.87107191342431   -0.73281051496737   -0.01614284320674
C        -1.68315635058666    0.03361281415615   -0.08091100078615
N        -0.61220168575754   -0.83831928443404    0.00110879571770
C        -1.12219024567088   -2.11519935290860    0.11417211207722
C        -2.47710235363863   -2.09703643900891    0.10802375881801
C         0.73536590340533   -0.50694215078407   -0.02342168304823
N         1.03225662851160    0.78446367064453   -0.12974164465274
C         2.29670559137474    1.16058466439144   -0.15650803396457
C         3.37026979367473    0.28345415130480   -0.07956915754654
C         4.78629669850753    0.75627249799195   -0.13422591840465
C         3.05649175923541   -1.06895144980825    0.03259416547489
C         1.74027551354349   -1.47961383266289    0.06247835401500
C        -1.73671646316085    1.41750108915646   -0.20537336440549
C        -2.97883297645941    2.01745749781622   -0.26367212093828
H        -5.02182888984318   -0.70191792037210   -0.02653668684735
H        -0.47922376920459   -2.96871112668392    0.19384405402937
H        -3.12999543769935   -2.94365365088419    0.18233169571925
H         2.45660856847987    2.22829831903747   -0.24231529055646
H         4.87504806991409    1.76009495835067    0.27448906113537
H         5.43631956248571    0.08542820440676    0.42315885315382
H         5.13139803804394    0.78000561775119   -1.16865999706832
H         3.84853382783744   -1.80218149546621    0.09913730499313
H         1.50873114291514   -2.52732086385405    0.15205297715782
H        -0.83328021541717    2.00108086346619   -0.25433439034140
H        -3.05111168096660    3.08969073631101   -0.36004976235945
28
 energy: -45.266996615418 gnorm: 0.000831260670 xtb: 6.3.3 (4ae9cef)
I        -6.01507327410454    2.24751023825862   -0.29550297032008
C        -4.14230425166905    1.25461252232294   -0.19948152346726
C        -4.11800750054780   -0.11413573098759   -0.07635542783546
C        -2.87209522334914   -0.73242715548966   -0.01618909358517
C        -1.68320932610907    0.03318069524631   -0.08050234479084
N        -0.61224254133143   -0.83955290653683    0.00157011210373
C        -1.12495347707543   -2.11571876126847    0.11438092576905
C        -2.47953612074474   -2.09633919472267    0.10777524319798
C         0.73672629782229   -0.50868973109134   -0.02252811858609
N         1.03198828143868    0.78148298162111   -0.12860934025123
C         2.29581473228074    1.15698687238068   -0.15511491748656
C         3.37117298408815    0.28190002578735   -0.07885769939641
C         4.78657774586455    0.75977794091142   -0.13460411878204
C         3.05808769734826   -1.07041936654310    0.03284292758544
C         1.74127752271272   -1.48032851238847    0.06265361178924
C        -1.73633552020841    1.41559214010240   -0.20510296047472
C        -2.97723198804912    2.01602002384649   -0.26366622242886
H        -5.02366881442309   -0.69833027391357   -0.02719008257440
H        -0.48373787295622   -2.97020245009616    0.19392833764892
H        -3.13274190260671   -2.94258103700470    0.18160004033614
H         2.45339740701441    2.22475433613869   -0.24112434166086
H         4.87223908729887    1.76497156232656    0.27130121542287
H         5.44045441200631    0.09318805406210    0.42340881514628
H         5.13166649753272    0.78282458513208   -1.16890973983862
H         3.84994487145828   -1.80332359551556    0.09842610186103
H         1.51145763687740   -2.52860810363204    0.15132932101119
H        -0.83393854492431    1.99941522829588   -0.25417107794235
H        -3.04572981564435    3.08843761275762   -0.36032767245101
28
 energy: -45.267001550894 gnorm: 0.000679680647 xtb: 6.3.3 (4ae9cef)
I        -6.01067768270825    2.25383516256418   -0.29619995414464
C        -4.14058025320443    1.25544112786623   -0.19951140632072
C        -4.11738093893202   -0.11328451144868   -0.07647055783100
C        -2.87218746154400   -0.73306006055157   -0.01616483614104
C        -1.68265003594500    0.03160286829539   -0.08025003354372
N        -0.61240435202519   -0.84215924851958    0.00199618031081
C        -1.12617170092604   -2.11782240233837    0.11453937908739
C        -2.48081345546691   -2.09719382550418    0.10772103197583
C         0.73678630294775   -0.51108822856928   -0.02187513743997
N         1.03081881678888    0.77934112814061   -0.12747506246399
C         2.29425199547409    1.15575520158078   -0.15423160607409
C         3.37049115366236    0.28169773597801   -0.07868019053125
C         4.78480103557064    0.76284584478135   -0.13516067095728
C         3.05858281446589   -1.07092091247033    0.03268958900700
C         1.74177364763772   -1.48185150213077    0.06272505722865
C        -1.73460824516410    1.41398866116869   -0.20501166476908
C        -2.97488390127155    2.01579822604530   -0.26373339967227
H        -5.02389058031039   -0.69615431759569   -0.02749991462889
H        -0.48562648307540   -2.97285619062442    0.19415104009546
H        -3.13462217622000   -2.94299761786910    0.18138099772124
H         2.45048540656504    2.22378767886758   -0.23957704251320
H         4.86729912671450    1.76917952832948    0.26851831875330
H         5.44067146930732    0.09947241415574    0.42429950616616
H         5.12978660839807    0.78472674408374   -1.16950792054050
H         3.85088573961266   -1.80333239658947    0.09781992504079
H         1.51323930388395   -2.53054956379004    0.15094453152222
H        -0.83199961188693    1.99742674343772   -0.25397454682481
H        -3.04137754234870    3.08836971270677   -0.36048261251248
