28
 energy: -45.267001551678 gnorm: 0.000680654738 xtb: 6.3.3 (4ae9cef)
I        -6.01067768270825    2.25383516256418   -0.29619995414464
C        -4.14058025320443    1.25544112786623   -0.19951140632072
C        -4.11738093893202   -0.11328451144868   -0.07647055783100
C        -2.87218746154400   -0.73306006055157   -0.01616483614104
C        -1.68265003594500    0.03160286829539   -0.08025003354372
N        -0.61240435202519   -0.84215924851958    0.00199618031081
C        -1.12617170092604   -2.11782240233837    0.11453937908739
C        -2.48081345546691   -2.09719382550418    0.10772103197583
C         0.73678630294775   -0.51108822856928   -0.02187513743997
N         1.03081881678888    0.77934112814061   -0.12747506246399
C         2.29425199547409    1.15575520158078   -0.15423160607409
C         3.37049115366236    0.28169773597801   -0.07868019053125
C         4.78480103557064    0.76284584478135   -0.13516067095728
C         3.05858281446589   -1.07092091247033    0.03268958900700
C         1.74177364763772   -1.48185150213077    0.06272505722865
C        -1.73460824516410    1.41398866116869   -0.20501166476908
C        -2.97488390127155    2.01579822604530   -0.26373339967227
H        -5.02389058031039   -0.69615431759569   -0.02749991462889
H        -0.48562648307540   -2.97285619062442    0.19415104009546
H        -3.13462217622000   -2.94299761786910    0.18138099772124
H         2.45048540656504    2.22378767886758   -0.23957704251320
H         4.86729912671450    1.76917952832948    0.26851831875330
H         5.44067146930732    0.09947241415574    0.42429950616616
H         5.12978660839807    0.78472674408374   -1.16950792054050
H         3.85088573961266   -1.80333239658947    0.09781992504079
H         1.51323930388395   -2.53054956379004    0.15094453152222
H        -0.83199961188693    1.99742674343772   -0.25397454682481
H        -3.04137754234870    3.08836971270677   -0.36048261251248
