      -----------------------------------------------------------      
     |                   =====================                   |     
     |                           x T B                           |     
     |                   =====================                   |     
     |                         S. Grimme                         |     
     |          Mulliken Center for Theoretical Chemistry        |     
     |                    University of Bonn                     |     
      -----------------------------------------------------------      

   * xtb version 6.3.3 (4ae9cef) compiled by 'conda@95abc7406d43' on 2020-10-14

   xtb is free software: you can redistribute it and/or modify it under
   the terms of the GNU Lesser General Public License as published by
   the Free Software Foundation, either version 3 of the License, or
   (at your option) any later version.
   
   xtb is distributed in the hope that it will be useful,
   but WITHOUT ANY WARRANTY; without even the implied warranty of
   MERCHANTABILITY or FITNESS FOR A PARTICULAR PURPOSE.  See the
   GNU Lesser General Public License for more details.
   
   Cite this work as:
   * C. Bannwarth, E. Caldeweyher, S. Ehlert, A. Hansen, P. Pracht,
     J. Seibert, S. Spicher, S. Grimme, WIREs Comput. Mol. Sci., 2020,
     e01493. DOI: 10.1002/wcms.1493
   
   for GFN2-xTB:
   * S. Grimme, C. Bannwarth, P. Shushkov, J. Chem. Theory Comput., 2017,
     13, 1989-2009. DOI: 10.1021/acs.jctc.7b00118
   for GFN1-xTB:
   * C. Bannwarth, S. Ehlert and S. Grimme., J. Chem. Theory Comput., 2019,
     15, 1652-1671. DOI: 10.1021/acs.jctc.8b01176
   for GFN0-xTB:
   * P. Pracht, E. Caldeweyher, S. Ehlert, S. Grimme, ChemRxiv, 2019, preprint.
     DOI: 10.26434/chemrxiv.8326202.v1
   for GFN-FF:
   * S. Spicher and S. Grimme, Angew. Chem. Int. Ed., 2020, 59, 15665-15673.
     DOI: 10.1002/anie.202004239
   
   for DFT-D4:
   * E. Caldeweyher, C. Bannwarth and S. Grimme, J. Chem. Phys., 2017,
     147, 034112. DOI: 10.1063/1.4993215
   * E. Caldeweyher, S. Ehlert, A. Hansen, H. Neugebauer, S. Spicher,
     C. Bannwarth and S. Grimme, J. Chem. Phys., 2019, 150, 154122.
     DOI: 10.1063/1.5090222
   * E. Caldeweyher, J.-M. Mewes, S. Ehlert and S. Grimme, Phys. Chem. Chem. Phys.
     2020, 22, 8499-8512. DOI: 10.1039/D0CP00502A
   
   for sTDA-xTB:
   * S. Grimme and C. Bannwarth, J. Chem. Phys., 2016, 145, 054103.
     DOI: 10.1063/1.4959605
   
   in the mass-spec context:
   * V. Asgeirsson, C. Bauer and S. Grimme, Chem. Sci., 2017, 8, 4879.
     DOI: 10.1039/c7sc00601b
   * J. Koopman and S. Grimme, ACS Omega 2019, 4, 12, 15120-15133.
     DOI: 10.1021/acsomega.9b02011
   
   for metadynamics refer to:
   * S. Grimme, J. Chem. Theory Comput., 2019, 155, 2847-2862
     DOI: 10.1021/acs.jctc.9b00143
   
   with help from (in alphabetical order)
   C. Bannwarth, F. Bohle, G. Brandenburg, E. Caldeweyher, M. Checinski,
   S. Dohm, S. Ehlert, S. Ehrlich, F. März, H. Neugebauer, J. Pisarek,
   P. Pracht, P. Shushkov, and S. Spicher.
   
 * started run on 2022/03/17 at 01:58:32.286     

           -------------------------------------------------
          |                Calculation Setup                |
           -------------------------------------------------

          program call               : xtb acid_67.xyz --opt --chrg 0 --uhf 0 --gfn 2
          coordinate file            : acid_67.xyz
          omp threads                :                    64
          number of atoms            :                    68
          number of electrons        :                   214
          charge                     :                     0
          spin                       :                   0.0
          first test random number   :      0.94490091734693

   ID    Z sym.   atoms
    1    6 C      1, 3-16, 18, 20-22, 24-27, 29, 30, 34-40
    2    8 O      2, 17, 28, 31, 32, 42
    3    7 N      19, 33
    4   17 Cl     23, 41
    5    1 H      43-68

           -------------------------------------------------
          |                 G F N 2 - x T B                 |
           -------------------------------------------------

        Reference                      10.1021/acs.jctc.8b01176
      * Hamiltonian:
        H0-scaling (s, p, d)           1.850000    2.230000    2.230000
        zeta-weighting                 0.500000
      * Dispersion:
        s8                             2.700000
        a1                             0.520000
        a2                             5.000000
        s9                             5.000000
      * Repulsion:
        kExp                           1.500000    1.000000
        rExp                           1.000000
      * Coulomb:
        alpha                          2.000000
        third order                    shell-resolved
        anisotropic                    true
        a3                             3.000000
        a5                             4.000000
        cn-shift                       1.200000
        cn-exp                         4.000000
        max-rad                        5.000000


          ...................................................
          :                      SETUP                      :
          :.................................................:
          :  # basis functions                 206          :
          :  # atomic orbitals                 204          :
          :  # shells                          112          :
          :  # electrons                       214          :
          :  max. iterations                   250          :
          :  Hamiltonian                  GFN2-xTB          :
          :  restarted?                      false          :
          :  GBSA solvation                  false          :
          :  PC potential                    false          :
          :  electronic temp.          300.0000000     K    :
          :  accuracy                    1.0000000          :
          :  -> integral cutoff          0.2500000E+02      :
          :  -> integral neglect         0.1000000E-07      :
          :  -> SCF convergence          0.1000000E-05 Eh   :
          :  -> wf. convergence          0.1000000E-03 e    :
          :  Broyden damping             0.4000000          :
          ...................................................

 iter      E             dE          RMSdq      gap      omega  full diag
   1   -122.4910929 -0.122491E+03  0.479E+00    3.21       0.0  T
   2   -122.6622187 -0.171126E+00  0.273E+00    3.23       1.0  T
   3   -122.6568411  0.537759E-02  0.132E+00    3.51       1.0  T
   4   -122.6819915 -0.251504E-01  0.318E-01    3.09       1.0  T
   5   -122.6859781 -0.398661E-02  0.102E-01    3.09       1.0  T
   6   -122.6862092 -0.231088E-03  0.525E-02    3.13       1.0  T
   7   -122.6862379 -0.287355E-04  0.250E-02    3.13       1.0  T
   8   -122.6862458 -0.791536E-05  0.135E-02    3.14       1.0  T
   9   -122.6862480 -0.220681E-05  0.979E-03    3.14       1.2  T
  10   -122.6862501 -0.210778E-05  0.625E-03    3.14       1.9  T
  11   -122.6862510 -0.856018E-06  0.308E-03    3.14       3.9  T
  12   -122.6862513 -0.298361E-06  0.139E-03    3.14       8.7  T
  13   -122.6862513 -0.337074E-07  0.826E-04    3.14      14.7  T
  14   -122.6862513 -0.127259E-07  0.536E-04    3.14      22.6  T

   *** convergence criteria satisfied after 14 iterations ***

         #    Occupation            Energy/Eh            Energy/eV
      -------------------------------------------------------------
         1        2.0000           -1.0618556             -28.8946
       ...           ...                  ...                  ...
       101        2.0000           -0.4028003             -10.9608
       102        2.0000           -0.4000908             -10.8870
       103        2.0000           -0.3945226             -10.7355
       104        2.0000           -0.3937333             -10.7140
       105        2.0000           -0.3892865             -10.5930
       106        2.0000           -0.3855521             -10.4914
       107        2.0000           -0.3832677             -10.4292 (HOMO)
       108                         -0.2678790              -7.2894 (LUMO)
       109                         -0.2529865              -6.8841
       110                         -0.2514761              -6.8430
       111                         -0.2508260              -6.8253
       112                         -0.2451153              -6.6699
       ...                                ...                  ...
       204                          0.6225113              16.9394
      -------------------------------------------------------------
                  HL-Gap            0.1153887 Eh            3.1399 eV
             Fermi-level           -0.3255733 Eh           -8.8593 eV

 SCC (total)                   0 d,  0 h,  0 min,  0.565 sec
 SCC setup                      ...        0 min,  0.015 sec (  2.608%)
 Dispersion                     ...        0 min,  0.012 sec (  2.049%)
 classical contributions        ...        0 min,  0.016 sec (  2.821%)
 integral evaluation            ...        0 min,  0.093 sec ( 16.420%)
 iterations                     ...        0 min,  0.284 sec ( 50.314%)
 molecular gradient             ...        0 min,  0.143 sec ( 25.303%)
 printout                       ...        0 min,  0.003 sec (  0.470%)

         :::::::::::::::::::::::::::::::::::::::::::::::::::::
         ::                     SUMMARY                     ::
         :::::::::::::::::::::::::::::::::::::::::::::::::::::
         :: total energy            -121.163328560172 Eh    ::
         :: gradient norm              0.094168998287 Eh/a0 ::
         :: HOMO-LUMO gap              3.139886861533 eV    ::
         ::.................................................::
         :: SCC energy              -122.686251323335 Eh    ::
         :: -> isotropic ES            0.159366003616 Eh    ::
         :: -> anisotropic ES          0.002615397793 Eh    ::
         :: -> anisotropic XC          0.039202457111 Eh    ::
         :: -> dispersion             -0.100871139546 Eh    ::
         :: repulsion energy           1.518338529093 Eh    ::
         :: add. restraining           0.000000000000 Eh    ::
         :: total charge               0.000000000000 e     ::
         :::::::::::::::::::::::::::::::::::::::::::::::::::::

      ----------------------------------------------------------- 
     |                   =====================                   |
     |                        A N C O P T                        |
     |                   =====================                   |
     |               Approximate Normal Coordinate               |
     |                Rational Function Optimizer                |
      ----------------------------------------------------------- 

          ...................................................
          :                      SETUP                      :
          :.................................................:
          :   optimization level            normal          :
          :   max. optcycles                   204          :
          :   ANC micro-cycles                  20          :
          :   degrees of freedom               198          :
          :.................................................:
          :   RF solver                   davidson          :
          :   write xtbopt.log                true          :
          :   linear?                        false          :
          :   energy convergence         0.5000000E-05 Eh   :
          :   grad. convergence          0.1000000E-02 Eh/α :
          :   maximium RF displ.         1.0000000          :
          :   Hlow (freq-cutoff)         0.1000000E-01      :
          :   Hmax (freq-cutoff)         5.0000000          :
          :   S6 in model hess.         20.0000000          :
          ...................................................

generating ANC from model Hessian ...
Using Lindh-Hessian (1995)
 Shifting diagonal of input Hessian by    9.8121402960540029E-003
 Lowest  eigenvalues of input Hessian
    0.000000    0.000000    0.000000    0.000000    0.000000    0.000000
    0.010000    0.010130    0.010189    0.010245    0.010380    0.010429
    0.010505    0.010708    0.010942    0.011320    0.011647    0.011881
 Highest eigenvalues
    1.982063    2.019015    2.019776    2.195964    2.228598    2.236513


........................................................................
.............................. CYCLE    1 ..............................
........................................................................
   1   -122.6862513 -0.122686E+03  0.356E-04    3.14       0.0  T
   2   -122.6862513 -0.129180E-08  0.298E-04    3.14      40.6  T
   3   -122.6862513 -0.789086E-09  0.242E-04    3.14      50.2  T
     SCC iter.                  ...        0 min,  0.062 sec
     gradient                   ...        0 min,  0.128 sec
 * total energy  :  -121.1633286 Eh     change       -0.8163468E-08 Eh
   gradient norm :     0.0941632 Eh/α   predicted     0.0000000E+00 (-100.00%)
   displ. norm   :     0.3902662 α      lambda       -0.2077824E-01
   maximum displ.:     0.1102461 α      in ANC's #66, #59, #44, ...

........................................................................
.............................. CYCLE    2 ..............................
........................................................................
   1   -122.7717098 -0.122772E+03  0.181E-01    3.40       0.0  T
   2   -122.7718279 -0.118143E-03  0.111E-01    3.33       1.0  T
   3   -122.7717693  0.586826E-04  0.477E-02    3.34       1.0  T
   4   -122.7718655 -0.962275E-04  0.110E-02    3.32       1.1  T
   5   -122.7718690 -0.348365E-05  0.718E-03    3.32       1.7  T
   6   -122.7718698 -0.793158E-06  0.537E-03    3.32       2.3  T
   7   -122.7718703 -0.578213E-06  0.362E-03    3.32       3.3  T
   8   -122.7718706 -0.309588E-06  0.227E-03    3.32       5.4  T
   9   -122.7718708 -0.192218E-06  0.855E-04    3.32      14.2  T
  10   -122.7718709 -0.169744E-07  0.430E-04    3.32      28.2  T
     SCC iter.                  ...        0 min,  0.204 sec
     gradient                   ...        0 min,  0.132 sec
 * total energy  :  -121.1779837 Eh     change       -0.1465510E-01 Eh
   gradient norm :     0.0354136 Eh/α   predicted    -0.1197147E-01 ( -18.31%)
   displ. norm   :     0.4090949 α      lambda       -0.7584562E-02
   maximum displ.:     0.1266033 α      in ANC's #22, #30, #25, ...

........................................................................
.............................. CYCLE    3 ..............................
........................................................................
   1   -122.8141561 -0.122814E+03  0.128E-01    3.45       0.0  T
   2   -122.8142477 -0.916909E-04  0.791E-02    3.41       1.0  T
   3   -122.8142254  0.223513E-04  0.366E-02    3.41       1.0  T
   4   -122.8142750 -0.495572E-04  0.995E-03    3.40       1.2  T
   5   -122.8142794 -0.445245E-05  0.582E-03    3.40       2.1  T
   6   -122.8142799 -0.465719E-06  0.442E-03    3.40       2.7  T
   7   -122.8142803 -0.402575E-06  0.302E-03    3.40       4.0  T
   8   -122.8142805 -0.252138E-06  0.174E-03    3.40       7.0  T
   9   -122.8142806 -0.105121E-06  0.675E-04    3.40      18.0  T
  10   -122.8142806 -0.958561E-08  0.335E-04    3.40      36.2  T
     SCC iter.                  ...        0 min,  0.205 sec
     gradient                   ...        0 min,  0.110 sec
 * total energy  :  -121.1827477 Eh     change       -0.4764054E-02 Eh
   gradient norm :     0.0133634 Eh/α   predicted    -0.4426954E-02 (  -7.08%)
   displ. norm   :     0.3334758 α      lambda       -0.1920819E-02
   maximum displ.:     0.1278022 α      in ANC's #22, #13, #20, ...

........................................................................
.............................. CYCLE    4 ..............................
........................................................................
   1   -122.8203616 -0.122820E+03  0.707E-02    3.41       0.0  T
   2   -122.8203836 -0.220414E-04  0.433E-02    3.40       1.0  T
   3   -122.8203735  0.101738E-04  0.179E-02    3.40       1.0  T
   4   -122.8203890 -0.155024E-04  0.501E-03    3.40       2.4  T
   5   -122.8203905 -0.156349E-05  0.238E-03    3.40       5.1  T
   6   -122.8203906 -0.659025E-07  0.176E-03    3.40       6.9  T
   7   -122.8203907 -0.653675E-07  0.116E-03    3.40      10.4  T
   8   -122.8203907 -0.329986E-07  0.779E-04    3.40      15.6  T
   9   -122.8203907 -0.198381E-07  0.322E-04    3.40      37.6  T
     SCC iter.                  ...        0 min,  0.184 sec
     gradient                   ...        0 min,  0.136 sec
 * total energy  :  -121.1841097 Eh     change       -0.1362020E-02 Eh
   gradient norm :     0.0097776 Eh/α   predicted    -0.1067237E-02 ( -21.64%)
   displ. norm   :     0.3940202 α      lambda       -0.1291213E-02
   maximum displ.:     0.1478423 α      in ANC's #13, #7, #20, ...

........................................................................
.............................. CYCLE    5 ..............................
........................................................................
   1   -122.8210147 -0.122821E+03  0.722E-02    3.41       0.0  T
   2   -122.8210283 -0.135503E-04  0.426E-02    3.40       1.0  T
   3   -122.8210181  0.101489E-04  0.153E-02    3.40       1.0  T
   4   -122.8210311 -0.129795E-04  0.400E-03    3.40       3.0  T
   5   -122.8210322 -0.105418E-05  0.158E-03    3.40       7.7  T
   6   -122.8210322 -0.230645E-07  0.101E-03    3.40      12.0  T
   7   -122.8210322 -0.193962E-07  0.646E-04    3.40      18.8  T
   8   -122.8210322 -0.812062E-08  0.469E-04    3.40      25.9  T
     SCC iter.                  ...        0 min,  0.165 sec
     gradient                   ...        0 min,  0.128 sec
 * total energy  :  -121.1849662 Eh     change       -0.8564675E-03 Eh
   gradient norm :     0.0069885 Eh/α   predicted    -0.7458625E-03 ( -12.91%)
   displ. norm   :     0.3232715 α      lambda       -0.6372332E-03
   maximum displ.:     0.1529232 α      in ANC's #7, #20, #13, ...

........................................................................
.............................. CYCLE    6 ..............................
........................................................................
   1   -122.8198412 -0.122820E+03  0.584E-02    3.39       0.0  T
   2   -122.8198439 -0.270492E-05  0.344E-02    3.39       1.0  T
   3   -122.8198385  0.546481E-05  0.959E-03    3.39       1.3  T
   4   -122.8198451 -0.660189E-05  0.204E-03    3.39       5.9  T
   5   -122.8198452 -0.145385E-06  0.126E-03    3.39       9.6  T
   6   -122.8198452 -0.138542E-07  0.759E-04    3.39      16.0  T
   7   -122.8198452 -0.134055E-07  0.496E-04    3.39      24.4  T
     SCC iter.                  ...        0 min,  0.145 sec
     gradient                   ...        0 min,  0.091 sec
 * total energy  :  -121.1854010 Eh     change       -0.4348256E-03 Eh
   gradient norm :     0.0054515 Eh/α   predicted    -0.3519238E-03 ( -19.07%)
   displ. norm   :     0.2962269 α      lambda       -0.4141459E-03
   maximum displ.:     0.1658267 α      in ANC's #7, #5, #20, ...

........................................................................
.............................. CYCLE    7 ..............................
........................................................................
   1   -122.8201203 -0.122820E+03  0.524E-02    3.38       0.0  T
   2   -122.8201226 -0.224093E-05  0.306E-02    3.38       1.0  T
   3   -122.8201181  0.449329E-05  0.872E-03    3.38       1.4  T
   4   -122.8201236 -0.552538E-05  0.216E-03    3.38       5.6  T
   5   -122.8201237 -0.119931E-06  0.154E-03    3.38       7.9  T
   6   -122.8201238 -0.268184E-07  0.104E-03    3.38      11.7  T
   7   -122.8201238 -0.280279E-07  0.634E-04    3.38      19.1  T
   8   -122.8201238 -0.977909E-08  0.386E-04    3.38      31.4  T
     SCC iter.                  ...        0 min,  0.166 sec
     gradient                   ...        0 min,  0.142 sec
 * total energy  :  -121.1857263 Eh     change       -0.3253074E-03 Eh
   gradient norm :     0.0054652 Eh/α   predicted    -0.2252445E-03 ( -30.76%)
   displ. norm   :     0.3668121 α      lambda       -0.4683619E-03
   maximum displ.:     0.2186730 α      in ANC's #7, #5, #11, ...

........................................................................
.............................. CYCLE    8 ..............................
........................................................................
   1   -122.8205493 -0.122821E+03  0.739E-02    3.36       0.0  T
   2   -122.8205523 -0.301426E-05  0.434E-02    3.36       1.0  T
   3   -122.8205437  0.863690E-05  0.114E-02    3.36       1.1  T
   4   -122.8205543 -0.105803E-04  0.275E-03    3.36       4.4  T
   5   -122.8205544 -0.122744E-06  0.206E-03    3.36       5.9  T
   6   -122.8205544 -0.587273E-07  0.132E-03    3.36       9.2  T
   7   -122.8205545 -0.450205E-07  0.838E-04    3.36      14.5  T
   8   -122.8205545 -0.157265E-07  0.486E-04    3.36      24.9  T
     SCC iter.                  ...        0 min,  0.162 sec
     gradient                   ...        0 min,  0.118 sec
 * total energy  :  -121.1861078 Eh     change       -0.3814755E-03 Eh
   gradient norm :     0.0065408 Eh/α   predicted    -0.2657019E-03 ( -30.35%)
   displ. norm   :     0.4503012 α      lambda       -0.5241280E-03
   maximum displ.:     0.2752185 α      in ANC's #7, #5, #11, ...

........................................................................
.............................. CYCLE    9 ..............................
........................................................................
   1   -122.8207003 -0.122821E+03  0.954E-02    3.34       0.0  T
   2   -122.8207049 -0.457258E-05  0.560E-02    3.34       1.0  T
   3   -122.8206924  0.125360E-04  0.137E-02    3.34       1.0  T
   4   -122.8207078 -0.154531E-04  0.320E-03    3.34       3.8  T
   5   -122.8207080 -0.152995E-06  0.233E-03    3.34       5.2  T
   6   -122.8207080 -0.715748E-07  0.146E-03    3.34       8.3  T
   7   -122.8207081 -0.508169E-07  0.958E-04    3.34      12.7  T
   8   -122.8207081 -0.186254E-07  0.568E-04    3.34      21.4  T
     SCC iter.                  ...        0 min,  0.161 sec
     gradient                   ...        0 min,  0.148 sec
 * total energy  :  -121.1865362 Eh     change       -0.4283528E-03 Eh
   gradient norm :     0.0078329 Eh/α   predicted    -0.3152035E-03 ( -26.41%)
   displ. norm   :     0.4957156 α      lambda       -0.5367287E-03
   maximum displ.:     0.3077486 α      in ANC's #7, #5, #11, ...

........................................................................
.............................. CYCLE   10 ..............................
........................................................................
   1   -122.8207125 -0.122821E+03  0.106E-01    3.32       0.0  T
   2   -122.8207178 -0.530325E-05  0.621E-02    3.32       1.0  T
   3   -122.8207040  0.138279E-04  0.147E-02    3.33       1.0  T
   4   -122.8207212 -0.171818E-04  0.320E-03    3.33       3.8  T
   5   -122.8207213 -0.127178E-06  0.224E-03    3.33       5.4  T
   6   -122.8207214 -0.689728E-07  0.135E-03    3.33       9.0  T
   7   -122.8207214 -0.382785E-07  0.892E-04    3.33      13.6  T
   8   -122.8207214 -0.144987E-07  0.544E-04    3.33      22.3  T
     SCC iter.                  ...        0 min,  0.163 sec
     gradient                   ...        0 min,  0.119 sec
 * total energy  :  -121.1869726 Eh     change       -0.4364783E-03 Eh
   gradient norm :     0.0088014 Eh/α   predicted    -0.3343141E-03 ( -23.41%)
   displ. norm   :     0.5042807 α      lambda       -0.5380641E-03
   maximum displ.:     0.3142228 α      in ANC's #7, #5, #12, ...

........................................................................
.............................. CYCLE   11 ..............................
........................................................................
   1   -122.8215355 -0.122822E+03  0.105E-01    3.33       0.0  T
   2   -122.8215414 -0.581712E-05  0.616E-02    3.33       1.0  T
   3   -122.8215294  0.119547E-04  0.145E-02    3.33       1.0  T
   4   -122.8215446 -0.151960E-04  0.320E-03    3.33       3.8  T
   5   -122.8215447 -0.137729E-06  0.223E-03    3.33       5.4  T
   6   -122.8215448 -0.753256E-07  0.130E-03    3.33       9.3  T
   7   -122.8215448 -0.293128E-07  0.871E-04    3.33      13.9  T
   8   -122.8215449 -0.146712E-07  0.560E-04    3.33      21.6  T
     SCC iter.                  ...        0 min,  0.166 sec
     gradient                   ...        0 min,  0.124 sec
 * total energy  :  -121.1874031 Eh     change       -0.4304692E-03 Eh
   gradient norm :     0.0078924 Eh/α   predicted    -0.3374511E-03 ( -21.61%)
   displ. norm   :     0.5130904 α      lambda       -0.5123783E-03
   maximum displ.:     0.3100472 α      in ANC's #7, #5, #12, ...

........................................................................
.............................. CYCLE   12 ..............................
........................................................................
   1   -122.8221593 -0.122822E+03  0.105E-01    3.32       0.0  T
   2   -122.8221655 -0.622273E-05  0.619E-02    3.32       1.0  T
   3   -122.8221540  0.115060E-04  0.147E-02    3.33       1.0  T
   4   -122.8221688 -0.148516E-04  0.347E-03    3.33       3.5  T
   5   -122.8221690 -0.157024E-06  0.248E-03    3.32       4.9  T
   6   -122.8221691 -0.889073E-07  0.155E-03    3.33       7.8  T
   7   -122.8221691 -0.466980E-07  0.997E-04    3.33      12.2  T
   8   -122.8221691 -0.182553E-07  0.671E-04    3.33      18.1  T
     SCC iter.                  ...        0 min,  0.166 sec
     gradient                   ...        0 min,  0.122 sec
 * total energy  :  -121.1878033 Eh     change       -0.4001547E-03 Eh
   gradient norm :     0.0085442 Eh/α   predicted    -0.3236344E-03 ( -19.12%)
   displ. norm   :     0.4605768 α      lambda       -0.4745583E-03
   maximum displ.:     0.2566065 α      in ANC's #7, #12, #5, ...

........................................................................
.............................. CYCLE   13 ..............................
........................................................................
   1   -122.8255254 -0.122826E+03  0.929E-02    3.40       0.0  T
   2   -122.8255352 -0.978541E-05  0.547E-02    3.39       1.0  T
   3   -122.8255254  0.985226E-05  0.158E-02    3.39       1.0  T
   4   -122.8255388 -0.133762E-04  0.360E-03    3.39       3.4  T
   5   -122.8255390 -0.264464E-06  0.259E-03    3.38       4.7  T
   6   -122.8255391 -0.114699E-06  0.151E-03    3.39       8.1  T
   7   -122.8255392 -0.424678E-07  0.100E-03    3.39      12.1  T
   8   -122.8255392 -0.181607E-07  0.644E-04    3.39      18.8  T
   9   -122.8255392 -0.143506E-07  0.287E-04    3.39      42.3  T
     SCC iter.                  ...        0 min,  0.185 sec
     gradient                   ...        0 min,  0.135 sec
 * total energy  :  -121.1881071 Eh     change       -0.3038357E-03 Eh
   gradient norm :     0.0076845 Eh/α   predicted    -0.2876153E-03 (  -5.34%)
   displ. norm   :     0.5699372 α      lambda       -0.4974625E-03
   maximum displ.:     0.3043050 α      in ANC's #7, #12, #5, ...

........................................................................
.............................. CYCLE   14 ..............................
........................................................................
   1   -122.8189340 -0.122819E+03  0.130E-01    3.23       0.0  T
   2   -122.8189542 -0.201703E-04  0.766E-02    3.26       1.0  T
   3   -122.8189309  0.232719E-04  0.231E-02    3.25       1.0  T
   4   -122.8189618 -0.309135E-04  0.491E-03    3.26       2.5  T
   5   -122.8189623 -0.462012E-06  0.334E-03    3.26       3.6  T
   6   -122.8189625 -0.174841E-06  0.199E-03    3.26       6.1  T
   7   -122.8189625 -0.651315E-07  0.114E-03    3.26      10.6  T
   8   -122.8189625 -0.177137E-07  0.780E-04    3.26      15.5  T
   9   -122.8189626 -0.156473E-07  0.382E-04    3.26      31.7  T
     SCC iter.                  ...        0 min,  0.184 sec
     gradient                   ...        0 min,  0.123 sec
 * total energy  :  -121.1881899 Eh     change       -0.8283135E-04 Eh
   gradient norm :     0.0224517 Eh/α   predicted    -0.3295273E-03 ( 297.83%)
   displ. norm   :     0.1297228 α      lambda       -0.4602865E-03
   maximum displ.:     0.0662465 α      in ANC's #7, #5, #11, ...

........................................................................
.............................. CYCLE   15 ..............................
........................................................................
   1   -122.8243296 -0.122824E+03  0.361E-02    3.38       0.0  T
   2   -122.8243383 -0.870390E-05  0.216E-02    3.35       1.0  T
   3   -122.8243381  0.157207E-06  0.105E-02    3.36       1.2  T
   4   -122.8243404 -0.223160E-05  0.161E-03    3.35       7.5  T
   5   -122.8243404 -0.778690E-07  0.943E-04    3.35      12.9  T
   6   -122.8243405 -0.226290E-07  0.455E-04    3.35      26.6  T
     SCC iter.                  ...        0 min,  0.126 sec
     gradient                   ...        0 min,  0.152 sec
 * total energy  :  -121.1884763 Eh     change       -0.2864030E-03 Eh
   gradient norm :     0.0070590 Eh/α   predicted    -0.2340187E-03 ( -18.29%)
   displ. norm   :     0.2233689 α      lambda       -0.2473788E-03
   maximum displ.:     0.1024302 α      in ANC's #12, #9, #2, ...

........................................................................
.............................. CYCLE   16 ..............................
........................................................................
   1   -122.8256389 -0.122826E+03  0.497E-02    3.39       0.0  T
   2   -122.8256423 -0.344633E-05  0.291E-02    3.37       1.0  T
   3   -122.8256411  0.122034E-05  0.589E-03    3.37       2.1  T
   4   -122.8256428 -0.167971E-05  0.209E-03    3.37       5.8  T
   5   -122.8256430 -0.187593E-06  0.124E-03    3.37       9.8  T
   6   -122.8256430 -0.169720E-07  0.807E-04    3.37      15.0  T
   7   -122.8256430 -0.124592E-07  0.452E-04    3.37      26.8  T
     SCC iter.                  ...        0 min,  0.147 sec
     gradient                   ...        0 min,  0.127 sec
 * total energy  :  -121.1886777 Eh     change       -0.2013770E-03 Eh
   gradient norm :     0.0049973 Eh/α   predicted    -0.1298639E-03 ( -35.51%)
   displ. norm   :     0.4611828 α      lambda       -0.4609724E-03
   maximum displ.:     0.2076672 α      in ANC's #12, #9, #2, ...

........................................................................
.............................. CYCLE   17 ..............................
........................................................................
   1   -122.8265198 -0.122827E+03  0.109E-01    3.36       0.0  T
   2   -122.8265246 -0.478364E-05  0.643E-02    3.36       1.0  T
   3   -122.8265122  0.123894E-04  0.142E-02    3.36       1.0  T
   4   -122.8265282 -0.159835E-04  0.379E-03    3.36       3.2  T
   5   -122.8265283 -0.891094E-07  0.248E-03    3.36       4.9  T
   6   -122.8265284 -0.120530E-06  0.137E-03    3.36       8.9  T
   7   -122.8265285 -0.275269E-07  0.968E-04    3.36      12.5  T
   8   -122.8265285 -0.183620E-07  0.488E-04    3.36      24.9  T
     SCC iter.                  ...        0 min,  0.165 sec
     gradient                   ...        0 min,  0.117 sec
 * total energy  :  -121.1890300 Eh     change       -0.3522804E-03 Eh
   gradient norm :     0.0060097 Eh/α   predicted    -0.2795128E-03 ( -20.66%)
   displ. norm   :     0.5239228 α      lambda       -0.4353464E-03
   maximum displ.:     0.2443069 α      in ANC's #12, #9, #2, ...

........................................................................
.............................. CYCLE   18 ..............................
........................................................................
   1   -122.8217753 -0.122822E+03  0.123E-01    3.31       0.0  T
   2   -122.8218003 -0.249633E-04  0.723E-02    3.31       1.0  T
   3   -122.8217853  0.150096E-04  0.198E-02    3.30       1.0  T
   4   -122.8218057 -0.203604E-04  0.511E-03    3.31       2.4  T
   5   -122.8218067 -0.100867E-05  0.316E-03    3.31       3.8  T
   6   -122.8218068 -0.124983E-06  0.214E-03    3.31       5.7  T
   7   -122.8218069 -0.888193E-07  0.108E-03    3.31      11.3  T
   8   -122.8218069 -0.151715E-07  0.748E-04    3.31      16.2  T
   9   -122.8218069 -0.129284E-07  0.299E-04    3.31      40.5  T
     SCC iter.                  ...        0 min,  0.202 sec
     gradient                   ...        0 min,  0.131 sec
 * total energy  :  -121.1892945 Eh     change       -0.2645278E-03 Eh
   gradient norm :     0.0133687 Eh/α   predicted    -0.2774280E-03 (   4.88%)
   displ. norm   :     0.3101469 α      lambda       -0.3690491E-03
   maximum displ.:     0.1395039 α      in ANC's #9, #2, #12, ...

........................................................................
.............................. CYCLE   19 ..............................
........................................................................
   1   -122.8230962 -0.122823E+03  0.723E-02    3.34       0.0  T
   2   -122.8231075 -0.112376E-04  0.425E-02    3.33       1.0  T
   3   -122.8231019  0.556623E-05  0.131E-02    3.34       1.0  T
   4   -122.8231097 -0.780470E-05  0.287E-03    3.33       4.2  T
   5   -122.8231100 -0.336589E-06  0.174E-03    3.33       7.0  T
   6   -122.8231101 -0.519642E-07  0.125E-03    3.33       9.7  T
   7   -122.8231101 -0.301341E-07  0.635E-04    3.33      19.1  T
   8   -122.8231101 -0.599671E-08  0.455E-04    3.33      26.7  T
     SCC iter.                  ...        0 min,  0.171 sec
     gradient                   ...        0 min,  0.138 sec
 * total energy  :  -121.1895694 Eh     change       -0.2748632E-03 Eh
   gradient norm :     0.0120195 Eh/α   predicted    -0.2022814E-03 ( -26.41%)
   displ. norm   :     0.4375457 α      lambda       -0.5103041E-03
   maximum displ.:     0.1880640 α      in ANC's #9, #12, #2, ...

........................................................................
.............................. CYCLE   20 ..............................
........................................................................
   1   -122.8250995 -0.122825E+03  0.953E-02    3.38       0.0  T
   2   -122.8251051 -0.558242E-05  0.560E-02    3.37       1.0  T
   3   -122.8250999  0.524888E-05  0.101E-02    3.37       1.2  T
   4   -122.8251070 -0.713790E-05  0.324E-03    3.37       3.7  T
   5   -122.8251072 -0.224334E-06  0.225E-03    3.37       5.4  T
   6   -122.8251073 -0.646696E-07  0.149E-03    3.37       8.1  T
   7   -122.8251073 -0.472722E-07  0.879E-04    3.37      13.8  T
   8   -122.8251074 -0.127147E-07  0.574E-04    3.37      21.1  T
     SCC iter.                  ...        0 min,  0.165 sec
     gradient                   ...        0 min,  0.120 sec
 * total energy  :  -121.1899738 Eh     change       -0.4043988E-03 Eh
   gradient norm :     0.0083724 Eh/α   predicted    -0.3040025E-03 ( -24.83%)
   displ. norm   :     0.5660907 α      lambda       -0.6238206E-03
   maximum displ.:     0.2317138 α      in ANC's #2, #12, #9, ...
 * RMSD in coord.:     0.6691088 α      energy gain  -0.2664523E-01 Eh

generating ANC from model Hessian ...
Using Lindh-Hessian (1995)
 Shifting diagonal of input Hessian by    9.8384605944953230E-003
 Lowest  eigenvalues of input Hessian
    0.000000    0.000000    0.000000    0.000000    0.000000    0.000000
    0.010000    0.010181    0.010322    0.010382    0.010519    0.010584
    0.010847    0.011187    0.011227    0.011447    0.011908    0.012000
 Highest eigenvalues
    2.051699    2.102918    2.106439    2.329481    2.337549    2.374899


........................................................................
.............................. CYCLE   21 ..............................
........................................................................
   1   -122.8230265 -0.122823E+03  0.122E-01    3.38       0.0  T
   2   -122.8230445 -0.180001E-04  0.714E-02    3.38       1.0  T
   3   -122.8230194  0.250577E-04  0.218E-02    3.38       1.0  T
   4   -122.8230513 -0.318287E-04  0.495E-03    3.38       2.4  T
   5   -122.8230520 -0.712427E-06  0.339E-03    3.38       3.6  T
   6   -122.8230521 -0.153637E-06  0.227E-03    3.38       5.3  T
   7   -122.8230522 -0.109193E-06  0.119E-03    3.38      10.2  T
   8   -122.8230523 -0.217405E-07  0.773E-04    3.38      15.7  T
   9   -122.8230523 -0.142161E-07  0.326E-04    3.38      37.2  T
     SCC iter.                  ...        0 min,  0.195 sec
     gradient                   ...        0 min,  0.131 sec
 * total energy  :  -121.1904570 Eh     change       -0.4832387E-03 Eh
   gradient norm :     0.0118290 Eh/α   predicted     0.0000000E+00 (-100.00%)
   displ. norm   :     0.1084078 α      lambda       -0.3555653E-03
   maximum displ.:     0.0477939 α      in ANC's #30, #25, #26, ...

........................................................................
.............................. CYCLE   22 ..............................
........................................................................
   1   -122.8263012 -0.122826E+03  0.330E-02    3.39       0.0  T
   2   -122.8263047 -0.347919E-05  0.198E-02    3.38       1.0  T
   3   -122.8263029  0.172816E-05  0.740E-03    3.38       1.6  T
   4   -122.8263056 -0.264819E-05  0.184E-03    3.38       6.6  T
   5   -122.8263057 -0.100345E-06  0.123E-03    3.38       9.9  T
   6   -122.8263057 -0.225034E-07  0.869E-04    3.38      14.0  T
   7   -122.8263057 -0.165348E-07  0.478E-04    3.38      25.4  T
     SCC iter.                  ...        0 min,  0.143 sec
     gradient                   ...        0 min,  0.144 sec
 * total energy  :  -121.1907321 Eh     change       -0.2750621E-03 Eh
   gradient norm :     0.0039817 Eh/α   predicted    -0.1799536E-03 ( -34.58%)
   displ. norm   :     0.2741895 α      lambda       -0.5205978E-03
   maximum displ.:     0.1160726 α      in ANC's #30, #25, #10, ...

........................................................................
.............................. CYCLE   23 ..............................
........................................................................
   1   -122.8291724 -0.122829E+03  0.832E-02    3.39       0.0  T
   2   -122.8291796 -0.723098E-05  0.491E-02    3.39       1.0  T
   3   -122.8291620  0.175804E-04  0.174E-02    3.39       1.0  T
   4   -122.8291843 -0.222327E-04  0.379E-03    3.38       3.2  T
   5   -122.8291844 -0.184783E-06  0.282E-03    3.38       4.3  T
   6   -122.8291846 -0.112103E-06  0.179E-03    3.38       6.8  T
   7   -122.8291846 -0.817402E-07  0.110E-03    3.38      11.0  T
   8   -122.8291847 -0.217155E-07  0.662E-04    3.38      18.3  T
   9   -122.8291847 -0.142215E-07  0.258E-04    3.38      47.1  T
     SCC iter.                  ...        0 min,  0.197 sec
     gradient                   ...        0 min,  0.136 sec
 * total energy  :  -121.1911293 Eh     change       -0.3971810E-03 Eh
   gradient norm :     0.0051337 Eh/α   predicted    -0.2798678E-03 ( -29.54%)
   displ. norm   :     0.4159037 α      lambda       -0.5244223E-03
   maximum displ.:     0.1668042 α      in ANC's #30, #10, #25, ...

........................................................................
.............................. CYCLE   24 ..............................
........................................................................
   1   -122.8276143 -0.122828E+03  0.122E-01    3.39       0.0  T
   2   -122.8276324 -0.181191E-04  0.720E-02    3.38       1.0  T
   3   -122.8275928  0.395692E-04  0.271E-02    3.38       1.0  T
   4   -122.8276433 -0.505245E-04  0.512E-03    3.38       2.4  T
   5   -122.8276438 -0.480144E-06  0.357E-03    3.38       3.4  T
   6   -122.8276440 -0.180173E-06  0.219E-03    3.38       5.5  T
   7   -122.8276441 -0.944354E-07  0.137E-03    3.38       8.9  T
   8   -122.8276441 -0.269790E-07  0.958E-04    3.38      12.7  T
   9   -122.8276441 -0.320953E-07  0.425E-04    3.38      28.5  T
     SCC iter.                  ...        0 min,  0.188 sec
     gradient                   ...        0 min,  0.138 sec
 * total energy  :  -121.1914409 Eh     change       -0.3115939E-03 Eh
   gradient norm :     0.0124269 Eh/α   predicted    -0.3075676E-03 (  -1.29%)
   displ. norm   :     0.1773013 α      lambda       -0.2687813E-03
   maximum displ.:     0.0881215 α      in ANC's #10, #12, #15, ...

........................................................................
.............................. CYCLE   25 ..............................
........................................................................
   1   -122.8279246 -0.122828E+03  0.404E-02    3.38       0.0  T
   2   -122.8279269 -0.228166E-05  0.239E-02    3.38       1.0  T
   3   -122.8279235  0.338751E-05  0.809E-03    3.38       1.5  T
   4   -122.8279279 -0.432443E-05  0.158E-03    3.38       7.7  T
   5   -122.8279279 -0.761624E-07  0.101E-03    3.38      12.0  T
   6   -122.8279279 -0.133242E-07  0.615E-04    3.38      19.7  T
   7   -122.8279280 -0.572420E-08  0.366E-04    3.38      33.1  T
     SCC iter.                  ...        0 min,  0.144 sec
     gradient                   ...        0 min,  0.116 sec
 * total energy  :  -121.1916666 Eh     change       -0.2257292E-03 Eh
   gradient norm :     0.0081521 Eh/α   predicted    -0.1386273E-03 ( -38.59%)
   displ. norm   :     0.3991886 α      lambda       -0.4686420E-03
   maximum displ.:     0.2064726 α      in ANC's #10, #12, #2, ...

........................................................................
.............................. CYCLE   26 ..............................
........................................................................
   1   -122.8283916 -0.122828E+03  0.890E-02    3.38       0.0  T
   2   -122.8283997 -0.801215E-05  0.526E-02    3.37       1.0  T
   3   -122.8283837  0.159928E-04  0.167E-02    3.37       1.0  T
   4   -122.8284036 -0.199437E-04  0.334E-03    3.37       3.6  T
   5   -122.8284039 -0.326104E-06  0.220E-03    3.37       5.5  T
   6   -122.8284040 -0.640818E-07  0.123E-03    3.37       9.8  T
   7   -122.8284040 -0.207245E-07  0.839E-04    3.37      14.5  T
   8   -122.8284040 -0.176751E-07  0.510E-04    3.37      23.8  T
     SCC iter.                  ...        0 min,  0.163 sec
     gradient                   ...        0 min,  0.030 sec
 * total energy  :  -121.1920010 Eh     change       -0.3343753E-03 Eh
   gradient norm :     0.0043157 Eh/α   predicted    -0.2716607E-03 ( -18.76%)
   displ. norm   :     0.4055602 α      lambda       -0.2523469E-03
   maximum displ.:     0.2056372 α      in ANC's #10, #12, #2, ...

........................................................................
.............................. CYCLE   27 ..............................
........................................................................
   1   -122.8268515 -0.122827E+03  0.909E-02    3.37       0.0  T
   2   -122.8268569 -0.544176E-05  0.537E-02    3.37       1.0  T
   3   -122.8268390  0.179218E-04  0.161E-02    3.37       1.0  T
   4   -122.8268606 -0.216299E-04  0.291E-03    3.37       4.2  T
   5   -122.8268607 -0.110899E-06  0.196E-03    3.37       6.2  T
   6   -122.8268608 -0.445705E-07  0.126E-03    3.37       9.7  T
   7   -122.8268608 -0.305088E-07  0.835E-04    3.37      14.5  T
   8   -122.8268608 -0.179982E-07  0.502E-04    3.37      24.2  T
     SCC iter.                  ...        0 min,  0.162 sec
     gradient                   ...        0 min,  0.112 sec
 * total energy  :  -121.1921723 Eh     change       -0.1713643E-03 Eh
   gradient norm :     0.0073329 Eh/α   predicted    -0.1469525E-03 ( -14.25%)
   displ. norm   :     0.3862452 α      lambda       -0.3297584E-03
   maximum displ.:     0.1919763 α      in ANC's #10, #2, #7, ...

........................................................................
.............................. CYCLE   28 ..............................
........................................................................
   1   -122.8298987 -0.122830E+03  0.852E-02    3.37       0.0  T
   2   -122.8299201 -0.214313E-04  0.502E-02    3.36       1.0  T
   3   -122.8299132  0.686700E-05  0.188E-02    3.36       1.0  T
   4   -122.8299250 -0.117250E-04  0.318E-03    3.36       3.8  T
   5   -122.8299254 -0.468122E-06  0.195E-03    3.36       6.2  T
   6   -122.8299255 -0.735536E-07  0.125E-03    3.36       9.7  T
   7   -122.8299255 -0.224191E-07  0.732E-04    3.36      16.6  T
   8   -122.8299255 -0.117632E-07  0.488E-04    3.36      24.9  T
     SCC iter.                  ...        0 min,  0.170 sec
     gradient                   ...        0 min,  0.123 sec
 * total energy  :  -121.1922648 Eh     change       -0.9243133E-04 Eh
   gradient norm :     0.0137334 Eh/α   predicted    -0.1894775E-03 ( 104.99%)
   displ. norm   :     0.2230294 α      lambda       -0.2492454E-03
   maximum displ.:     0.1075759 α      in ANC's #10, #2, #12, ...

........................................................................
.............................. CYCLE   29 ..............................
........................................................................
   1   -122.8282371 -0.122828E+03  0.554E-02    3.36       0.0  T
   2   -122.8282417 -0.464876E-05  0.328E-02    3.36       1.0  T
   3   -122.8282354  0.637047E-05  0.111E-02    3.36       1.1  T
   4   -122.8282435 -0.807754E-05  0.213E-03    3.36       5.7  T
   5   -122.8282436 -0.128276E-06  0.132E-03    3.36       9.2  T
   6   -122.8282436 -0.266897E-07  0.867E-04    3.36      14.0  T
   7   -122.8282436 -0.128837E-07  0.507E-04    3.36      23.9  T
     SCC iter.                  ...        0 min,  0.144 sec
     gradient                   ...        0 min,  0.139 sec
 * total energy  :  -121.1924350 Eh     change       -0.1702126E-03 Eh
   gradient norm :     0.0060942 Eh/α   predicted    -0.1308258E-03 ( -23.14%)
   displ. norm   :     0.2053897 α      lambda       -0.1727273E-03
   maximum displ.:     0.0867454 α      in ANC's #10, #2, #7, ...

........................................................................
.............................. CYCLE   30 ..............................
........................................................................
   1   -122.8290819 -0.122829E+03  0.471E-02    3.35       0.0  T
   2   -122.8290832 -0.126254E-05  0.277E-02    3.35       1.0  T
   3   -122.8290810  0.217805E-05  0.583E-03    3.35       2.1  T
   4   -122.8290837 -0.267194E-05  0.134E-03    3.35       9.1  T
   5   -122.8290837 -0.583343E-07  0.858E-04    3.35      14.1  T
   6   -122.8290837 -0.867857E-08  0.555E-04    3.35      21.9  T
     SCC iter.                  ...        0 min,  0.124 sec
     gradient                   ...        0 min,  0.115 sec
 * total energy  :  -121.1925655 Eh     change       -0.1304994E-03 Eh
   gradient norm :     0.0047720 Eh/α   predicted    -0.9000701E-04 ( -31.03%)
   displ. norm   :     0.3099003 α      lambda       -0.2027756E-03
   maximum displ.:     0.1337367 α      in ANC's #2, #10, #7, ...

........................................................................
.............................. CYCLE   31 ..............................
........................................................................
   1   -122.8302373 -0.122830E+03  0.706E-02    3.34       0.0  T
   2   -122.8302448 -0.749737E-05  0.413E-02    3.33       1.0  T
   3   -122.8302394  0.540590E-05  0.112E-02    3.33       1.1  T
   4   -122.8302461 -0.671186E-05  0.250E-03    3.33       4.9  T
   5   -122.8302465 -0.433018E-06  0.119E-03    3.33      10.1  T
   6   -122.8302466 -0.366105E-07  0.791E-04    3.33      15.3  T
   7   -122.8302466 -0.785367E-08  0.439E-04    3.33      27.6  T
     SCC iter.                  ...        0 min,  0.147 sec
     gradient                   ...        0 min,  0.127 sec
 * total energy  :  -121.1927111 Eh     change       -0.1456001E-03 Eh
   gradient norm :     0.0049815 Eh/α   predicted    -0.1111265E-03 ( -23.68%)
   displ. norm   :     0.4010623 α      lambda       -0.1450860E-03
   maximum displ.:     0.1716384 α      in ANC's #2, #10, #7, ...

........................................................................
.............................. CYCLE   32 ..............................
........................................................................
   1   -122.8282892 -0.122828E+03  0.870E-02    3.32       0.0  T
   2   -122.8282925 -0.328954E-05  0.512E-02    3.31       1.0  T
   3   -122.8282874  0.512148E-05  0.923E-03    3.31       1.3  T
   4   -122.8282938 -0.644113E-05  0.198E-03    3.31       6.1  T
   5   -122.8282939 -0.105909E-06  0.130E-03    3.31       9.3  T
   6   -122.8282940 -0.245836E-07  0.756E-04    3.31      16.0  T
   7   -122.8282940 -0.951302E-08  0.476E-04    3.31      25.5  T
     SCC iter.                  ...        0 min,  0.150 sec
     gradient                   ...        0 min,  0.133 sec
 * total energy  :  -121.1928022 Eh     change       -0.9110049E-04 Eh
   gradient norm :     0.0043795 Eh/α   predicted    -0.8421755E-04 (  -7.56%)
   displ. norm   :     0.2021069 α      lambda       -0.1005815E-03
   maximum displ.:     0.0927484 α      in ANC's #2, #11, #3, ...

........................................................................
.............................. CYCLE   33 ..............................
........................................................................
   1   -122.8310143 -0.122831E+03  0.447E-02    3.31       0.0  T
   2   -122.8310186 -0.423819E-05  0.264E-02    3.31       1.0  T
   3   -122.8310156  0.297227E-05  0.932E-03    3.31       1.3  T
   4   -122.8310196 -0.403602E-05  0.192E-03    3.30       6.3  T
   5   -122.8310198 -0.185135E-06  0.113E-03    3.30      10.7  T
   6   -122.8310199 -0.241719E-07  0.797E-04    3.30      15.2  T
   7   -122.8310199 -0.112196E-07  0.500E-04    3.31      24.2  T
     SCC iter.                  ...        0 min,  0.147 sec
     gradient                   ...        0 min,  0.119 sec
 * total energy  :  -121.1928569 Eh     change       -0.5474113E-04 Eh
   gradient norm :     0.0045193 Eh/α   predicted    -0.5234622E-04 (  -4.37%)
   displ. norm   :     0.1760832 α      lambda       -0.5867714E-04
   maximum displ.:     0.0883165 α      in ANC's #2, #7, #3, ...

........................................................................
.............................. CYCLE   34 ..............................
........................................................................
   1   -122.8300962 -0.122830E+03  0.363E-02    3.30       0.0  T
   2   -122.8300973 -0.104601E-05  0.215E-02    3.30       1.0  T
   3   -122.8300953  0.199080E-05  0.541E-03    3.30       2.2  T
   4   -122.8300977 -0.239558E-05  0.115E-03    3.30      10.5  T
   5   -122.8300977 -0.400505E-07  0.722E-04    3.30      16.8  T
   6   -122.8300977 -0.695795E-08  0.499E-04    3.30      24.3  T
     SCC iter.                  ...        0 min,  0.124 sec
     gradient                   ...        0 min,  0.126 sec
 * total energy  :  -121.1928993 Eh     change       -0.4241288E-04 Eh
   gradient norm :     0.0023030 Eh/α   predicted    -0.3025017E-04 ( -28.68%)
   displ. norm   :     0.1397884 α      lambda       -0.6202157E-04
   maximum displ.:     0.0726710 α      in ANC's #2, #4, #3, ...

........................................................................
.............................. CYCLE   35 ..............................
........................................................................
   1   -122.8308083 -0.122831E+03  0.253E-02    3.30       0.0  T
   2   -122.8308116 -0.333019E-05  0.147E-02    3.30       1.0  T
   3   -122.8308113  0.274365E-06  0.512E-03    3.30       2.4  T
   4   -122.8308118 -0.443085E-06  0.162E-03    3.30       7.5  T
   5   -122.8308119 -0.147821E-06  0.748E-04    3.30      16.2  T
   6   -122.8308120 -0.131377E-07  0.554E-04    3.30      21.9  T
     SCC iter.                  ...        0 min,  0.128 sec
     gradient                   ...        0 min,  0.156 sec
 * total energy  :  -121.1929393 Eh     change       -0.4001779E-04 Eh
   gradient norm :     0.0028740 Eh/α   predicted    -0.3161862E-04 ( -20.99%)
   displ. norm   :     0.1430203 α      lambda       -0.4184250E-04
   maximum displ.:     0.0765460 α      in ANC's #2, #4, #7, ...

........................................................................
.............................. CYCLE   36 ..............................
........................................................................
   1   -122.8301571 -0.122830E+03  0.232E-02    3.30       0.0  T
   2   -122.8301573 -0.264715E-06  0.137E-02    3.30       1.0  T
   3   -122.8301565  0.829784E-06  0.332E-03    3.30       3.7  T
   4   -122.8301575 -0.999439E-06  0.765E-04    3.30      15.8  T
   5   -122.8301575 -0.608476E-08  0.531E-04    3.30      22.8  T
     SCC iter.                  ...        0 min,  0.104 sec
     gradient                   ...        0 min,  0.118 sec
 * total energy  :  -121.1929723 Eh     change       -0.3294203E-04 Eh
   gradient norm :     0.0028695 Eh/α   predicted    -0.2135237E-04 ( -35.18%)
   displ. norm   :     0.1749673 α      lambda       -0.5025704E-04
   maximum displ.:     0.0862290 α      in ANC's #2, #4, #10, ...

........................................................................
.............................. CYCLE   37 ..............................
........................................................................
   1   -122.8296159 -0.122830E+03  0.251E-02    3.30       0.0  T
   2   -122.8296163 -0.400762E-06  0.149E-02    3.30       1.0  T
   3   -122.8296150  0.131101E-05  0.422E-03    3.30       2.9  T
   4   -122.8296166 -0.157130E-05  0.834E-04    3.30      14.5  T
   5   -122.8296166 -0.938824E-08  0.596E-04    3.30      20.4  T
   6   -122.8296166 -0.449694E-08  0.393E-04    3.30      30.8  T
     SCC iter.                  ...        0 min,  0.124 sec
     gradient                   ...        0 min,  0.133 sec
 * total energy  :  -121.1930118 Eh     change       -0.3947957E-04 Eh
   gradient norm :     0.0023122 Eh/α   predicted    -0.2590230E-04 ( -34.39%)
   displ. norm   :     0.1805558 α      lambda       -0.4298879E-04
   maximum displ.:     0.0917181 α      in ANC's #2, #4, #10, ...

........................................................................
.............................. CYCLE   38 ..............................
........................................................................
   1   -122.8292717 -0.122829E+03  0.239E-02    3.31       0.0  T
   2   -122.8292722 -0.482731E-06  0.141E-02    3.31       1.0  T
   3   -122.8292709  0.132142E-05  0.431E-03    3.31       2.8  T
   4   -122.8292724 -0.157364E-05  0.870E-04    3.31      13.9  T
   5   -122.8292725 -0.242729E-07  0.570E-04    3.31      21.3  T
   6   -122.8292725 -0.348754E-08  0.389E-04    3.31      31.2  T
     SCC iter.                  ...        0 min,  0.128 sec
     gradient                   ...        0 min,  0.132 sec
 * total energy  :  -121.1930441 Eh     change       -0.3236734E-04 Eh
   gradient norm :     0.0015010 Eh/α   predicted    -0.2220016E-04 ( -31.41%)
   displ. norm   :     0.2316022 α      lambda       -0.3036961E-04
   maximum displ.:     0.1258806 α      in ANC's #2, #4, #5, ...

........................................................................
.............................. CYCLE   39 ..............................
........................................................................
   1   -122.8292029 -0.122829E+03  0.299E-02    3.31       0.0  T
   2   -122.8292039 -0.103066E-05  0.175E-02    3.31       1.0  T
   3   -122.8292020  0.191306E-05  0.549E-03    3.31       2.2  T
   4   -122.8292043 -0.224844E-05  0.124E-03    3.31       9.8  T
   5   -122.8292044 -0.966523E-07  0.642E-04    3.31      18.9  T
   6   -122.8292044 -0.463466E-08  0.449E-04    3.31      27.0  T
     SCC iter.                  ...        0 min,  0.127 sec
     gradient                   ...        0 min,  0.123 sec
 * total energy  :  -121.1930752 Eh     change       -0.3110904E-04 Eh
   gradient norm :     0.0018856 Eh/α   predicted    -0.1554830E-04 ( -50.02%)
   displ. norm   :     0.1425701 α      lambda       -0.2064048E-04
   maximum displ.:     0.0859773 α      in ANC's #2, #4, #5, ...

........................................................................
.............................. CYCLE   40 ..............................
........................................................................
   1   -122.8295118 -0.122830E+03  0.210E-02    3.31       0.0  T
   2   -122.8295122 -0.396602E-06  0.123E-02    3.31       1.0  T
   3   -122.8295113  0.849709E-06  0.355E-03    3.31       3.4  T
   4   -122.8295123 -0.986336E-06  0.680E-04    3.31      17.8  T
   5   -122.8295124 -0.320092E-07  0.331E-04    3.31      36.6  T
     SCC iter.                  ...        0 min,  0.106 sec
     gradient                   ...        0 min,  0.096 sec
 * total energy  :  -121.1931006 Eh     change       -0.2538284E-04 Eh
   gradient norm :     0.0017926 Eh/α   predicted    -0.1041768E-04 ( -58.96%)
   displ. norm   :     0.2034140 α      lambda       -0.2830140E-04
   maximum displ.:     0.1232796 α      in ANC's #2, #4, #5, ...

........................................................................
.............................. CYCLE   41 ..............................
........................................................................
   1   -122.8296473 -0.122830E+03  0.326E-02    3.31       0.0  T
   2   -122.8296480 -0.666584E-06  0.192E-02    3.31       1.0  T
   3   -122.8296466  0.135408E-05  0.456E-03    3.31       2.7  T
   4   -122.8296482 -0.160784E-05  0.899E-04    3.31      13.5  T
   5   -122.8296483 -0.389706E-07  0.534E-04    3.31      22.7  T
   6   -122.8296483 -0.355961E-08  0.329E-04    3.31      36.8  T
     SCC iter.                  ...        0 min,  0.123 sec
     gradient                   ...        0 min,  0.057 sec
 * total energy  :  -121.1931295 Eh     change       -0.2883226E-04 Eh
   gradient norm :     0.0017154 Eh/α   predicted    -0.1441480E-04 ( -50.00%)
   displ. norm   :     0.1933848 α      lambda       -0.1984121E-04
   maximum displ.:     0.1178107 α      in ANC's #2, #4, #5, ...

........................................................................
.............................. CYCLE   42 ..............................
........................................................................
   1   -122.8295029 -0.122830E+03  0.325E-02    3.31       0.0  T
   2   -122.8295035 -0.627082E-06  0.192E-02    3.31       1.0  T
   3   -122.8295018  0.170638E-05  0.502E-03    3.31       2.4  T
   4   -122.8295039 -0.202869E-05  0.807E-04    3.31      15.0  T
   5   -122.8295039 -0.127220E-07  0.532E-04    3.31      22.8  T
   6   -122.8295039 -0.371283E-08  0.354E-04    3.31      34.3  T
     SCC iter.                  ...        0 min,  0.128 sec
     gradient                   ...        0 min,  0.129 sec
 * total energy  :  -121.1931449 Eh     change       -0.1539803E-04 Eh
   gradient norm :     0.0020597 Eh/α   predicted    -0.1008831E-04 ( -34.48%)
   displ. norm   :     0.0627047 α      lambda       -0.1008581E-04
   maximum displ.:     0.0399739 α      in ANC's #2, #4, #5, ...
 * RMSD in coord.:     0.4722823 α      energy gain  -0.3171071E-02 Eh

generating ANC from model Hessian ...
Using Lindh-Hessian (1995)
 Shifting diagonal of input Hessian by    9.8256252694276167E-003
 Lowest  eigenvalues of input Hessian
    0.000000    0.000000    0.000000    0.000000    0.000000    0.000000
    0.010000    0.010148    0.010318    0.010357    0.010372    0.010639
    0.010876    0.011127    0.011396    0.011640    0.011916    0.012363
 Highest eigenvalues
    2.061386    2.102990    2.105029    2.335138    2.345399    2.399298


........................................................................
.............................. CYCLE   43 ..............................
........................................................................
   1   -122.8297102 -0.122830E+03  0.102E-02    3.31       0.0  T
   2   -122.8297103 -0.461788E-07  0.601E-03    3.31       2.0  T
   3   -122.8297101  0.130856E-06  0.137E-03    3.31       8.9  T
   4   -122.8297103 -0.159193E-06  0.328E-04    3.31      36.9  T
   5   -122.8297103 -0.137734E-08  0.245E-04    3.31      49.5  T
     SCC iter.                  ...        0 min,  0.106 sec
     gradient                   ...        0 min,  0.122 sec
 * total energy  :  -121.1931532 Eh     change       -0.8361608E-05 Eh
   gradient norm :     0.0013164 Eh/α   predicted     0.0000000E+00 (-100.00%)
   displ. norm   :     0.0236299 α      lambda       -0.5624895E-05
   maximum displ.:     0.0092103 α      in ANC's #2, #4, #8, ...

........................................................................
.............................. CYCLE   44 ..............................
........................................................................
   1   -122.8298822 -0.122830E+03  0.520E-03    3.31       0.0  T
   2   -122.8298823 -0.818874E-07  0.309E-03    3.31       3.9  T
   3   -122.8298822  0.660358E-07  0.129E-03    3.31       9.4  T
   4   -122.8298823 -0.901150E-07  0.365E-04    3.31      33.2  T
   5   -122.8298823 -0.466289E-08  0.243E-04    3.31      49.9  T
     SCC iter.                  ...        0 min,  0.103 sec
     gradient                   ...        0 min,  0.147 sec
 * total energy  :  -121.1931593 Eh     change       -0.6100078E-05 Eh
   gradient norm :     0.0004643 Eh/α   predicted    -0.2814077E-05 ( -53.87%)
   displ. norm   :     0.0537775 α      lambda       -0.6788437E-05
   maximum displ.:     0.0223869 α      in ANC's #2, #4, #8, ...

........................................................................
.............................. CYCLE   45 ..............................
........................................................................
   1   -122.8299128 -0.122830E+03  0.986E-03    3.31       0.0  T
   2   -122.8299129 -0.108582E-06  0.584E-03    3.31       2.1  T
   3   -122.8299126  0.266254E-06  0.214E-03    3.31       5.7  T
   4   -122.8299129 -0.330221E-06  0.452E-04    3.31      26.8  T
   5   -122.8299129 -0.438605E-08  0.328E-04    3.31      36.9  T
     SCC iter.                  ...        0 min,  0.102 sec
     gradient                   ...        0 min,  0.130 sec
 * total energy  :  -121.1931663 Eh     change       -0.6949527E-05 Eh
   gradient norm :     0.0009162 Eh/α   predicted    -0.3402918E-05 ( -51.03%)
   displ. norm   :     0.0596399 α      lambda       -0.4589961E-05
   maximum displ.:     0.0273640 α      in ANC's #2, #4, #8, ...

........................................................................
.............................. CYCLE   46 ..............................
........................................................................
   1   -122.8298094 -0.122830E+03  0.105E-02    3.31       0.0  T
   2   -122.8298095 -0.529387E-07  0.618E-03    3.31       2.0  T
   3   -122.8298093  0.167423E-06  0.163E-03    3.31       7.4  T
   4   -122.8298095 -0.208612E-06  0.434E-04    3.31      27.9  T
   5   -122.8298095 -0.182050E-08  0.328E-04    3.31      37.0  T
     SCC iter.                  ...        0 min,  0.101 sec
     gradient                   ...        0 min,  0.134 sec
 * total energy  :  -121.1931714 Eh     change       -0.5171364E-05 Eh
   gradient norm :     0.0007792 Eh/α   predicted    -0.2298995E-05 ( -55.54%)
   displ. norm   :     0.0778423 α      lambda       -0.4963013E-05
   maximum displ.:     0.0374200 α      in ANC's #2, #4, #1, ...

........................................................................
.............................. CYCLE   47 ..............................
........................................................................
   1   -122.8297633 -0.122830E+03  0.135E-02    3.31       0.0  T
   2   -122.8297634 -0.773143E-07  0.792E-03    3.31       1.5  T
   3   -122.8297631  0.222672E-06  0.188E-03    3.31       6.4  T
   4   -122.8297634 -0.277152E-06  0.471E-04    3.31      25.8  T
   5   -122.8297634 -0.214513E-08  0.355E-04    3.31      34.2  T
     SCC iter.                  ...        0 min,  0.102 sec
     gradient                   ...        0 min,  0.134 sec
 * total energy  :  -121.1931772 Eh     change       -0.5771440E-05 Eh
   gradient norm :     0.0005319 Eh/α   predicted    -0.2501679E-05 ( -56.65%)
   displ. norm   :     0.0836744 α      lambda       -0.4904188E-05
   maximum displ.:     0.0423446 α      in ANC's #2, #4, #1, ...

........................................................................
.............................. CYCLE   48 ..............................
........................................................................
   1   -122.8297311 -0.122830E+03  0.141E-02    3.32       0.0  T
   2   -122.8297312 -0.925692E-07  0.828E-03    3.32       1.5  T
   3   -122.8297310  0.225220E-06  0.191E-03    3.32       6.4  T
   4   -122.8297313 -0.280747E-06  0.465E-04    3.32      26.1  T
   5   -122.8297313 -0.256637E-08  0.355E-04    3.32      34.1  T
     SCC iter.                  ...        0 min,  0.104 sec
     gradient                   ...        0 min,  0.129 sec
 * total energy  :  -121.1931828 Eh     change       -0.5544870E-05 Eh
   gradient norm :     0.0004748 Eh/α   predicted    -0.2461966E-05 ( -55.60%)
   displ. norm   :     0.0870060 α      lambda       -0.4172041E-05
   maximum displ.:     0.0460627 α      in ANC's #2, #4, #1, ...

........................................................................
.............................. CYCLE   49 ..............................
........................................................................
   1   -122.8297738 -0.122830E+03  0.138E-02    3.32       0.0  T
   2   -122.8297739 -0.891279E-07  0.810E-03    3.32       1.5  T
   3   -122.8297737  0.233293E-06  0.194E-03    3.32       6.2  T
   4   -122.8297740 -0.289559E-06  0.455E-04    3.32      26.7  T
   5   -122.8297740 -0.254092E-08  0.347E-04    3.32      34.9  T
     SCC iter.                  ...        0 min,  0.104 sec
     gradient                   ...        0 min,  0.131 sec
 * total energy  :  -121.1931876 Eh     change       -0.4847471E-05 Eh
   gradient norm :     0.0005107 Eh/α   predicted    -0.2093299E-05 ( -56.82%)
   displ. norm   :     0.0783875 α      lambda       -0.3424517E-05
   maximum displ.:     0.0432936 α      in ANC's #2, #4, #1, ...

   *** GEOMETRY OPTIMIZATION CONVERGED AFTER 49 ITERATIONS ***

------------------------------------------------------------------------
 total energy gain   :        -0.0298590 Eh      -18.7368 kcal/mol
 total RMSD          :         0.9579045 a0        0.5069 Å
 total power (kW/mol):        -1.5998961 (step)   -3.7025 (real)
------------------------------------------------------------------------

 ANCopt (total)                0 d,  0 h,  0 min, 21.174 sec
 optimizer setup                ...        0 min,  0.000 sec (  0.001%)
 model hessian                  ...        0 min,  0.123 sec (  0.582%)
 ANC generation                 ...        0 min,  0.035 sec (  0.164%)
 coordinate transformation      ...        0 min,  0.008 sec (  0.039%)
 single point calculation       ...        0 min, 20.395 sec ( 96.321%)
 optimization log               ...        0 min,  0.079 sec (  0.371%)
 hessian update                 ...        0 min,  0.476 sec (  2.249%)
 rational function              ...        0 min,  0.014 sec (  0.067%)

================
 final structure:
================
68
 xtb: 6.3.3 (4ae9cef)
C        -0.67690544168844   -2.70424291286704    0.84535907694592
O        -0.31994730157263   -1.83240442346741    1.83543886978140
C        -0.71108516063419   -2.11224347150501    3.15716681612969
C        -1.36581235730623   -3.89046151342991    1.06109837850317
C        -1.69646314614020   -4.70926234245132   -0.00559794350334
C        -1.34584964232919   -4.35660604171462   -1.29392725716640
C        -0.65312150102904   -3.17813110871639   -1.51198935252897
C        -0.31196623892572   -2.34614566686816   -0.46125117920664
C         0.41508453504406   -1.05261664683839   -0.72191450886448
C        -0.47066597580046    0.17380307987816   -0.41468729203570
C        -0.89233990054673    0.89532757912099   -1.66791291125065
C         0.05485035970999    1.50196086020844   -2.47700855124368
C        -0.32165392009367    2.17699811035263   -3.62449732035948
C        -1.65900683087223    2.23888322557965   -3.96821304582555
C        -2.61874311110855    1.63098126190129   -3.17744415178662
C        -2.24743722619363    0.95210138147164   -2.02280218131673
O        -3.11952857000233    0.33285194431334   -1.17953639657817
C        -4.49601866359446    0.39673715916466   -1.46329815779549
N         0.36442068954422    1.00203836029495    0.43467065827452
C         0.22459119382792    2.31337049460344    0.70249472524927
C        -1.07394699551517    2.93131128957179    0.28964687279748
C        -2.26891257493579    2.56599469154629    0.90051407153130
Cl       -2.26617941097523    1.37767801439101    2.15128316090576
C        -3.46480292421015    3.16346921711337    0.53746831824340
C        -3.46800184667904    4.13564356878550   -0.44683282356374
C        -2.28116437142579    4.53035743819330   -1.04285310185961
C        -1.08969933113413    3.94121831794727   -0.66453654755434
O         1.10844934297841    2.94190418489787    1.25800004186899
C         1.54232113334327    0.32026524520370    0.91451887067807
C         2.79106662641545    1.20891352717975    0.72757625125799
O         2.89561341197091    1.63927204955346   -0.52888368805940
O         3.61153647284659    1.40207200837700    1.57731433371927
N         1.58368058889505   -0.88737790479748    0.13333162005282
C         2.52276040227514   -1.85959361240299    0.19581431214509
C         3.60717811017031   -1.62339890430349    1.20498374646698
C         3.38335164376703   -1.90129825383681    2.54645820890377
C         4.39776623195074   -1.74078636046273    3.47247571738923
C         5.64632522243306   -1.30456669042260    3.06289770643639
C         5.88773543684738   -1.02822252310082    1.72925271964525
C         4.86680173104413   -1.19298452195124    0.80975751654397
Cl        5.13885171407553   -0.82192723717120   -0.85387825593099
O         2.48205794492469   -2.85041562410989   -0.50206878016721
H        -0.35707638300395   -1.27198362766544    3.75371632196720
H        -0.25620552899572   -3.03704660910876    3.52737381342097
H        -1.79962583731017   -2.18083615193705    3.24799664871640
H        -1.64818575722674   -4.18879529467205    2.05833796506146
H        -2.23011222283237   -5.62920019044599    0.18174803635302
H        -1.60207109886155   -4.99627107869360   -2.12405766913377
H        -0.36474241695766   -2.89871405200486   -2.51403832484166
H         0.74283655500424   -1.04178771793046   -1.76906788230575
H        -1.36321570785724   -0.14633610942860    0.13322542891851
H         1.09493422187796    1.45697922179610   -2.18975937570754
H         0.42358327766939    2.64999418389239   -4.24481442874218
H        -1.96660276424346    2.76282250631706   -4.86070719423882
H        -3.65474495646176    1.69265853082092   -3.46936137104306
H        -4.73428804696997   -0.09796236004655   -2.40982886246808
H        -4.85071728824123    1.43189625964159   -1.48881582195457
H        -4.98553050958590   -0.13399711262910   -0.64833973692686
H        -4.37915114395810    2.86673340115733    1.02754403599127
H        -4.40029810845749    4.59663536268669   -0.73710214182979
H        -2.28418937998297    5.30084410377146   -1.79798867673389
H        -0.15701886226292    4.24570259457559   -1.11294384096829
H         1.46048760822842    0.10978484945404    1.99472436036608
H         3.69327000953180    2.18335712030813   -0.62938873866215
H         2.40731402616728   -2.24681510437006    2.85322150480863
H         4.21356095038918   -1.95331381534148    4.51460904629415
H         6.43804171987935   -1.17378441279874    3.78452933876696
H         6.85456129510810   -0.68103274658396    1.40080001801755

 Bond Distances (Angstroems)
 ---------------------------
C1-O2=1.3667         C1-C4=1.3886         C1-C8=1.4031         O2-C1=1.3667         O2-C3=1.4065         C3-O2=1.4065         
C3-H43=1.0896        C3-H44=1.0951        C3-H45=1.0945        C4-C1=1.3886         C4-C5=1.3848         C4-H46=1.0785        
C5-C4=1.3848         C5-C6=1.3810         C5-H47=1.0799        C6-C5=1.3810         C6-C7=1.3843         C6-H48=1.0789        
C7-C6=1.3843         C7-C8=1.3830         C7-H49=1.0795        C8-C1=1.4031         C8-C7=1.3830         C8-C9=1.5066         
C9-C8=1.5066         C9-C10=1.5437        C9-N33=1.4575        C9-H50=1.0973        C10-C9=1.5437        C10-C11=1.5063       
C10-N19=1.4508       C10-H51=1.0951       C11-C10=1.5063       C11-C12=1.3856       C11-C16=1.4019       C12-C11=1.3856       
C12-C13=1.3835       C12-H52=1.0800       C13-C12=1.3835       C13-C14=1.3822       C13-H53=1.0788       C14-C13=1.3822       
C14-C15=1.3842       C14-H54=1.0797       C15-C14=1.3842       C15-C16=1.3899       C15-H55=1.0781       C16-C11=1.4019       
C16-C15=1.3899       C16-O17=1.3620       O17-C16=1.3620       O17-C18=1.4069       C18-O17=1.4069       C18-H56=1.0943       
C18-H57=1.0945       C18-H58=1.0888       N19-C10=1.4508       N19-C20=1.3457       N19-C29=1.4431       C20-N19=1.3457       
C20-C21=1.4962       C20-O28=1.2185       C21-C20=1.4962       C21-C22=1.3909       C21-C27=1.3895       C22-C21=1.3909       
C22-Cl23=1.7253      C22-C24=1.3853       Cl23-C22=1.7253      C24-C22=1.3853       C24-C25=1.3835       C24-H59=1.0790       
C25-C24=1.3835       C25-C26=1.3855       C25-H60=1.0798       C26-C25=1.3855       C26-C27=1.3820       C26-H61=1.0788       
C27-C21=1.3895       C27-C26=1.3820       C27-H62=1.0787       O28-C20=1.2185       C29-N19=1.4431       C29-C30=1.5440       
C29-N33=1.4389       C29-H63=1.1036       C30-C29=1.5440       C30-O31=1.3322       C30-O32=1.1969       O31-C30=1.3322       
O31-H64=0.9708       O32-C30=1.1969       N33-C9=1.4575        N33-C29=1.4389       N33-C34=1.3531       C34-N33=1.3531       
C34-C35=1.5001       C34-O42=1.2126       C35-C34=1.5001       C35-C36=1.3881       C35-C40=1.3886       C36-C35=1.3881       
C36-C37=1.3829       C36-H65=1.0799       C37-C36=1.3829       C37-C38=1.3845       C37-H66=1.0794       C38-C37=1.3845       
C38-C39=1.3832       C38-H67=1.0792       C39-C38=1.3832       C39-C40=1.3838       C39-H68=1.0785       C40-C35=1.3886       
C40-C39=1.3838       C40-Cl41=1.7261      Cl41-C40=1.7261      O42-C34=1.2126       H43-C3=1.0896        H44-C3=1.0951        
H45-C3=1.0945        H46-C4=1.0785        H47-C5=1.0799        H48-C6=1.0789        H49-C7=1.0795        H50-C9=1.0973        
H51-C10=1.0951       H52-C12=1.0800       H53-C13=1.0788       H54-C14=1.0797       H55-C15=1.0781       H56-C18=1.0943       
H57-C18=1.0945       H58-C18=1.0888       H59-C24=1.0790       H60-C25=1.0798       H61-C26=1.0788       H62-C27=1.0787       
H63-C29=1.1036       H64-O31=0.9708       H65-C36=1.0799       H66-C37=1.0794       H67-C38=1.0792       H68-C39=1.0785       
 C  H  Rav=1.0848 sigma=0.0079  Rmin=1.0781  Rmax=1.1036    25
 C  C  Rav=1.4126 sigma=0.0528  Rmin=1.3810  Rmax=1.5440    30
 N  C  Rav=1.4148 sigma=0.0467  Rmin=1.3457  Rmax=1.4575     6
 O  H  Rav=0.9708 sigma=0.0000  Rmin=0.9708  Rmax=0.9708     1
 O  C  Rav=1.3128 sigma=0.0834  Rmin=1.1969  Rmax=1.4069     8
 Cl C  Rav=1.7257 sigma=0.0004  Rmin=1.7253  Rmax=1.7261     2

 selected bond angles (degree)
 --------------------
C4-C1-O2=124.19                C8-C1-O2=116.35                C8-C1-C4=119.46                C3-O2-C1=118.77                
H43-C3-O2=105.71               H44-C3-O2=111.73               H44-C3-H43=109.34              H45-C3-O2=111.53               
H45-C3-H43=109.03              H45-C3-H44=109.40              C5-C4-C1=120.26                H46-C4-C1=120.65               
H46-C4-C5=119.09               C6-C5-C4=120.46                H47-C5-C4=119.21               H47-C5-C6=120.32               
C7-C6-C5=119.43                H48-C6-C5=120.41               H48-C6-C7=120.16               C8-C7-C6=121.06                
H49-C7-C6=120.02               H49-C7-C8=118.92               C7-C8-C1=119.33                C9-C8-C1=120.38                
C9-C8-C7=120.27                C10-C9-C8=111.76               N33-C9-C8=112.50               N33-C9-C10=104.67              
H50-C9-C8=108.53               H50-C9-C10=110.70              H50-C9-N33=108.62              C11-C10-C9=112.06              
N19-C10-C9=103.87              N19-C10-C11=112.01             H51-C10-C9=109.57              H51-C10-C11=109.15             
H51-C10-N19=110.07             

 selected dihedral angles (degree)
 ---------------------------------
C3-O2-C1-C4=357.44            C3-O2-C1-C8=177.27            H43-C3-O2-C1=182.33           H44-C3-O2-C1= 63.49           
H45-C3-O2-C1=300.70           C5-C4-C1-O2=179.45            C5-C4-C1-C8=359.63            H46-C4-C1-O2=359.28           
H46-C4-C1-C8=179.46           C6-C5-C4-C1=  0.00            C6-C5-C4-H46=180.17           H47-C5-C4-C1=179.84           
H47-C5-C4-H46=  0.00          C7-C6-C5-C4=  0.33            C7-C6-C5-H47=180.48           H48-C6-C5-C4=179.87           
H48-C6-C5-H47=  0.02          C8-C7-C6-C5=359.72            C8-C7-C6-H48=180.18           H49-C7-C6-C5=179.32           
H49-C7-C6-H48=359.78          C7-C8-C1-O2=180.58            C7-C8-C1-C4=  0.41            C9-C8-C1-O2=359.12            
C9-C8-C1-C4=178.95            C1-C8-C7-C6=359.91            C1-C8-C7-H49=180.30           C9-C8-C7-C6=181.37            
C9-C8-C7-H49=  1.76           C10-C9-C8-C1=293.49           C10-C9-C8-C7=112.02           N33-C9-C8-C1= 50.91           
N33-C9-C8-C7=229.44           H50-C9-C8-C1=171.13           H50-C9-C8-C7=349.66           C11-C10-C9-C8=250.96          
C11-C10-C9-N33=128.92         C11-C10-C9-H50= 12.06         N19-C10-C9-C8=129.85          N19-C10-C9-N33=  7.81         
N19-C10-C9-H50=250.95         H51-C10-C9-C8= 12.28          H51-C10-C9-N33=250.24         H51-C10-C9-H50=133.38         
           -------------------------------------------------
          |                Final Singlepoint                |
           -------------------------------------------------

          ...................................................
          :                      SETUP                      :
          :.................................................:
          :  # basis functions                 206          :
          :  # atomic orbitals                 204          :
          :  # shells                          112          :
          :  # electrons                       214          :
          :  max. iterations                   250          :
          :  Hamiltonian                  GFN2-xTB          :
          :  restarted?                      false          :
          :  GBSA solvation                  false          :
          :  PC potential                    false          :
          :  electronic temp.          300.0000000     K    :
          :  accuracy                    1.0000000          :
          :  -> integral cutoff          0.2500000E+02      :
[...]
         :: add. restraining           0.000000000000 Eh    ::
         :: total charge              -0.000000000000 e     ::
         :::::::::::::::::::::::::::::::::::::::::::::::::::::

           -------------------------------------------------
          |                Property Printout                |
           -------------------------------------------------

    * Orbital Energies and Occupations

         #    Occupation            Energy/Eh            Energy/eV
      -------------------------------------------------------------
         1        2.0000           -1.0638065             -28.9476
       ...           ...                  ...                  ...
        95        2.0000           -0.4278969             -11.6437
        96        2.0000           -0.4174928             -11.3606
        97        2.0000           -0.4169750             -11.3465
        98        2.0000           -0.4147626             -11.2863
        99        2.0000           -0.4107310             -11.1766
       100        2.0000           -0.4086464             -11.1198
       101        2.0000           -0.4046757             -11.0118
       102        2.0000           -0.4033971             -10.9770
       103        2.0000           -0.3961698             -10.7803
       104        2.0000           -0.3944571             -10.7337
       105        2.0000           -0.3924243             -10.6784
       106        2.0000           -0.3892077             -10.5909
       107        2.0000           -0.3823266             -10.4036 (HOMO)
       108                         -0.2604203              -7.0864 (LUMO)
       109                         -0.2500214              -6.8034
       110                         -0.2467957              -6.7157
       111                         -0.2418558              -6.5812
       112                         -0.2355138              -6.4087
       113                         -0.2350185              -6.3952
       114                         -0.2296137              -6.2481
       115                         -0.2277150              -6.1964
       116                         -0.2184040              -5.9431
       117                         -0.2147035              -5.8424
       118                         -0.2082903              -5.6679
       ...                                ...                  ...
       204                          0.6621252              18.0173
      -------------------------------------------------------------
                  HL-Gap            0.1219063 Eh            3.3172 eV
             Fermi-level           -0.3213735 Eh           -8.7450 eV

     #   Z          covCN         q      C6AA      α(0)
     1   6 C        2.867     0.142    24.911     8.181
     2   8 O        1.705    -0.279    18.626     5.827
     3   6 C        3.642     0.043    20.190     6.460
     4   6 C        2.917    -0.065    29.606     8.923
     5   6 C        2.921    -0.030    28.749     8.793
     6   6 C        2.918    -0.037    28.927     8.820
     7   6 C        2.925    -0.027    28.671     8.781
     8   6 C        2.972    -0.010    28.267     8.721
     9   6 C        3.824     0.052    19.693     6.315
    10   6 C        3.815     0.037    19.945     6.356
    11   6 C        2.973    -0.025    28.634     8.777
    12   6 C        2.924    -0.038    28.949     8.823
    13   6 C        2.917    -0.041    29.012     8.833
    14   6 C        2.921    -0.032    28.795     8.800
    15   6 C        2.918    -0.067    29.674     8.933
    16   6 C        2.867     0.136    25.023     8.200
    17   8 O        1.705    -0.274    18.546     5.814
    18   6 C        3.644     0.037    20.293     6.476
    19   7 N        2.768    -0.088    22.964     7.117
    20   6 C        2.770     0.277    22.310     7.736
    21   6 C        3.009    -0.018    28.433     8.747
    22   6 C        2.891     0.100    25.789     8.326
    23  17 Cl       0.968    -0.164   104.288    15.623
    24   6 C        2.957    -0.037    28.917     8.820
    25   6 C        2.922    -0.027    28.678     8.782
    26   6 C        2.918    -0.031    28.764     8.795
    27   6 C        2.926    -0.020    28.498     8.754
    28   8 O        0.860    -0.427    22.232     6.322
    29   6 C        3.761     0.096    19.041     6.221
    30   6 C        2.687     0.368    20.760     7.457
    31   8 O        1.659    -0.361    20.104     6.053
    32   8 O        0.856    -0.386    21.398     6.202
    33   7 N        2.763    -0.099    23.187     7.152
    34   6 C        2.764     0.279    22.279     7.730
    35   6 C        3.015    -0.026    28.624     8.776
    36   6 C        2.926    -0.024    28.598     8.770
    37   6 C        2.918    -0.027    28.674     8.781
    38   6 C        2.923    -0.021    28.528     8.759
    39   6 C        2.954    -0.032    28.786     8.800
    40   6 C        2.893     0.103    25.719     8.315
    41  17 Cl       0.971    -0.172   104.560    15.644
    42   8 O        0.859    -0.417    22.021     6.292
    43   1 H        0.925     0.060     2.204     2.322
    44   1 H        0.924     0.039     2.462     2.454
    45   1 H        0.924     0.042     2.422     2.434
    46   1 H        0.926     0.039     2.456     2.451
    47   1 H        0.926     0.039     2.456     2.451
    48   1 H        0.926     0.041     2.432     2.439
    49   1 H        0.926     0.044     2.397     2.421
    50   1 H        0.924     0.064     2.154     2.295
    51   1 H        0.924     0.079     1.986     2.204
    52   1 H        0.926     0.058     2.223     2.332
    53   1 H        0.926     0.043     2.409     2.427
    54   1 H        0.926     0.042     2.427     2.436
    55   1 H        0.926     0.041     2.436     2.441
    56   1 H        0.924     0.045     2.380     2.413
    57   1 H        0.924     0.042     2.422     2.434
    58   1 H        0.925     0.066     2.128     2.281
    59   1 H        0.926     0.061     2.186     2.312
    60   1 H        0.926     0.049     2.328     2.386
    61   1 H        0.926     0.051     2.306     2.374
    62   1 H        0.926     0.057     2.229     2.335
    63   1 H        0.923     0.071     2.070     2.250
    64   1 H        0.804     0.344     0.603     1.220
    65   1 H        0.926     0.046     2.369     2.407
    66   1 H        0.926     0.049     2.329     2.387
    67   1 H        0.926     0.053     2.280     2.361
    68   1 H        0.926     0.064     2.156     2.296

 Mol. C6AA /au·bohr⁶  :      67148.774336
 Mol. C8AA /au·bohr⁸  :    1720971.239643
 Mol. α(0) /au        :        406.366403


Wiberg/Mayer (AO) data.
largest (>0.10) Wiberg bond orders for each atom

 ---------------------------------------------------------------------------
     #   Z sym  total        # sym  WBO       # sym  WBO       # sym  WBO
 ---------------------------------------------------------------------------
     1   6 C    3.934 --     4 C    1.386     8 C    1.325     2 O    1.053
     2   8 O    2.223 --     1 C    1.053     3 C    0.984
     3   6 C    3.946 --     2 O    0.984    43 H    0.979    45 H    0.976
                            44 H    0.976
     4   6 C    3.988 --     5 C    1.432     1 C    1.386    46 H    0.965
                             7 C    0.103
     5   6 C    3.990 --     6 C    1.446     4 C    1.432    47 H    0.971
                             8 C    0.107
     6   6 C    3.991 --     5 C    1.446     7 C    1.425    48 H    0.970
     7   6 C    3.989 --     8 C    1.438     6 C    1.425    49 H    0.967
                             4 C    0.103
     8   6 C    3.983 --     7 C    1.438     1 C    1.325     9 C    0.991
                             5 C    0.107
     9   6 C    3.965 --     8 C    0.991    33 N    0.954    50 H    0.954
                            10 C    0.953
    10   6 C    3.962 --    11 C    0.992    19 N    0.960     9 C    0.953
                            51 H    0.945
    11   6 C    3.982 --    12 C    1.431    16 C    1.326    10 C    0.992
                            14 C    0.106
    12   6 C    3.988 --    11 C    1.431    13 C    1.431    52 H    0.964
                            15 C    0.103
    13   6 C    3.991 --    14 C    1.439    12 C    1.431    53 H    0.970
    14   6 C    3.990 --    13 C    1.439    15 C    1.438    54 H    0.971
                            11 C    0.106
    15   6 C    3.987 --    14 C    1.438    16 C    1.377    55 H    0.965
                            12 C    0.103
    16   6 C    3.935 --    15 C    1.377    11 C    1.326    17 O    1.062
    17   8 O    2.233 --    16 C    1.062    18 C    0.981
    18   6 C    3.942 --    17 O    0.981    58 H    0.979    56 H    0.976
                            57 H    0.975
    19   7 N    3.498 --    20 C    1.249    29 C    0.979    10 C    0.960
                            28 O    0.195
    20   6 C    3.950 --    28 O    1.651    19 N    1.249    21 C    0.961
    21   6 C    3.987 --    27 C    1.400    22 C    1.374    20 C    0.961
                            25 C    0.106
    22   6 C    3.922 --    24 C    1.404    21 C    1.374    23 Cl   0.979
    23  17 Cl   1.125 --    22 C    0.979
    24   6 C    3.988 --    25 C    1.442    22 C    1.404    59 H    0.966
                            27 C    0.109
    25   6 C    3.991 --    24 C    1.442    26 C    1.430    60 H    0.969
                            21 C    0.106
    26   6 C    3.991 --    27 C    1.446    25 C    1.430    61 H    0.969
    27   6 C    3.988 --    26 C    1.446    21 C    1.400    62 H    0.967
                            24 C    0.109
    28   8 O    2.037 --    20 C    1.651    19 N    0.195
    29   6 C    3.964 --    33 N    0.986    19 N    0.979    63 H    0.940
                            30 C    0.908
    30   6 C    3.925 --    32 O    1.778    31 O    1.146    29 C    0.908
    31   8 O    2.213 --    30 C    1.146    64 H    0.856    32 O    0.175
    32   8 O    2.064 --    30 C    1.778    31 O    0.175
    33   7 N    3.480 --    34 C    1.223    29 C    0.986     9 C    0.954
                            42 O    0.196
    34   6 C    3.950 --    42 O    1.691    33 N    1.223    35 C    0.951
    35   6 C    3.987 --    36 C    1.405    40 C    1.379    34 C    0.951
                            38 C    0.108
    36   6 C    3.990 --    37 C    1.441    35 C    1.405    65 H    0.967
                            39 C    0.109
    37   6 C    3.991 --    36 C    1.441    38 C    1.434    66 H    0.969
                            40 C    0.101
    38   6 C    3.990 --    39 C    1.440    37 C    1.434    67 H    0.969
                            35 C    0.108
    39   6 C    3.987 --    38 C    1.440    40 C    1.406    68 H    0.966
                            36 C    0.109
    40   6 C    3.920 --    39 C    1.406    35 C    1.379    41 Cl   0.974
                            37 C    0.101
    41  17 Cl   1.113 --    40 C    0.974
    42   8 O    2.025 --    34 C    1.691    33 N    0.196
    43   1 H    0.996 --     3 C    0.979
    44   1 H    0.998 --     3 C    0.976
    45   1 H    0.998 --     3 C    0.976
    46   1 H    0.998 --     4 C    0.965
    47   1 H    0.998 --     5 C    0.971
    48   1 H    0.998 --     6 C    0.970
    49   1 H    0.997 --     7 C    0.967
    50   1 H    0.995 --     9 C    0.954
    51   1 H    0.993 --    10 C    0.945
    52   1 H    0.996 --    12 C    0.964
    53   1 H    0.998 --    13 C    0.970
    54   1 H    0.998 --    14 C    0.971
    55   1 H    0.998 --    15 C    0.965
    56   1 H    0.998 --    18 C    0.976
    57   1 H    0.998 --    18 C    0.975
    58   1 H    0.995 --    18 C    0.979
    59   1 H    0.996 --    24 C    0.966
    60   1 H    0.997 --    25 C    0.969
    61   1 H    0.996 --    26 C    0.969
    62   1 H    0.997 --    27 C    0.967
    63   1 H    0.994 --    29 C    0.940
    64   1 H    0.882 --    31 O    0.856
    65   1 H    0.998 --    36 C    0.967
    66   1 H    0.996 --    37 C    0.969
    67   1 H    0.997 --    38 C    0.969
    68   1 H    0.996 --    39 C    0.966
 ---------------------------------------------------------------------------

Topologies differ in total number of bonds
Writing topology from bond orders to xtbtopo.mol

molecular dipole:
                 x           y           z       tot (Debye)
 q only:       -2.484       0.401      -0.571
   full:       -2.656       0.391      -0.489       6.935
molecular quadrupole (traceless):
                xx          xy          yy          xz          yz          zz
 q only:        7.441      -1.545     -10.813      13.722     -26.384       3.373
  q+dip:       10.676       1.573     -16.764       9.352     -33.372       6.088
   full:        7.827      -0.902     -13.348       9.145     -30.365       5.521

           -------------------------------------------------
          |                Geometry Summary                 |
           -------------------------------------------------

      molecular mass/u    :      605.4657194
   center of mass at/Å    :        0.4105646       0.0759139       0.0959054
  moments of inertia/u·Å² :        0.4046449E+04   0.7181603E+04   0.8216560E+04
rotational constants/cm⁻¹ :        0.4166031E-02   0.2347336E-02   0.2051665E-02

 * 67 selected distances

     #   Z          #   Z                                           value/Å
     1   6 C        2   8 O                                       1.3666673
     2   8 O        3   6 C                                       1.4065075
     1   6 C        4   6 C                                       1.3886147
     4   6 C        5   6 C                                       1.3847764
     5   6 C        6   6 C                                       1.3809738
     6   6 C        7   6 C                                       1.3842783
     1   6 C        8   6 C                                       1.4030840
     7   6 C        8   6 C                                       1.3829813
     9   6 C       10   6 C                                       1.5437124
    11   6 C       12   6 C                                       1.3855718
    12   6 C       13   6 C                                       1.3835322
    13   6 C       14   6 C                                       1.3822023
    14   6 C       15   6 C                                       1.3841799
    11   6 C       16   6 C                                       1.4019481
    15   6 C       16   6 C                                       1.3899439
    16   6 C       17   8 O                                       1.3620244
    17   8 O       18   6 C                                       1.4068856
    10   6 C       19   7 N                                       1.4507765
    19   7 N       20   6 C                                       1.3456872
    21   6 C       22   6 C                                       1.3908838
    22   6 C       23  17 Cl                                      1.7252615
    22   6 C       24   6 C                                       1.3852551
    24   6 C       25   6 C                                       1.3834674
    25   6 C       26   6 C                                       1.3855044
    21   6 C       27   6 C                                       1.3894698
    26   6 C       27   6 C                                       1.3819541
    20   6 C       28   8 O                                       1.2185426
    19   7 N       29   6 C                                       1.4430933
    30   6 C       31   8 O                                       1.3322275
    30   6 C       32   8 O                                       1.1968859
     9   6 C       33   7 N                                       1.4575207
    29   6 C       33   7 N                                       1.4388767
    33   7 N       34   6 C                                       1.3531365
    35   6 C       36   6 C                                       1.3881211
    36   6 C       37   6 C                                       1.3828628
    37   6 C       38   6 C                                       1.3845365
    38   6 C       39   6 C                                       1.3832042
    35   6 C       40   6 C                                       1.3885647
    39   6 C       40   6 C                                       1.3838076
    40   6 C       41  17 Cl                                      1.7260877 (max)
    34   6 C       42   8 O                                       1.2126111
     3   6 C       43   1 H                                       1.0896009
     3   6 C       44   1 H                                       1.0950934
     3   6 C       45   1 H                                       1.0944751
     4   6 C       46   1 H                                       1.0785289
     5   6 C       47   1 H                                       1.0798914
     6   6 C       48   1 H                                       1.0788593
     7   6 C       49   1 H                                       1.0795085
     9   6 C       50   1 H                                       1.0973007
    10   6 C       51   1 H                                       1.0951450
    12   6 C       52   1 H                                       1.0799583
    13   6 C       53   1 H                                       1.0788406
    14   6 C       54   1 H                                       1.0796636
    15   6 C       55   1 H                                       1.0781093
    18   6 C       56   1 H                                       1.0942670
    18   6 C       57   1 H                                       1.0945395
    18   6 C       58   1 H                                       1.0887874
    24   6 C       59   1 H                                       1.0790084
    25   6 C       60   1 H                                       1.0797898
    26   6 C       61   1 H                                       1.0788367
    27   6 C       62   1 H                                       1.0787366
    29   6 C       63   1 H                                       1.1035591
    31   8 O       64   1 H                                       0.9707656 (min)
    36   6 C       65   1 H                                       1.0798773
    37   6 C       66   1 H                                       1.0794171
    38   6 C       67   1 H                                       1.0791993
    39   6 C       68   1 H                                       1.0785055

 * 6 distinct bonds (by element types)

   Z      Z             #   av. dist./Å        max./Å        min./Å
   1 H    6 C          25     1.0847799     1.1035591     1.0781093
   6 C    6 C          25     1.3929372     1.5437124     1.3809738
   6 C    7 N           6     1.4148485     1.4575207     1.3456872
   1 H    8 O           1     0.9707656     0.9707656     0.9707656
   6 C    8 O           8     1.3127940     1.4068856     1.1968859
   6 C   17 Cl          2     1.7256746     1.7260877     1.7252615


optimized geometry written to: xtbopt.xyz


           -------------------------------------------------
          | TOTAL ENERGY             -121.193187607727 Eh   |
          | GRADIENT NORM               0.000510475298 Eh/α |
          | HOMO-LUMO GAP               3.317239283401 eV   |
           -------------------------------------------------

------------------------------------------------------------------------
 * finished run on 2022/03/17 at 01:58:54.470     
------------------------------------------------------------------------
 total:
 * wall-time:     0 d,  0 h,  0 min, 22.183 sec
 *  cpu-time:     0 d,  0 h,  7 min, 54.844 sec
 * ratio c/w:    21.406 speedup
 SCF:
 * wall-time:     0 d,  0 h,  0 min,  0.565 sec
 *  cpu-time:     0 d,  0 h,  0 min,  9.316 sec
 * ratio c/w:    16.481 speedup
 ANC optimizer:
 * wall-time:     0 d,  0 h,  0 min, 21.509 sec
 *  cpu-time:     0 d,  0 h,  7 min, 42.119 sec
 * ratio c/w:    21.485 speedup

