66
 energy: -122.467033275465 gnorm: 0.000929940986 xtb: 6.3.3 (4ae9cef)
C         5.45897466913877   -0.61724520040900   -1.39329958061878
C         5.69711612167173    0.71891027383088   -1.24127286976672
C         4.63476344678091    1.58530439412314   -0.95099110042476
C         3.36196257167469    1.10590067156215   -0.80504573345446
C         3.08170830645032   -0.27164826874536   -0.93882057016044
C         4.15837533732202   -1.14377515071691   -1.25206945461724
C         3.91170047973740   -2.52169255988801   -1.42418444367789
C         2.64802285330226   -3.01774250624897   -1.29928977118255
C         1.58177542312344   -2.16744379553549   -0.97267772433063
C         1.78020507126597   -0.82701334186488   -0.77279745061204
C         0.64183713836523    0.10174839631617   -0.45107616059397
C        -0.76913842616970   -0.49031289201750   -0.25690060779346
C        -1.50811893759987   -0.81420747920561   -1.52812916465628
C        -1.70860953484271    0.19382745770547   -2.43893461548262
C        -2.34421175618764   -0.03395874910020   -3.66442353855682
C        -2.77490452009503   -1.28903618294648   -3.98182406840930
C        -2.62262818691115   -2.35004219516813   -3.06696836292472
C        -2.00233812400714   -2.11899356296156   -1.80631964016854
C        -1.93615296528610   -3.20415472252246   -0.90364694975808
C        -2.41446990091680   -4.44001840751874   -1.23892121811072
C        -2.98836757646807   -4.66982755488368   -2.49673916315351
C        -3.09608441889608   -3.64044034058172   -3.38629109476446
N        -1.43643881834383    0.57650507193166    0.51487665363178
C        -2.55875756492780    0.23726271240170    1.21125542667175
C        -3.07862240652948    1.22125258555582    2.18814357010087
C        -3.69920840492655    0.85820762793994    3.35429834781213
O        -4.10369555356269    1.93588851525252    4.03773003932994
C        -3.76592285268139    3.00534632837325    3.30090524828633
Br       -4.20271765328343    4.68831372071656    3.97145815829467
C        -3.12770823642727    2.64475267440588    2.15408496228679
O        -3.10722441083751   -0.83200182631758    1.04688374721544
C        -0.45546616920860    1.56587174291581    0.91801651987767
C        -0.41609312117860    2.81859270929568    0.02008090176871
O        -1.56659032378646    3.06720662163809   -0.59079636582549
O         0.55798891636841    3.50931863790821   -0.08216180749041
N         0.80469545930827    0.87640403729087    0.78737399744597
C         1.51836644435316    0.41346391199716    1.86470863395905
C         1.50479728608952    1.32977652194959    3.02796916728170
C         1.59743418893451    0.95175598027578    4.33976403099884
O         1.61041720604687    2.02376355214861    5.14282003123906
C         1.55013461672260    3.10378182459025    4.34490248912387
Br        1.54852456751488    4.77387183981219    5.16863080172072
C         1.47968680749102    2.75623127064599    3.03129996261221
O         2.15577017114123   -0.61318426610570    1.86378297451808
H         6.26666521713820   -1.29700802536759   -1.62506011609612
H         6.69632922250019    1.11525551237319   -1.34692215509193
H         4.82611239864238    2.64285814325283   -0.84211623526547
H         2.56982490812174    1.80300228759550   -0.58135143769289
H         4.74154379760241   -3.17191064730065   -1.66093908512835
H         2.45154387427276   -4.06985164086680   -1.44201123525817
H         0.59843527389999   -2.59884364426526   -0.88768927060994
H         0.59003122265868    0.84632375344400   -1.26069952308594
H        -0.70501310846655   -1.36504300857581    0.39610513625699
H        -1.37805626146578    1.19584817116875   -2.21189908799937
H        -2.47941545290433    0.78701889481425   -4.35292452316495
H        -3.25077992841004   -1.48659687291716   -4.93145118921950
H        -1.53766140422289   -3.06525461375200    0.08840763450300
H        -2.35763429744346   -5.24962498148478   -0.52633242228848
H        -3.35476474328147   -5.65451870388357   -2.74635696764496
H        -3.55531524697057   -3.79345340172324   -4.35258413349719
H        -3.88704402344907   -0.10746907018851    3.77823967868733
H        -2.79267552991458    3.29898345005547    1.37913537934690
H        -0.63312234941169    1.90941515629708    1.94439504925756
H        -1.50873363522292    3.86714928101607   -1.14137751602389
H         1.64544141355748   -0.01731692431168    4.79369006912145
H         1.45349943303739    3.41051680676722    2.18433874325685
