96
 energy: -143.075579239257 gnorm: 0.135966871588 xtb: 6.3.3 (4ae9cef)
C         3.55446400000000    4.55438900000000    2.19466400000000
C         2.65904600000000    4.73190600000000    3.24676400000000
C         1.49327700000000    3.98929900000000    3.27482600000000
C         1.21681700000000    3.07654400000000    2.25333100000000
C         2.09518200000000    2.87606200000000    1.15829000000000
C         3.29484200000000    3.64023500000000    1.15917000000000
C         4.22421200000000    3.49215800000000    0.12156400000000
C         3.99730100000000    2.59717200000000   -0.91631600000000
C         2.83509100000000    1.83841400000000   -0.93676600000000
C         1.85935000000000    1.96462200000000    0.07644800000000
C         0.58316900000000    1.12608400000000   -0.01763800000000
C        -0.21804600000000    1.27366700000000   -1.34383300000000
C        -0.97400400000000    2.55150200000000   -1.67947200000000
C        -0.75352500000000    3.03500900000000   -2.99281600000000
C        -1.30850200000000    4.22465000000000   -3.44537100000000
C        -2.11034300000000    4.96786000000000   -2.59704700000000
C        -2.38948500000000    4.52054100000000   -1.29824100000000
C        -1.84030700000000    3.29814100000000   -0.81795100000000
C        -2.23369500000000    2.91859000000000    0.48900900000000
C        -3.07914300000000    3.69667700000000    1.29464400000000
C        -3.59063000000000    4.88286600000000    0.80136500000000
C        -3.24092100000000    5.29138300000000   -0.48232200000000
N        -0.87382800000000   -0.03438800000000   -1.47171200000000
C        -2.19143300000000   -0.26100400000000   -1.84064800000000
C        -2.62390200000000   -1.67066500000000   -1.96431700000000
C        -3.39497800000000   -2.37950800000000   -1.00915500000000
C        -3.97849800000000   -1.79316300000000    0.30125400000000
C        -3.14200400000000   -0.67334400000000    0.94569100000000
C        -4.13906600000000   -2.86036900000000    1.40957200000000
C        -5.38347000000000   -1.23756300000000   -0.01878400000000
C        -3.71841400000000   -3.71627900000000   -1.34820900000000
C        -3.30100300000000   -4.32067200000000   -2.53937700000000
C        -2.55941000000000   -3.59566400000000   -3.45629200000000
C        -2.23494200000000   -2.27156800000000   -3.17966600000000
O        -3.03143200000000    0.59455500000000   -2.09907000000000
C         0.02254000000000   -1.04759800000000   -0.91272600000000
C         0.92088900000000   -1.64797100000000   -2.01549500000000
O         0.85645900000000   -2.99600200000000   -2.08431700000000
O         1.66492400000000   -1.04726400000000   -2.77268100000000
N         0.83817800000000   -0.33411900000000    0.07355100000000
C         1.13341000000000   -0.90389200000000    1.30815200000000
C         1.42166200000000   -2.35548600000000    1.35574400000000
C         0.29656800000000   -3.15278500000000    1.64880300000000
C         0.38850800000000   -4.53529200000000    1.67919200000000
C         1.61616700000000   -5.13099600000000    1.44329300000000
C         2.74784300000000   -4.34343200000000    1.20308100000000
C         2.70497200000000   -2.93125300000000    1.18533700000000
C         4.02254400000000   -2.14038400000000    1.00900900000000
C         5.28689800000000   -2.98571100000000    1.33010100000000
C         4.16368800000000   -1.68615700000000   -0.45383100000000
C         4.11362400000000   -0.91534400000000    1.94156000000000
O         1.09733200000000   -0.28778600000000    2.36829500000000
H         4.46406500000000    5.14415200000000    2.19556800000000
H         2.88273500000000    5.43547400000000    4.04281500000000
H         0.79936000000000    4.10299600000000    4.10477700000000
H         0.30419700000000    2.49828600000000    2.37244100000000
H         5.13574100000000    4.08662600000000    0.11517500000000
H         4.73608800000000    2.48031800000000   -1.70753300000000
H         2.69879400000000    1.13791300000000   -1.75923600000000
H        -0.07576100000000    1.32853100000000    0.81652600000000
H         0.53786000000000    1.20520500000000   -2.13736000000000
H        -0.12786300000000    2.47863600000000   -3.69677400000000
H        -1.13067800000000    4.56113200000000   -4.46498600000000
H        -2.54267600000000    5.89035100000000   -2.97104200000000
H        -1.91403900000000    1.97908600000000    0.91254100000000
H        -3.34815200000000    3.35070300000000    2.29091600000000
H        -4.26432500000000    5.48346700000000    1.40192800000000
H        -3.66119500000000    6.22596100000000   -0.86017500000000
H        -3.49708700000000   -0.42314300000000    1.95052600000000
H        -2.08862100000000   -0.95739000000000    1.04789900000000
H        -3.21296600000000    0.25020400000000    0.37603800000000
H        -3.20398600000000   -3.41912200000000    1.55536300000000
H        -4.94062700000000   -3.56996400000000    1.19253500000000
H        -4.40631800000000   -2.40037100000000    2.37051600000000
H        -5.34395700000000   -0.49251000000000   -0.82226200000000
H        -5.83425900000000   -0.75545100000000    0.86073800000000
H        -6.07046500000000   -2.03307900000000   -0.34809200000000
H        -4.33482100000000   -4.32624100000000   -0.69189700000000
H        -3.58271900000000   -5.35306700000000   -2.74275300000000
H        -2.26196300000000   -4.05693300000000   -4.39592400000000
H        -1.68311200000000   -1.69951000000000   -3.92482900000000
H        -0.55833700000000   -1.84370100000000   -0.44690400000000
H         1.53285200000000   -3.21952300000000   -2.75971600000000
H        -0.66230100000000   -2.68290300000000    1.86237000000000
H        -0.48936100000000   -5.14030700000000    1.89131700000000
H         1.71119800000000   -6.21111600000000    1.46347800000000
H         3.68043700000000   -4.87946600000000    1.05787600000000
H         6.19524200000000   -2.37401600000000    1.29497500000000
H         5.23889600000000   -3.41888900000000    2.32776000000000
H         5.44492200000000   -3.79491000000000    0.61135000000000
H         3.36965200000000   -0.99886600000000   -0.74310700000000
H         5.10834100000000   -1.16224900000000   -0.62137200000000
H         4.14143700000000   -2.53676700000000   -1.14147400000000
H         3.47908800000000   -0.09544800000000    1.61705300000000
H         3.85137600000000   -1.17918900000000    2.96891900000000
H         5.12533200000000   -0.50157500000000    1.95537800000000
96
 energy: -143.098458889524 gnorm: 0.055216877800 xtb: 6.3.3 (4ae9cef)
C         3.54904392443613    4.55347888786574    2.19513623292159
C         2.66312672700275    4.72293492367307    3.23278360378194
C         1.49284575696558    3.96946446845676    3.25843829982526
C         1.21228234680114    3.06836839205481    2.25161147260462
C         2.08461797455784    2.87111765941466    1.15737703015920
C         3.28894975912495    3.64056025142438    1.15489535485462
C         4.21891708250896    3.48540570493093    0.11370446487877
C         3.98579063095036    2.59019073522149   -0.90138803126656
C         2.81198930834137    1.83522334933247   -0.91561048927306
C         1.84802689485779    1.96270729585422    0.07825868022060
C         0.57272216507551    1.13551474390001   -0.00697939536699
C        -0.19269573749296    1.27189820332036   -1.35616409705282
C        -0.97488088783004    2.53938894155966   -1.67671076072182
C        -0.75666344806540    3.02389653833515   -2.96504261856654
C        -1.31783366529811    4.21197311814052   -3.43059728061126
C        -2.11169021400054    4.96000076285436   -2.60046865606242
C        -2.39003815608602    4.51667826546477   -1.29746884231761
C        -1.83923003222620    3.28665491335103   -0.81581145998914
C        -2.22679977276572    2.90738617754501    0.48815293374264
C        -3.06605738172787    3.67751179101435    1.27188409108560
C        -3.57866194377559    4.87777046550753    0.78831914812162
C        -3.24129237946916    5.28552527734448   -0.47950123803855
N        -0.88811046839605   -0.02653180056488   -1.44408119544175
C        -2.19605753000631   -0.25186839080042   -1.79054264282729
C        -2.60406019941205   -1.68442499762390   -1.92835668032662
C        -3.39330112630108   -2.38792962318187   -0.99730147476720
C        -3.97918214746933   -1.79813393162380    0.30305850968356
C        -3.13780863745970   -0.67110819515452    0.92236027090243
C        -4.13564214720999   -2.87413245982507    1.39643673766969
C        -5.37490250591194   -1.23767348015231   -0.02868383975456
C        -3.72284900506362   -3.70591981561612   -1.34313165096479
C        -3.30826716152517   -4.30390714144804   -2.52548616302916
C        -2.56942578672991   -3.58196654257195   -3.44259434404961
C        -2.22771102965533   -2.27486528985233   -3.14358451422823
O        -2.98903290027904    0.62215166774892   -2.09455211661544
C         0.01952266107042   -1.03686773507377   -0.91713070414609
C         0.91939849885315   -1.63201890473839   -2.01167394721644
O         0.86050479799538   -2.97206496469642   -2.07090338569589
O         1.63884941564999   -1.01666696260864   -2.75634279124328
N         0.83277425017981   -0.32506443464870    0.06907829582693
C         1.13256777258432   -0.88774364369777    1.29941489059578
C         1.43225200750384   -2.35210665351248    1.33139192841141
C         0.31593177689037   -3.14544065439949    1.62811335192723
C         0.40320710330679   -4.52329017167448    1.67849357451294
C         1.62716404411813   -5.11666202265144    1.44006991691510
C         2.75069084943395   -4.33241912026669    1.21435760308005
C         2.71018662127522   -2.93197105247923    1.18346212486146
C         4.02354675654370   -2.14200959046141    1.00488484804364
C         5.26920522616508   -2.99824734721047    1.32907292835059
C         4.15341416882567   -1.68513113046177   -0.45526413119495
C         4.09803460130467   -0.91680192049802    1.93312070975229
O         1.11094189672988   -0.24834175671467    2.33448448458281
H         4.46185495325745    5.13394273554977    2.18671551661069
H         2.88138207339083    5.42708641843598    4.02589442428336
H         0.79874200777114    4.08817652459845    4.08116672935918
H         0.30296768697726    2.49581962760175    2.35509617021854
H         5.12693269115787    4.07638834616280    0.11327440124423
H         4.71394904541634    2.47477113820613   -1.69580041747763
H         2.67046571411645    1.13765608514363   -1.73251303756668
H        -0.07919643696907    1.36655100902337    0.83410608867348
H         0.57095877387601    1.21146569584561   -2.14536334326711
H        -0.12963773179528    2.46862080227190   -3.65576001101517
H        -1.12517055519552    4.54652060524475   -4.44312319280736
H        -2.53832092391196    5.88652503019425   -2.96229884875157
H        -1.89804566883708    1.97084465480674    0.90719549893018
H        -3.33130710210781    3.33803521082815    2.26582287422812
H        -4.24719644646879    5.47665258093710    1.39364845706304
H        -3.65268304052382    6.21279523643611   -0.86220920898470
H        -3.50808216728962   -0.43729080704734    1.92326552478379
H        -2.09177841970740   -0.96051776606199    1.03304744340759
H        -3.20441249819810    0.24515256399415    0.34303058420849
H        -3.20534523842837   -3.42415607710341    1.54600231533562
H        -4.93296352351776   -3.58089344139457    1.17603032981277
H        -4.39805232709613   -2.39845318681762    2.34384690019246
H        -5.32266079822966   -0.49279118467783   -0.82308730139834
H        -5.81345277485115   -0.76506526254396    0.85288186069313
H        -6.05007840876409   -2.03298546411225   -0.35332871404441
H        -4.32836083408765   -4.30875104962562   -0.68206140292373
H        -3.58117221274937   -5.33250770448240   -2.72909321748165
H        -2.26410125725408   -4.03670315343801   -4.37812940551042
H        -1.68088829653629   -1.69505962943404   -3.87936239291341
H        -0.54438697071055   -1.85759923913154   -0.46256667532994
H         1.50946504626465   -3.23285545004004   -2.75413011761293
H        -0.63605555204882   -2.67193880834506    1.84185549225234
H        -0.47261678797231   -5.12389179052605    1.89237832541666
H         1.72005827572157   -6.19453798772067    1.45530268983329
H         3.68089869403492   -4.85851355577968    1.06155732914085
H         6.16030169148364   -2.36855247137531    1.28936132465574
H         5.21681245295401   -3.42353833847634    2.32915851498375
H         5.42526093379012   -3.80010718226954    0.60815021551107
H         3.35564923540433   -1.00112595663926   -0.73433927257794
H         5.10031335852818   -1.16554411280827   -0.60543975431367
H         4.13203588468897   -2.53989814660434   -1.13276575678537
H         3.45296999017919   -0.10469990175227    1.61062717513323
H         3.83643733470022   -1.18458707508749    2.95563796614998
H         5.11419937464184   -0.51893032209137    1.94332788209632
96
 energy: -143.106135713531 gnorm: 0.016306886773 xtb: 6.3.3 (4ae9cef)
C         3.54189873633645    4.54881512445150    2.19300491099333
C         2.66215421153029    4.71494236987795    3.22161627237164
C         1.48606428670425    3.95611208871413    3.24573439544521
C         1.20348136567521    3.06375720153409    2.24946376798573
C         2.07548436157806    2.86683741811715    1.15722357218348
C         3.28157568866471    3.63482574458466    1.15063107560426
C         4.21078534907739    3.47286040576795    0.10489850800257
C         3.97145892327138    2.57844664132433   -0.89586251549444
C         2.78993190207874    1.82500241348841   -0.90085838531403
C         1.83983111674147    1.95718101832736    0.08226221752911
C         0.56675748625829    1.14002923260640    0.00104147357030
C        -0.18456291743528    1.26995529075564   -1.34826413859012
C        -0.97024652413504    2.53078573225786   -1.67320330627609
C        -0.75318943941028    3.01016760824554   -2.94574684158392
C        -1.31779205941395    4.19763889423183   -3.42206121189786
C        -2.10821863603569    4.94685158715775   -2.60393022526805
C        -2.38853711960521    4.50376550594102   -1.29807669453940
C        -1.83592243608379    3.27397101606533   -0.81423052097514
C        -2.22134339604464    2.88926968155405    0.48694925257029
C        -3.05165881729517    3.65414067594865    1.25931434440679
C        -3.56599845503746    4.86512755440884    0.78272393943888
C        -3.23801148653533    5.27241328740216   -0.47613479657821
N        -0.89733570000267   -0.01946339413291   -1.42042159327029
C        -2.19158552503376   -0.23738651710429   -1.77565837602424
C        -2.59136361599349   -1.68511854496090   -1.89793081926935
C        -3.38737972250355   -2.39117953903420   -0.98467615064955
C        -3.97360077089610   -1.80350152633087    0.30350355321555
C        -3.13225445203673   -0.67300978200621    0.90741912674490
C        -4.12959183270186   -2.87976894297292    1.39089683449016
C        -5.36331221866057   -1.24142520128554   -0.03777391700579
C        -3.72002574885542   -3.69976023334601   -1.32989525464985
C        -3.30882851398727   -4.29074822546310   -2.50854550443629
C        -2.56322684649366   -3.56825365983249   -3.41988664780860
C        -2.21570093066473   -2.26936829942321   -3.10700593916722
O        -2.95268411604676    0.65510624026667   -2.08378838850842
C         0.01545180181766   -1.02571174603887   -0.91593008071324
C         0.91593293333340   -1.60289587620961   -2.01522507662859
O         0.86253387219220   -2.93629703179653   -2.05569019528016
O         1.61632031149659   -0.96635791530866   -2.75192643402293
N         0.82668766413528   -0.31714732241449    0.07183785968102
C         1.14137946232443   -0.86547406831586    1.29881438270746
C         1.44101193523537   -2.34012372923905    1.31782804055276
C         0.32889220914424   -3.13054657207233    1.60691130731121
C         0.41099951182637   -4.50726304722682    1.66918747117924
C         1.63406801175471   -5.10276187374530    1.43584028590275
C         2.75111074635772   -4.32064030957153    1.21284653630001
C         2.70976543206899   -2.92771671426493    1.17808793414729
C         4.01671819283003   -2.14286303983621    0.99956529550658
C         5.25220903959331   -3.00085425627546    1.32456753416782
C         4.14091401992703   -1.68501638086985   -0.45863270034441
C         4.08240813901174   -0.91997999359805    1.92567017185629
O         1.13790444027149   -0.19933601185572    2.31087643742529
H         4.45936566992747    5.12029154064279    2.16882916427387
H         2.87431779312858    5.41723571242034    4.01489951968448
H         0.79589166595541    4.07510702525186    4.06763598292464
H         0.29733305377415    2.49095146277346    2.33948234496045
H         5.11526786869977    4.06417439185199    0.11159549683012
H         4.69116568937622    2.45316938219166   -1.69162010379491
H         2.64426574595591    1.12412672390423   -1.70976460522392
H        -0.08064306342281    1.39385906708490    0.84102496370337
H         0.58394691203847    1.20620167065235   -2.13081401552104
H        -0.12172809112558    2.45512341250516   -3.62468133873331
H        -1.11548414460322    4.52363097838113   -4.43181072376578
H        -2.53539016671946    5.87704268503000   -2.95088269889580
H        -1.88522486273434    1.95163182946939    0.89573966513236
H        -3.32027975650597    3.31806455001544    2.25014965059115
H        -4.22713487593427    5.46099975970859    1.39624690552580
H        -3.63865836499290    6.19612852376463   -0.86809950856478
H        -3.51414781639871   -0.43500316504842    1.90044818912361
H        -2.09009397356468   -0.96429908936070    1.02042696945993
H        -3.19868385343941    0.22986740405792    0.31058724961198
H        -3.20191139897968   -3.42731512914353    1.53496615323804
H        -4.92202557571448   -3.58465208608214    1.15905006364547
H        -4.39330814436899   -2.40318497572103    2.33290930555269
H        -5.29199507853963   -0.49525370416291   -0.82473018339662
H        -5.79804919271156   -0.77381990429535    0.84321421236964
H        -6.02953836677888   -2.03394754732671   -0.36989549309899
H        -4.33072358054116   -4.29151752325028   -0.66945781788727
H        -3.58827941756661   -5.31210965095183   -2.72147273661750
H        -2.26482140558644   -4.00902369226982   -4.36006788122544
H        -1.65825512263455   -1.68320746676726   -3.82541686651263
H        -0.53231649691462   -1.86929979107689   -0.47410144630826
H         1.48329882938805   -3.24607989337120   -2.74288923545666
H        -0.61940468597901   -2.65146083665978    1.80984056979331
H        -0.46225670478312   -5.10246935671825    1.89211676792504
H         1.72712200215130   -6.17903382820386    1.45209388259124
H         3.68583304942410   -4.83570995608928    1.07111682866303
H         6.13801462477568   -2.36884431604373    1.28658097111975
H         5.18758794131621   -3.42470042299587    2.32382777436669
H         5.40103105696119   -3.80025237214683    0.60381140555635
H         3.33800734007193   -1.00513223403715   -0.72532114970492
H         5.08633270407924   -1.16451592024599   -0.59940219873756
H         4.11835679223760   -2.54088117789461   -1.13124940682120
H         3.42833699748108   -0.11844010691599    1.59949388882332
H         3.81589770867841   -1.19013591942601    2.94427645241977
H         5.09762082479061   -0.52534703199775    1.93395124538718
96
 energy: -143.108428044550 gnorm: 0.013729406542 xtb: 6.3.3 (4ae9cef)
C         3.53577880700077    4.54283447694446    2.18657779608910
C         2.65792634079058    4.70969846094924    3.21600959296454
C         1.47860509611827    3.95180968538348    3.24253651246630
C         1.19293547840019    3.06245952640081    2.24701639441477
C         2.06711098202638    2.86546715448666    1.15605157966903
C         3.27348103774576    3.62712744241820    1.14524354368817
C         4.20225295287237    3.45810472341739    0.09808727042277
C         3.96224784741913    2.55825337627854   -0.89669708266941
C         2.77756925712084    1.80788073046418   -0.89574285724401
C         1.83023631249543    1.95366358375463    0.08542304632026
C         0.55801973269538    1.14241876197663    0.01001483510576
C        -0.18168336591009    1.26658044683771   -1.33935747411378
C        -0.96199676779285    2.52284428518863   -1.67194419314484
C        -0.74144336551247    2.99903820788075   -2.94268905413631
C        -1.30978813856249    4.18455101324481   -3.42187699491431
C        -2.10231125311412    4.93119248204403   -2.60460872992596
C        -2.38268969095223    4.48686010161711   -1.29759603035582
C        -1.83031135274313    3.26040505944789   -0.81418089303414
C        -2.21556581288291    2.86639493067584    0.48476980988664
C        -3.04353840434657    3.62913567721126    1.25874345892046
C        -3.55499196758443    4.84562655075217    0.78641831050087
C        -3.23053856774733    5.25517209796427   -0.47222088634474
N        -0.90145189677756   -0.01619703255116   -1.39686712363267
C        -2.19261884634154   -0.22459973924942   -1.75887811161289
C        -2.58763486740922   -1.67580916084865   -1.87574456271469
C        -3.38380742060409   -2.38905221307025   -0.97231963905877
C        -3.96906334582453   -1.80588391433805    0.30941804596004
C        -3.12763433149476   -0.67178082030156    0.90192455030399
C        -4.12438456984465   -2.88412217779571    1.39350381051974
C        -5.35396402140731   -1.24194017303442   -0.04482067470377
C        -3.71767168600205   -3.69581152517428   -1.32172513079395
C        -3.30634274862991   -4.27919734681631   -2.50320031401252
C        -2.54751122612333   -3.55372142569300   -3.40263677666280
C        -2.19433307075722   -2.25881497330942   -3.07802621424093
O        -2.93688536540452    0.67673487817013   -2.08523230561317
C         0.01436738537848   -1.01991880572973   -0.90563377203797
C         0.91477856478781   -1.57804126210654   -2.01623409597956
O         0.86717618079809   -2.90826085359939   -2.04930003401718
O         1.59177172420880   -0.92309706678314   -2.76107151496249
N         0.82077954305288   -0.31032855202542    0.08222345192510
C         1.15370399359956   -0.84670246044099    1.30654948118470
C         1.44522149339775   -2.32406967155775    1.31902479237550
C         0.32965697806556   -3.11230163148382    1.59368060521729
C         0.40773375788820   -4.48942035049245    1.65699698079808
C         1.63064692748601   -5.09020139175786    1.43254673075767
C         2.74895245475193   -4.31059429406158    1.21159707554285
C         2.70796793698805   -2.91836956151693    1.17648639840890
C         4.01020484131007   -2.13850224906513    0.99366441648097
C         5.24036058799558   -3.00052196312011    1.31896235983606
C         4.12616732973806   -1.68136732490961   -0.46513206497297
C         4.07048867453777   -0.91605612284022    1.91798272459039
O         1.17148825170145   -0.16415438121332    2.30764943183691
H         4.45681800347307    5.10845967253879    2.15240888335921
H         2.86733359889181    5.41103041726101    4.01002200646591
H         0.79079471239019    4.07265586058514    4.06576522172324
H         0.28622665292250    2.48915459887157    2.33014107453955
H         5.10600648862683    4.05015063554595    0.10696081400736
H         4.67621625621436    2.42349590363579   -1.69528567182257
H         2.62751488002082    1.10144254359125   -1.69862407745090
H        -0.08874985313596    1.40394710104006    0.84698717039696
H         0.58854397395236    1.19352071726242   -2.11906206779474
H        -0.10328998731495    2.44430693630149   -3.61526708179826
H        -1.10285646770284    4.50493019218682   -4.43167015101112
H        -2.53369626670485    5.86235275691056   -2.94321613707328
H        -1.87845157665282    1.92415550786309    0.88227456996247
H        -3.31541325101685    3.29264709900332    2.24830249822657
H        -4.20895108605748    5.44000884542822    1.40786351353436
H        -3.62662918304509    6.17908028004060   -0.86899790671668
H        -3.51356265360458   -0.41751627396157    1.88800689788565
H        -2.08685787078423   -0.96542721017470    1.01852060511291
H        -3.19060083705576    0.21937527889909    0.28721999377946
H        -3.19547767153593   -3.43169138513840    1.53274290286033
H        -4.91503942705412   -3.58939290012592    1.15584042816646
H        -4.38901929605733   -2.41126860180447    2.33600011499789
H        -5.26653778635183   -0.49249854514965   -0.82762030145772
H        -5.79712401689176   -0.77835553616806    0.83336555684652
H        -6.01428593642839   -2.03278673504896   -0.39199445489392
H        -4.33227169180078   -4.28477094186250   -0.66251506659676
H        -3.59142479465281   -5.29673811683300   -2.72573956387598
H        -2.24666146348838   -3.98577593345416   -4.34483452464819
H        -1.62218898545310   -1.66849039659199   -3.78137746580730
H        -0.52162602257366   -1.87446905868572   -0.47022423663351
H         1.46613819318440   -3.24440821675113   -2.74212153873756
H        -0.61852075441953   -2.62857030666072    1.78437698390228
H        -0.46683995163208   -5.08034347761867    1.88093240654303
H         1.72309026646060   -6.16616355084020    1.45211649491046
H         3.68598693825880   -4.82200772071073    1.07344750332644
H         6.12761619081213   -2.37232832261853    1.28528497674745
H         5.16644492700996   -3.42623808937419    2.31703822956490
H         5.38529516577994   -3.79947611892702    0.59682047376668
H         3.31769434572221   -1.00577876257046   -0.72503803281150
H         5.06818807992526   -1.15725709075218   -0.60876347990847
H         4.10199166813362   -2.53795411296830   -1.13632776502698
H         3.41390924235746   -0.11948777494075    1.58717044196481
H         3.79744624034533   -1.18824126399236    2.93438499387751
H         5.08335262033084   -0.51869111186344    1.92931729231070
96
 energy: -143.109619007797 gnorm: 0.007818835740 xtb: 6.3.3 (4ae9cef)
C         3.53219633084262    4.53802124311554    2.17878026879667
C         2.65512454129597    4.70764645960617    3.20962057753507
C         1.47275349177906    3.95419368833857    3.23971304043564
C         1.18301295689208    3.06560117669519    2.24420968573400
C         2.06054648828144    2.86508566534993    1.15568376265450
C         3.26744235385466    3.61980110328349    1.14008754695565
C         4.19575110804757    3.44187863968448    0.09323739630112
C         3.95609594643189    2.53494647764268   -0.89633911347650
C         2.77017555575713    1.78826174961395   -0.88975278141118
C         1.82326621893639    1.94907617349714    0.09114876171705
C         0.55145823771841    1.14327994572734    0.01780521029084
C        -0.18097340416046    1.26164945079191   -1.33111479967538
C        -0.95375936758485    2.51392220816647   -1.67169672612833
C        -0.72532963180040    2.99048931386909   -2.94201943041930
C        -1.29792567500365    4.17334764863366   -3.42138325411563
C        -2.09538886486768    4.91497683817899   -2.60304839963028
C        -2.37598348554655    4.46896017947440   -1.29592034893487
C        -1.82616957776588    3.24447845861011   -0.81529648452143
C        -2.21449637703842    2.83834060483125    0.47966282177504
C        -3.03829229758189    3.60024780191468    1.25963222680012
C        -3.54280495003739    4.82210347486740    0.79298057683846
C        -3.22146331739497    5.23591036489754   -0.46612873337586
N        -0.90505928430169   -0.01456347359779   -1.37831367447056
C        -2.19359310191297   -0.21590793760651   -1.75162159760404
C        -2.58418259541757   -1.66686765147207   -1.85911580992527
C        -3.37791527116108   -2.38717656833597   -0.96152662364830
C        -3.96534955539276   -1.80667469461500    0.31615101666694
C        -3.12614345163012   -0.67047190542145    0.90510577437686
C        -4.12033860309111   -2.88360771828830    1.40108491591137
C        -5.34679642449223   -1.24174590379339   -0.04969595420915
C        -3.71144536718296   -3.69319073286717   -1.31820862632130
C        -3.29634488065010   -4.26845410349800   -2.50265153200358
C        -2.52266204427800   -3.54055732418269   -3.38824746330850
C        -2.16996944055471   -2.24827152323902   -3.05549450676264
O        -2.93028431479007    0.68673518857600   -2.08789599220645
C         0.01279952964952   -1.01565105206619   -0.89508980376256
C         0.90893526628985   -1.55625944763385   -2.02084954938282
O         0.87661774605460   -2.88451348709288   -2.04624540202869
O         1.56300261454906   -0.88653898473725   -2.77361151147941
N         0.81180494927425   -0.30599970356296    0.09614405864022
C         1.16256152957078   -0.83149446348724    1.31736761678271
C         1.44414601204140   -2.30835589009360    1.32586972291958
C         0.32195605007501   -3.09281820770775    1.58404261252897
C         0.39490203510006   -4.46997811387267    1.64386933120508
C         1.61697466221886   -5.07668808129798    1.42886764609365
C         2.73906583313419   -4.30151306811752    1.20979122931367
C         2.70256313358397   -2.90829185078586    1.17867597013123
C         4.00239374114513   -2.13187576711022    0.98833167045410
C         5.23237056905622   -2.99431624173595    1.31060571111213
C         4.10783834941719   -1.67748242905069   -0.47258905161849
C         4.06706598373232   -0.90722515194876    1.90835365875504
O         1.20274342358869   -0.13672559392235    2.30989528626019
H         4.45537152120313    5.09949327355459    2.13840874377070
H         2.86445421935594    5.40776280630335    4.00449390190227
H         0.78742336756114    4.07719449296649    4.06507995279544
H         0.27432901338543    2.49448228566561    2.32477628562448
H         5.10003419538608    4.03334263425529    0.10064215506074
H         4.66724735275847    2.38782089101655   -1.69538426593782