      -----------------------------------------------------------      
     |                   =====================                   |     
     |                           x T B                           |     
     |                   =====================                   |     
     |                         S. Grimme                         |     
     |          Mulliken Center for Theoretical Chemistry        |     
     |                    University of Bonn                     |     
      -----------------------------------------------------------      

   * xtb version 6.3.3 (4ae9cef) compiled by 'conda@95abc7406d43' on 2020-10-14

   xtb is free software: you can redistribute it and/or modify it under
   the terms of the GNU Lesser General Public License as published by
   the Free Software Foundation, either version 3 of the License, or
   (at your option) any later version.
   
   xtb is distributed in the hope that it will be useful,
   but WITHOUT ANY WARRANTY; without even the implied warranty of
   MERCHANTABILITY or FITNESS FOR A PARTICULAR PURPOSE.  See the
   GNU Lesser General Public License for more details.
   
   Cite this work as:
   * C. Bannwarth, E. Caldeweyher, S. Ehlert, A. Hansen, P. Pracht,
     J. Seibert, S. Spicher, S. Grimme, WIREs Comput. Mol. Sci., 2020,
     e01493. DOI: 10.1002/wcms.1493
   
   for GFN2-xTB:
   * S. Grimme, C. Bannwarth, P. Shushkov, J. Chem. Theory Comput., 2017,
     13, 1989-2009. DOI: 10.1021/acs.jctc.7b00118
   for GFN1-xTB:
   * C. Bannwarth, S. Ehlert and S. Grimme., J. Chem. Theory Comput., 2019,
     15, 1652-1671. DOI: 10.1021/acs.jctc.8b01176
   for GFN0-xTB:
   * P. Pracht, E. Caldeweyher, S. Ehlert, S. Grimme, ChemRxiv, 2019, preprint.
     DOI: 10.26434/chemrxiv.8326202.v1
   for GFN-FF:
   * S. Spicher and S. Grimme, Angew. Chem. Int. Ed., 2020, 59, 15665-15673.
     DOI: 10.1002/anie.202004239
   
   for DFT-D4:
   * E. Caldeweyher, C. Bannwarth and S. Grimme, J. Chem. Phys., 2017,
     147, 034112. DOI: 10.1063/1.4993215
   * E. Caldeweyher, S. Ehlert, A. Hansen, H. Neugebauer, S. Spicher,
     C. Bannwarth and S. Grimme, J. Chem. Phys., 2019, 150, 154122.
     DOI: 10.1063/1.5090222
   * E. Caldeweyher, J.-M. Mewes, S. Ehlert and S. Grimme, Phys. Chem. Chem. Phys.
     2020, 22, 8499-8512. DOI: 10.1039/D0CP00502A
   
   for sTDA-xTB:
   * S. Grimme and C. Bannwarth, J. Chem. Phys., 2016, 145, 054103.
     DOI: 10.1063/1.4959605
   
   in the mass-spec context:
   * V. Asgeirsson, C. Bauer and S. Grimme, Chem. Sci., 2017, 8, 4879.
     DOI: 10.1039/c7sc00601b
   * J. Koopman and S. Grimme, ACS Omega 2019, 4, 12, 15120-15133.
     DOI: 10.1021/acsomega.9b02011
   
   for metadynamics refer to:
   * S. Grimme, J. Chem. Theory Comput., 2019, 155, 2847-2862
     DOI: 10.1021/acs.jctc.9b00143
   
   with help from (in alphabetical order)
   C. Bannwarth, F. Bohle, G. Brandenburg, E. Caldeweyher, M. Checinski,
   S. Dohm, S. Ehlert, S. Ehrlich, F. März, H. Neugebauer, J. Pisarek,
   P. Pracht, P. Shushkov, and S. Spicher.
   
 * started run on 2022/03/17 at 00:49:58.463     

           -------------------------------------------------
          |                Calculation Setup                |
           -------------------------------------------------

          program call               : xtb acid_409.xyz --opt --chrg 0 --uhf 0 --gfn 2
          coordinate file            : acid_409.xyz
          omp threads                :                    64
          number of atoms            :                    60
          number of electrons        :                   190
          charge                     :                     0
          spin                       :                   0.0
          first test random number   :      0.89819412462090

   ID    Z sym.   atoms
    1    6 C      1-14, 16-21, 23, 25, 26, 30-33, 35-37
    2    7 N      15, 29
    3   53 I      22, 34
    4    8 O      24, 27, 28, 38
    5    1 H      39-60

           -------------------------------------------------
          |                 G F N 2 - x T B                 |
           -------------------------------------------------

        Reference                      10.1021/acs.jctc.8b01176
      * Hamiltonian:
        H0-scaling (s, p, d)           1.850000    2.230000    2.230000
        zeta-weighting                 0.500000
      * Dispersion:
        s8                             2.700000
        a1                             0.520000
        a2                             5.000000
        s9                             5.000000
      * Repulsion:
        kExp                           1.500000    1.000000
        rExp                           1.000000
      * Coulomb:
        alpha                          2.000000
        third order                    shell-resolved
        anisotropic                    true
        a3                             3.000000
        a5                             4.000000
        cn-shift                       1.200000
        cn-exp                         4.000000
        max-rad                        5.000000


          ...................................................
          :                      SETUP                      :
          :.................................................:
          :  # basis functions                 186          :
          :  # atomic orbitals                 184          :
          :  # shells                          100          :
          :  # electrons                       190          :
          :  max. iterations                   250          :
          :  Hamiltonian                  GFN2-xTB          :
          :  restarted?                      false          :
          :  GBSA solvation                  false          :
          :  PC potential                    false          :
          :  electronic temp.          300.0000000     K    :
          :  accuracy                    1.0000000          :
          :  -> integral cutoff          0.2500000E+02      :
          :  -> integral neglect         0.1000000E-07      :
          :  -> SCF convergence          0.1000000E-05 Eh   :
          :  -> wf. convergence          0.1000000E-03 e    :
          :  Broyden damping             0.4000000          :
          ...................................................

 iter      E             dE          RMSdq      gap      omega  full diag
   1   -106.4722946 -0.106472E+03  0.535E+00    3.35       0.0  T
   2   -106.6163609 -0.144066E+00  0.339E+00    3.04       1.0  T
   3   -106.5942135  0.221474E-01  0.139E+00    3.54       1.0  T
   4   -106.6415180 -0.473045E-01  0.480E-01    3.06       1.0  T
   5   -106.6436284 -0.211041E-02  0.358E-01    2.94       1.0  T
   6   -106.6457170 -0.208857E-02  0.129E-01    3.01       1.0  T
   7   -106.6459005 -0.183527E-03  0.853E-02    2.97       1.0  T
   8   -106.6458876  0.128502E-04  0.512E-02    2.99       1.0  T
   9   -106.6459398 -0.521394E-04  0.172E-02    2.99       1.0  T
  10   -106.6459464 -0.666306E-05  0.655E-03    2.99       2.0  T
  11   -106.6459468 -0.333183E-06  0.335E-03    2.99       3.9  T
  12   -106.6459470 -0.171764E-06  0.144E-03    2.98       9.0  T
  13   -106.6459470 -0.226953E-07  0.743E-04    2.98      17.4  T
  14   -106.6459470 -0.661929E-08  0.418E-04    2.98      30.9  T

   *** convergence criteria satisfied after 14 iterations ***

         #    Occupation            Energy/Eh            Energy/eV
      -------------------------------------------------------------
         1        2.0000           -0.7869527             -21.4141
       ...           ...                  ...                  ...
        89        2.0000           -0.4155684             -11.3082
        90        2.0000           -0.4144656             -11.2782
        91        2.0000           -0.4105891             -11.1727
        92        2.0000           -0.4098150             -11.1516
        93        2.0000           -0.4090215             -11.1300
        94        2.0000           -0.4075124             -11.0890
        95        2.0000           -0.4036297             -10.9833 (HOMO)
        96                         -0.2939379              -7.9985 (LUMO)
        97                         -0.2730868              -7.4311
        98                         -0.2641720              -7.1885
        99                         -0.2583177              -7.0292
       100                         -0.2574658              -7.0060
       ...                                ...                  ...
       184                          0.6153758              16.7452
      -------------------------------------------------------------
                  HL-Gap            0.1096918 Eh            2.9849 eV
             Fermi-level           -0.3487838 Eh           -9.4909 eV

 SCC (total)                   0 d,  0 h,  0 min,  0.482 sec
 SCC setup                      ...        0 min,  0.015 sec (  3.128%)
 Dispersion                     ...        0 min,  0.016 sec (  3.301%)
 classical contributions        ...        0 min,  0.017 sec (  3.462%)
 integral evaluation            ...        0 min,  0.082 sec ( 16.929%)
 iterations                     ...        0 min,  0.218 sec ( 45.142%)
 molecular gradient             ...        0 min,  0.133 sec ( 27.588%)
 printout                       ...        0 min,  0.002 sec (  0.431%)

         :::::::::::::::::::::::::::::::::::::::::::::::::::::
         ::                     SUMMARY                     ::
         :::::::::::::::::::::::::::::::::::::::::::::::::::::
         :: total energy            -105.206523504864 Eh    ::
         :: gradient norm              0.096559998474 Eh/a0 ::
         :: HOMO-LUMO gap              2.984866611782 eV    ::
         ::.................................................::
         :: SCC energy              -106.645946980678 Eh    ::
         :: -> isotropic ES            0.120985195502 Eh    ::
         :: -> anisotropic ES          0.004425966124 Eh    ::
         :: -> anisotropic XC          0.043047732040 Eh    ::
         :: -> dispersion             -0.088228969050 Eh    ::
         :: repulsion energy           1.436276286094 Eh    ::
         :: add. restraining           0.000000000000 Eh    ::
         :: total charge              -0.000000000000 e     ::
         :::::::::::::::::::::::::::::::::::::::::::::::::::::

      ----------------------------------------------------------- 
     |                   =====================                   |
     |                        A N C O P T                        |
     |                   =====================                   |
     |               Approximate Normal Coordinate               |
     |                Rational Function Optimizer                |
      ----------------------------------------------------------- 

          ...................................................
          :                      SETUP                      :
          :.................................................:
          :   optimization level            normal          :
          :   max. optcycles                   200          :
          :   ANC micro-cycles                  20          :
          :   degrees of freedom               174          :
          :.................................................:
          :   RF solver                   davidson          :
          :   write xtbopt.log                true          :
          :   linear?                        false          :
          :   energy convergence         0.5000000E-05 Eh   :
          :   grad. convergence          0.1000000E-02 Eh/α :
          :   maximium RF displ.         1.0000000          :
          :   Hlow (freq-cutoff)         0.1000000E-01      :
          :   Hmax (freq-cutoff)         5.0000000          :
          :   S6 in model hess.         20.0000000          :
          ...................................................

generating ANC from model Hessian ...
Using Lindh-Hessian (1995)
 Shifting diagonal of input Hessian by    9.8384103444434864E-003
 Lowest  eigenvalues of input Hessian
    0.000000    0.000000    0.000000    0.000000    0.000000    0.000000
    0.010000    0.010206    0.010314    0.010449    0.010516    0.010654
    0.010903    0.010967    0.011247    0.011324    0.011580    0.011772
 Highest eigenvalues
    1.939867    1.967461    1.976584    2.201414    2.247241    2.262142


........................................................................
.............................. CYCLE    1 ..............................
........................................................................
   1   -106.6459470 -0.106646E+03  0.208E-04    2.98       0.0  T
   2   -106.6459470 -0.202434E-09  0.143E-04    2.98      90.2  T
   3   -106.6459470 -0.219842E-10  0.114E-04    2.98     112.8  T
     SCC iter.                  ...        0 min,  0.048 sec
     gradient                   ...        0 min,  0.134 sec
 * total energy  :  -105.2065235 Eh     change       -0.1490818E-08 Eh
   gradient norm :     0.0965593 Eh/α   predicted     0.0000000E+00 (-100.00%)
   displ. norm   :     0.3450899 α      lambda       -0.1965687E-01
   maximum displ.:     0.1343296 α      in ANC's #56, #59, #20, ...

........................................................................
.............................. CYCLE    2 ..............................
........................................................................
   1   -106.7285354 -0.106729E+03  0.204E-01    3.30       0.0  T
   2   -106.7287177 -0.182307E-03  0.127E-01    3.19       1.0  T
   3   -106.7287204 -0.268669E-05  0.697E-02    3.19       1.0  T
   4   -106.7287524 -0.319571E-04  0.324E-02    3.17       1.0  T
   5   -106.7287717 -0.193779E-04  0.193E-02    3.17       1.0  T
   6   -106.7287731 -0.134523E-05  0.121E-02    3.17       1.1  T
   7   -106.7287742 -0.114001E-05  0.400E-03    3.17       3.2  T
   8   -106.7287744 -0.222137E-06  0.179E-03    3.17       7.2  T
   9   -106.7287745 -0.702346E-07  0.876E-04    3.17      14.7  T
  10   -106.7287745 -0.238759E-08  0.310E-04    3.17      41.7  T
     SCC iter.                  ...        0 min,  0.157 sec
     gradient                   ...        0 min,  0.145 sec
 * total energy  :  -105.2194907 Eh     change       -0.1296723E-01 Eh
   gradient norm :     0.0332232 Eh/α   predicted    -0.1099887E-01 ( -15.18%)
   displ. norm   :     0.3469058 α      lambda       -0.5632653E-02
   maximum displ.:     0.1402314 α      in ANC's #20, #56, #22, ...

........................................................................
.............................. CYCLE    3 ..............................
........................................................................
   1   -106.7700551 -0.106770E+03  0.156E-01    3.31       0.0  T
   2   -106.7701044 -0.492575E-04  0.954E-02    3.27       1.0  T
   3   -106.7700396  0.648046E-04  0.413E-02    3.27       1.0  T
   4   -106.7701292 -0.895790E-04  0.131E-02    3.27       1.0  T
   5   -106.7701315 -0.227367E-05  0.777E-03    3.26       1.7  T
   6   -106.7701316 -0.166597E-06  0.402E-03    3.27       3.2  T
   7   -106.7701318 -0.147545E-06  0.250E-03    3.27       5.2  T
   8   -106.7701318 -0.342439E-07  0.130E-03    3.27       9.9  T
   9   -106.7701318 -0.208856E-07  0.516E-04    3.27      25.0  T
  10   -106.7701318 -0.443906E-08  0.166E-04    3.27      77.8  T
     SCC iter.                  ...        0 min,  0.155 sec
     gradient                   ...        0 min,  0.131 sec
 * total energy  :  -105.2228793 Eh     change       -0.3388533E-02 Eh
   gradient norm :     0.0131790 Eh/α   predicted    -0.3155253E-02 (  -6.88%)
   displ. norm   :     0.2414656 α      lambda       -0.1208130E-02
   maximum displ.:     0.1184961 α      in ANC's #20, #22, #21, ...

........................................................................
.............................. CYCLE    4 ..............................
........................................................................
   1   -106.7702621 -0.106770E+03  0.787E-02    3.28       0.0  T
   2   -106.7702723 -0.102506E-04  0.469E-02    3.27       1.0  T
   3   -106.7702618  0.105259E-04  0.165E-02    3.27       1.0  T
   4   -106.7702753 -0.135475E-04  0.496E-03    3.26       2.6  T
   5   -106.7702759 -0.529598E-06  0.300E-03    3.26       4.3  T
   6   -106.7702759 -0.336107E-07  0.177E-03    3.26       7.3  T
   7   -106.7702759 -0.214356E-07  0.910E-04    3.26      14.2  T
   8   -106.7702759 -0.488990E-08  0.522E-04    3.26      24.7  T
     SCC iter.                  ...        0 min,  0.128 sec
     gradient                   ...        0 min,  0.127 sec
 * total energy  :  -105.2236972 Eh     change       -0.8179226E-03 Eh
   gradient norm :     0.0084193 Eh/α   predicted    -0.6393564E-03 ( -21.83%)
   displ. norm   :     0.2362531 α      lambda       -0.5871272E-03
   maximum displ.:     0.1248265 α      in ANC's #20, #5, #22, ...

........................................................................
.............................. CYCLE    5 ..............................
........................................................................
   1   -106.7679891 -0.106768E+03  0.666E-02    3.26       0.0  T
   2   -106.7679920 -0.288107E-05  0.392E-02    3.27       1.0  T
   3   -106.7679879  0.408976E-05  0.931E-03    3.27       1.4  T
   4   -106.7679931 -0.513136E-05  0.249E-03    3.27       5.2  T
   5   -106.7679933 -0.194402E-06  0.129E-03    3.27      10.0  T
   6   -106.7679933 -0.297197E-08  0.617E-04    3.27      20.9  T
   7   -106.7679933 -0.553102E-08  0.323E-04    3.27      40.0  T
     SCC iter.                  ...        0 min,  0.113 sec
     gradient                   ...        0 min,  0.137 sec
 * total energy  :  -105.2240834 Eh     change       -0.3861591E-03 Eh
   gradient norm :     0.0057788 Eh/α   predicted    -0.3099496E-03 ( -19.74%)
   displ. norm   :     0.1959855 α      lambda       -0.2726543E-03
   maximum displ.:     0.0997965 α      in ANC's #5, #20, #10, ...

........................................................................
.............................. CYCLE    6 ..............................
........................................................................
   1   -106.7669586 -0.106767E+03  0.654E-02    3.25       0.0  T
   2   -106.7669606 -0.198460E-05  0.367E-02    3.26       1.0  T
   3   -106.7669585  0.204742E-05  0.776E-03    3.26       1.7  T
   4   -106.7669612 -0.270307E-05  0.314E-03    3.26       4.1  T
   5   -106.7669614 -0.159357E-06  0.158E-03    3.26       8.2  T
   6   -106.7669614 -0.233585E-07  0.772E-04    3.26      16.7  T
   7   -106.7669614 -0.680238E-08  0.487E-04    3.26      26.5  T
     SCC iter.                  ...        0 min,  0.108 sec
     gradient                   ...        0 min,  0.146 sec
 * total energy  :  -105.2242761 Eh     change       -0.1927274E-03 Eh
   gradient norm :     0.0056658 Eh/α   predicted    -0.1415668E-03 ( -26.55%)
   displ. norm   :     0.2249043 α      lambda       -0.2319280E-03
   maximum displ.:     0.1266374 α      in ANC's #5, #9, #20, ...

........................................................................
.............................. CYCLE    7 ..............................
........................................................................
   1   -106.7674775 -0.106767E+03  0.727E-02    3.25       0.0  T
   2   -106.7674803 -0.281113E-05  0.403E-02    3.26       1.0  T
   3   -106.7674785  0.186200E-05  0.785E-03    3.26       1.6  T
   4   -106.7674811 -0.258129E-05  0.352E-03    3.26       3.7  T
   5   -106.7674812 -0.172487E-06  0.180E-03    3.26       7.2  T
   6   -106.7674813 -0.611244E-07  0.844E-04    3.26      15.3  T
   7   -106.7674813 -0.606983E-08  0.546E-04    3.26      23.6  T
     SCC iter.                  ...        0 min,  0.108 sec
     gradient                   ...        0 min,  0.062 sec
 * total energy  :  -105.2244496 Eh     change       -0.1734843E-03 Eh
   gradient norm :     0.0047158 Eh/α   predicted    -0.1218343E-03 ( -29.77%)
   displ. norm   :     0.2807964 α      lambda       -0.2401590E-03
   maximum displ.:     0.1622661 α      in ANC's #5, #9, #10, ...

........................................................................
.............................. CYCLE    8 ..............................
........................................................................
   1   -106.7685096 -0.106769E+03  0.909E-02    3.23       0.0  T
   2   -106.7685116 -0.206042E-05  0.507E-02    3.24       1.0  T
   3   -106.7685092  0.237930E-05  0.880E-03    3.24       1.5  T
   4   -106.7685125 -0.330400E-05  0.413E-03    3.25       3.1  T
   5   -106.7685127 -0.174145E-06  0.184E-03    3.24       7.0  T
   6   -106.7685128 -0.562626E-07  0.959E-04    3.24      13.5  T
   7   -106.7685128 -0.302968E-08  0.612E-04    3.24      21.1  T
     SCC iter.                  ...        0 min,  0.110 sec
     gradient                   ...        0 min,  0.140 sec
 * total energy  :  -105.2246372 Eh     change       -0.1876165E-03 Eh
   gradient norm :     0.0061004 Eh/α   predicted    -0.1295507E-03 ( -30.95%)
   displ. norm   :     0.3422911 α      lambda       -0.2710486E-03
   maximum displ.:     0.1998609 α      in ANC's #5, #1, #9, ...

........................................................................
.............................. CYCLE    9 ..............................
........................................................................
   1   -106.7696653 -0.106770E+03  0.102E-01    3.24       0.0  T
   2   -106.7696684 -0.312226E-05  0.571E-02    3.24       1.0  T
   3   -106.7696651  0.333927E-05  0.102E-02    3.24       1.3  T
   4   -106.7696695 -0.443170E-05  0.473E-03    3.24       2.7  T
   5   -106.7696698 -0.303599E-06  0.212E-03    3.24       6.1  T
   6   -106.7696698 -0.480584E-07  0.122E-03    3.24      10.6  T
   7   -106.7696699 -0.125665E-07  0.822E-04    3.24      15.7  T
   8   -106.7696699 -0.196920E-08  0.334E-04    3.24      38.7  T
     SCC iter.                  ...        0 min,  0.131 sec
     gradient                   ...        0 min,  0.128 sec
 * total energy  :  -105.2248457 Eh     change       -0.2084803E-03 Eh
   gradient norm :     0.0059181 Eh/α   predicted    -0.1514029E-03 ( -27.38%)
   displ. norm   :     0.3702180 α      lambda       -0.2431537E-03
   maximum displ.:     0.2172108 α      in ANC's #5, #1, #2, ...

........................................................................
.............................. CYCLE   10 ..............................
........................................................................
   1   -106.7691368 -0.106769E+03  0.109E-01    3.21       0.0  T
   2   -106.7691400 -0.321372E-05  0.610E-02    3.22       1.0  T
   3   -106.7691348  0.528076E-05  0.118E-02    3.22       1.1  T
   4   -106.7691416 -0.681785E-05  0.489E-03    3.22       2.6  T
   5   -106.7691418 -0.210927E-06  0.232E-03    3.22       5.6  T
   6   -106.7691419 -0.872257E-07  0.125E-03    3.22      10.3  T
   7   -106.7691419 -0.725147E-08  0.840E-04    3.22      15.4  T
   8   -106.7691419 -0.274404E-08  0.354E-04    3.22      36.4  T
     SCC iter.                  ...        0 min,  0.124 sec
     gradient                   ...        0 min,  0.116 sec
 * total energy  :  -105.2250284 Eh     change       -0.1827466E-03 Eh
   gradient norm :     0.0064689 Eh/α   predicted    -0.1382422E-03 ( -24.35%)
   displ. norm   :     0.3577713 α      lambda       -0.2519548E-03
   maximum displ.:     0.2088939 α      in ANC's #5, #1, #2, ...

........................................................................
.............................. CYCLE   11 ..............................
........................................................................
   1   -106.7706554 -0.106771E+03  0.100E-01    3.27       0.0  T
   2   -106.7706611 -0.563654E-05  0.550E-02    3.26       1.0  T
   3   -106.7706563  0.476006E-05  0.127E-02    3.26       1.0  T
   4   -106.7706629 -0.654480E-05  0.485E-03    3.26       2.7  T
   5   -106.7706629 -0.672580E-07  0.295E-03    3.26       4.4  T
   6   -106.7706631 -0.198476E-06  0.130E-03    3.26       9.9  T
   7   -106.7706631 -0.172655E-08  0.923E-04    3.26      14.0  T
   8   -106.7706631 -0.721766E-08  0.321E-04    3.26      40.2  T
     SCC iter.                  ...        0 min,  0.125 sec
     gradient                   ...        0 min,  0.145 sec
 * total energy  :  -105.2251789 Eh     change       -0.1504667E-03 Eh
   gradient norm :     0.0070910 Eh/α   predicted    -0.1421183E-03 (  -5.55%)
   displ. norm   :     0.4387151 α      lambda       -0.2310662E-03
   maximum displ.:     0.2502525 α      in ANC's #5, #1, #2, ...

........................................................................
.............................. CYCLE   12 ..............................
........................................................................
   1   -106.7668402 -0.106767E+03  0.131E-01    3.17       0.0  T
   2   -106.7668491 -0.886472E-05  0.728E-02    3.19       1.0  T
   3   -106.7668397  0.935288E-05  0.163E-02    3.18       1.0  T
   4   -106.7668521 -0.123425E-04  0.622E-03    3.19       2.1  T
   5   -106.7668524 -0.295921E-06  0.340E-03    3.19       3.8  T
   6   -106.7668526 -0.217636E-06  0.158E-03    3.19       8.2  T
   7   -106.7668526 -0.116207E-07  0.110E-03    3.19      11.8  T
   8   -106.7668526 -0.388525E-08  0.584E-04    3.19      22.1  T
   9   -106.7668526 -0.525115E-08  0.212E-04    3.19      60.8  T
     SCC iter.                  ...        0 min,  0.141 sec
     gradient                   ...        0 min,  0.130 sec
 * total energy  :  -105.2252925 Eh     change       -0.1136202E-03 Eh
   gradient norm :     0.0091124 Eh/α   predicted    -0.1377725E-03 (  21.26%)
   displ. norm   :     0.1425250 α      lambda       -0.1758891E-03
   maximum displ.:     0.0748048 α      in ANC's #1, #2, #5, ...

........................................................................
.............................. CYCLE   13 ..............................
........................................................................
   1   -106.7689665 -0.106769E+03  0.477E-02    3.23       0.0  T
   2   -106.7689709 -0.437015E-05  0.263E-02    3.22       1.0  T
   3   -106.7689693  0.158527E-05  0.836E-03    3.23       1.5  T
   4   -106.7689716 -0.227340E-05  0.279E-03    3.22       4.6  T
   5   -106.7689717 -0.141760E-06  0.172E-03    3.22       7.5  T
   6   -106.7689718 -0.412083E-07  0.854E-04    3.22      15.1  T
   7   -106.7689718 -0.350224E-08  0.558E-04    3.22      23.1  T
     SCC iter.                  ...        0 min,  0.122 sec
     gradient                   ...        0 min,  0.050 sec
 * total energy  :  -105.2254311 Eh     change       -0.1386096E-03 Eh
   gradient norm :     0.0050004 Eh/α   predicted    -0.8973221E-04 ( -35.26%)
   displ. norm   :     0.3777490 α      lambda       -0.2601328E-03
   maximum displ.:     0.2015396 α      in ANC's #1, #5, #2, ...

........................................................................
.............................. CYCLE   14 ..............................
........................................................................
   1   -106.7704637 -0.106770E+03  0.120E-01    3.25       0.0  T
   2   -106.7704662 -0.249790E-05  0.655E-02    3.25       1.0  T
   3   -106.7704634  0.280379E-05  0.109E-02    3.25       1.2  T
   4   -106.7704671 -0.371464E-05  0.572E-03    3.25       2.3  T
   5   -106.7704674 -0.291572E-06  0.265E-03    3.25       4.9  T
   6   -106.7704675 -0.792255E-07  0.167E-03    3.25       7.7  T
   7   -106.7704675 -0.585176E-08  0.104E-03    3.25      12.4  T
   8   -106.7704675 -0.101875E-07  0.308E-04    3.25      41.9  T
   9   -106.7704675 -0.198375E-08  0.148E-04    3.25      87.2  T
     SCC iter.                  ...        0 min,  0.140 sec
     gradient                   ...        0 min,  0.128 sec
 * total energy  :  -105.2256173 Eh     change       -0.1862259E-03 Eh
   gradient norm :     0.0041294 Eh/α   predicted    -0.1486368E-03 ( -20.18%)
   displ. norm   :     0.4355791 α      lambda       -0.1896458E-03
   maximum displ.:     0.2371230 α      in ANC's #1, #5, #2, ...

........................................................................
.............................. CYCLE   15 ..............................
........................................................................
   1   -106.7691340 -0.106769E+03  0.140E-01    3.23       0.0  T
   2   -106.7691397 -0.573571E-05  0.767E-02    3.24       1.0  T
   3   -106.7691326  0.710904E-05  0.145E-02    3.24       1.0  T
   4   -106.7691413 -0.874690E-05  0.685E-03    3.24       1.9  T
   5   -106.7691419 -0.534575E-06  0.342E-03    3.24       3.8  T
   6   -106.7691420 -0.865721E-07  0.199E-03    3.24       6.5  T
   7   -106.7691420 -0.266367E-07  0.137E-03    3.24       9.4  T
   8   -106.7691420 -0.354144E-08  0.533E-04    3.24      24.2  T
   9   -106.7691420 -0.694759E-08  0.194E-04    3.24      66.4  T
     SCC iter.                  ...        0 min,  0.142 sec
     gradient                   ...        0 min,  0.129 sec
 * total energy  :  -105.2257630 Eh     change       -0.1456213E-03 Eh
   gradient norm :     0.0049220 Eh/α   predicted    -0.1128146E-03 ( -22.53%)
   displ. norm   :     0.3941673 α      lambda       -0.1782095E-03
   maximum displ.:     0.2215454 α      in ANC's #1, #5, #2, ...

........................................................................
.............................. CYCLE   16 ..............................
........................................................................
   1   -106.7696434 -0.106770E+03  0.134E-01    3.24       0.0  T
   2   -106.7696464 -0.297373E-05  0.734E-02    3.24       1.0  T
   3   -106.7696410  0.539501E-05  0.135E-02    3.23       1.0  T
   4   -106.7696479 -0.688808E-05  0.645E-03    3.24       2.0  T
   5   -106.7696481 -0.229233E-06  0.301E-03    3.24       4.3  T
   6   -106.7696482 -0.108336E-06  0.200E-03    3.24       6.5  T
   7   -106.7696482 -0.126005E-07  0.127E-03    3.24      10.2  T
   8   -106.7696482 -0.115949E-07  0.347E-04    3.24      37.2  T
   9   -106.7696482 -0.285188E-08  0.175E-04    3.24      73.7  T
     SCC iter.                  ...        0 min,  0.139 sec
     gradient                   ...        0 min,  0.064 sec
 * total energy  :  -105.2259062 Eh     change       -0.1432061E-03 Eh
   gradient norm :     0.0041183 Eh/α   predicted    -0.1029566E-03 ( -28.11%)
   displ. norm   :     0.4108783 α      lambda       -0.1821274E-03
   maximum displ.:     0.2378995 α      in ANC's #1, #5, #2, ...

........................................................................
.............................. CYCLE   17 ..............................
........................................................................
   1   -106.7700071 -0.106770E+03  0.141E-01    3.23       0.0  T
   2   -106.7700104 -0.329852E-05  0.775E-02    3.23       1.0  T
   3   -106.7700012  0.923004E-05  0.158E-02    3.23       1.0  T
   4   -106.7700126 -0.113817E-04  0.667E-03    3.23       1.9  T
   5   -106.7700127 -0.122134E-06  0.324E-03    3.23       4.0  T
   6   -106.7700129 -0.158997E-06  0.207E-03    3.23       6.2  T
   7   -106.7700129 -0.745655E-08  0.124E-03    3.23      10.4  T
   8   -106.7700129 -0.147535E-07  0.338E-04    3.23      38.2  T
   9   -106.7700129 -0.258775E-08  0.182E-04    3.23      71.0  T
     SCC iter.                  ...        0 min,  0.138 sec
     gradient                   ...        0 min,  0.107 sec
 * total energy  :  -105.2260497 Eh     change       -0.1435341E-03 Eh
   gradient norm :     0.0037260 Eh/α   predicted    -0.1064395E-03 ( -25.84%)
   displ. norm   :     0.4182900 α      lambda       -0.1549356E-03
   maximum displ.:     0.2478738 α      in ANC's #1, #5, #2, ...

........................................................................
.............................. CYCLE   18 ..............................
........................................................................
   1   -106.7698113 -0.106770E+03  0.143E-01    3.22       0.0  T
   2   -106.7698146 -0.333777E-05  0.785E-02    3.22       1.0  T
   3   -106.7698069  0.773867E-05  0.151E-02    3.22       1.0  T
   4   -106.7698165 -0.962671E-05  0.654E-03    3.22       2.0  T
   5   -106.7698167 -0.167171E-06  0.303E-03    3.22       4.3  T
   6   -106.7698168 -0.139487E-06  0.191E-03    3.22       6.8  T
   7   -106.7698168 -0.130695E-07  0.123E-03    3.22      10.5  T
   8   -106.7698168 -0.699228E-08  0.400E-04    3.22      32.3  T
   9   -106.7698168 -0.387742E-08  0.179E-04    3.22      72.1  T
     SCC iter.                  ...        0 min,  0.139 sec
     gradient                   ...        0 min,  0.141 sec
 * total energy  :  -105.2261721 Eh     change       -0.1224545E-03 Eh
   gradient norm :     0.0033738 Eh/α   predicted    -0.9102816E-04 ( -25.66%)
   displ. norm   :     0.3841060 α      lambda       -0.1526122E-03
   maximum displ.:     0.2332076 α      in ANC's #1, #8, #5, ...

........................................................................
.............................. CYCLE   19 ..............................
........................................................................
   1   -106.7714624 -0.106771E+03  0.125E-01    3.24       0.0  T
   2   -106.7714662 -0.375769E-05  0.694E-02    3.24       1.0  T
   3   -106.7714566  0.963104E-05  0.157E-02    3.24       1.0  T
   4   -106.7714682 -0.116818E-04  0.613E-03    3.24       2.1  T
   5   -106.7714684 -0.142300E-06  0.351E-03    3.23       3.7  T
   6   -106.7714685 -0.147429E-06  0.198E-03    3.24       6.5  T
   7   -106.7714685 -0.642535E-08  0.127E-03    3.24      10.1  T
   8   -106.7714685 -0.157663E-07  0.387E-04    3.24      33.4  T
   9   -106.7714685 -0.310978E-08  0.159E-04    3.24      81.1  T
     SCC iter.                  ...        0 min,  0.142 sec
     gradient                   ...        0 min,  0.124 sec
 * total energy  :  -105.2262855 Eh     change       -0.1133519E-03 Eh
   gradient norm :     0.0037790 Eh/α   predicted    -0.8756476E-04 ( -22.75%)
   displ. norm   :     0.5076171 α      lambda       -0.1850915E-03
   maximum displ.:     0.3106211 α      in ANC's #1, #5, #8, ...

........................................................................
.............................. CYCLE   20 ..............................
........................................................................
   1   -106.7685339 -0.106769E+03  0.161E-01    3.19       0.0  T
   2   -106.7685392 -0.526975E-05  0.891E-02    3.20       1.0  T
   3   -106.7685267  0.125396E-04  0.184E-02    3.19       1.0  T
   4   -106.7685422 -0.154878E-04  0.716E-03    3.20       1.8  T
   5   -106.7685423 -0.154086E-06  0.358E-03    3.20       3.6  T
   6   -106.7685425 -0.236764E-06  0.178E-03    3.20       7.2  T
   7   -106.7685426 -0.800925E-08  0.119E-03    3.20      10.8  T
   8   -106.7685426 -0.849809E-08  0.443E-04    3.20      29.1  T
   9   -106.7685426 -0.314539E-08  0.195E-04    3.20      66.1  T
     SCC iter.                  ...        0 min,  0.150 sec
     gradient                   ...        0 min,  0.130 sec
 * total energy  :  -105.2264217 Eh     change       -0.1361988E-03 Eh
   gradient norm :     0.0066107 Eh/α   predicted    -0.1163938E-03 ( -14.54%)
   displ. norm   :     0.4251736 α      lambda       -0.2096732E-03
   maximum displ.:     0.2648871 α      in ANC's #1, #3, #5, ...
 * RMSD in coord.:     0.6821169 α      energy gain  -0.1989819E-01 Eh

generating ANC from model Hessian ...
Using Lindh-Hessian (1995)
 Shifting diagonal of input Hessian by    9.8413500446120072E-003
 Lowest  eigenvalues of input Hessian
    0.000000    0.000000    0.000000    0.000000    0.000000    0.000000
    0.010000    0.010207    0.010418    0.010521    0.010627    0.010742
    0.010958    0.011114    0.011323    0.011505    0.011771    0.012054
 Highest eigenvalues
    2.019439    2.029662    2.031621    2.335187    2.349907    2.396760


........................................................................
.............................. CYCLE   21 ..............................
........................................................................
   1   -106.7706514 -0.106771E+03  0.123E-01    3.21       0.0  T
   2   -106.7706555 -0.410285E-05  0.686E-02    3.21       1.0  T
   3   -106.7706447  0.108122E-04  0.157E-02    3.21       1.0  T
   4   -106.7706576 -0.129608E-04  0.570E-03    3.21       2.3  T
   5   -106.7706578 -0.151776E-06  0.298E-03    3.21       4.3  T
   6   -106.7706579 -0.118746E-06  0.163E-03    3.21       7.9  T
   7   -106.7706579 -0.127264E-07  0.114E-03    3.21      11.4  T
   8   -106.7706579 -0.503415E-08  0.463E-04    3.21      27.9  T
   9   -106.7706579 -0.380453E-08  0.169E-04    3.21      76.4  T
     SCC iter.                  ...        0 min,  0.144 sec
     gradient                   ...        0 min,  0.121 sec
 * total energy  :  -105.2265912 Eh     change       -0.1694669E-03 Eh
   gradient norm :     0.0050259 Eh/α   predicted     0.0000000E+00 (-100.00%)
   displ. norm   :     0.0560283 α      lambda       -0.8510510E-04
   maximum displ.:     0.0265501 α      in ANC's #1, #21, #3, ...

........................................................................
.............................. CYCLE   22 ..............................
........................................................................
   1   -106.7714671 -0.106771E+03  0.207E-02    3.22       0.0  T
   2   -106.7714674 -0.356856E-06  0.116E-02    3.22       1.1  T
   3   -106.7714671  0.298869E-06  0.326E-03    3.22       4.0  T
   4   -106.7714675 -0.392724E-06  0.151E-03    3.22       8.5  T
   5   -106.7714675 -0.227238E-07  0.912E-04    3.22      14.2  T
   6   -106.7714675 -0.340786E-08  0.558E-04    3.22      23.1  T
     SCC iter.                  ...        0 min,  0.097 sec
     gradient                   ...        0 min,  0.118 sec
 * total energy  :  -105.2266581 Eh     change       -0.6696931E-04 Eh
   gradient norm :     0.0023454 Eh/α   predicted    -0.4273409E-04 ( -36.19%)
   displ. norm   :     0.1435562 α      lambda       -0.1245556E-03
   maximum displ.:     0.0717401 α      in ANC's #1, #3, #2, ...

........................................................................
.............................. CYCLE   23 ..............................
........................................................................
   1   -106.7721818 -0.106772E+03  0.393E-02    3.23       0.0  T
   2   -106.7721829 -0.101660E-05  0.225E-02    3.23       1.0  T
   3   -106.7721811  0.173810E-05  0.591E-03    3.23       2.2  T
   4   -106.7721832 -0.209029E-05  0.179E-03    3.23       7.2  T
   5   -106.7721833 -0.480572E-07  0.921E-04    3.23      14.0  T
   6   -106.7721833 -0.496395E-08  0.461E-04    3.23      28.0  T
     SCC iter.                  ...        0 min,  0.094 sec
     gradient                   ...        0 min,  0.133 sec
 * total energy  :  -105.2267395 Eh     change       -0.8135074E-04 Eh
   gradient norm :     0.0029629 Eh/α   predicted    -0.6364209E-04 ( -21.77%)
   displ. norm   :     0.1276587 α      lambda       -0.6076380E-04
   maximum displ.:     0.0704580 α      in ANC's #1, #3, #2, ...

........................................................................
.............................. CYCLE   24 ..............................
........................................................................
   1   -106.7722578 -0.106772E+03  0.306E-02    3.23       0.0  T
   2   -106.7722583 -0.459791E-06  0.173E-02    3.23       1.0  T
   3   -106.7722574  0.910582E-06  0.430E-03    3.23       3.0  T
   4   -106.7722585 -0.111400E-05  0.154E-03    3.23       8.4  T
   5   -106.7722585 -0.247006E-07  0.869E-04    3.23      14.9  T
   6   -106.7722585 -0.655096E-08  0.477E-04    3.23      27.1  T
     SCC iter.                  ...        0 min,  0.094 sec
     gradient                   ...        0 min,  0.128 sec
 * total energy  :  -105.2267900 Eh     change       -0.5052882E-04 Eh
   gradient norm :     0.0035373 Eh/α   predicted    -0.3090859E-04 ( -38.83%)
   displ. norm   :     0.2398672 α      lambda       -0.1104768E-03
   maximum displ.:     0.1332821 α      in ANC's #1, #3, #2, ...

........................................................................
.............................. CYCLE   25 ..............................
........................................................................
   1   -106.7718087 -0.106772E+03  0.527E-02    3.23       0.0  T
   2   -106.7718104 -0.170162E-05  0.300E-02    3.23       1.0  T
   3   -106.7718070  0.345718E-05  0.842E-03    3.23       1.5  T
   4   -106.7718112 -0.421089E-05  0.246E-03    3.23       5.3  T
   5   -106.7718112 -0.623441E-07  0.142E-03    3.23       9.1  T
   6   -106.7718112 -0.190730E-07  0.677E-04    3.23      19.1  T
   7   -106.7718113 -0.347983E-08  0.461E-04    3.23      28.0  T
     SCC iter.                  ...        0 min,  0.117 sec
     gradient                   ...        0 min,  0.120 sec
 * total energy  :  -105.2268827 Eh     change       -0.9271172E-04 Eh
   gradient norm :     0.0033237 Eh/α   predicted    -0.5841700E-04 ( -36.99%)
   displ. norm   :     0.3671869 α      lambda       -0.1557693E-03
   maximum displ.:     0.2070116 α      in ANC's #1, #3, #2, ...

........................................................................
.............................. CYCLE   26 ..............................
........................................................................
   1   -106.7707625 -0.106771E+03  0.776E-02    3.22       0.0  T
   2   -106.7707669 -0.446754E-05  0.443E-02    3.23       1.0  T
   3   -106.7707589  0.800818E-05  0.129E-02    3.23       1.0  T
   4   -106.7707687 -0.976838E-05  0.386E-03    3.23       3.3  T
   5   -106.7707689 -0.215617E-06  0.225E-03    3.23       5.7  T
   6   -106.7707690 -0.432162E-07  0.111E-03    3.23      11.7  T
   7   -106.7707690 -0.910214E-08  0.767E-04    3.23      16.8  T
   8   -106.7707690 -0.159633E-08  0.321E-04    3.23      40.2  T
     SCC iter.                  ...        0 min,  0.125 sec
     gradient                   ...        0 min,  0.127 sec
 * total energy  :  -105.2270105 Eh     change       -0.1278134E-03 Eh
   gradient norm :     0.0037066 Eh/α   predicted    -0.8839121E-04 ( -30.84%)
   displ. norm   :     0.4175330 α      lambda       -0.1644542E-03
   maximum displ.:     0.2387342 α      in ANC's #1, #3, #2, ...

........................................................................
.............................. CYCLE   27 ..............................
........................................................................
   1   -106.7696217 -0.106770E+03  0.861E-02    3.22       0.0  T
   2   -106.7696274 -0.570771E-05  0.491E-02    3.23       1.0  T
   3   -106.7696171  0.103326E-04  0.148E-02    3.23       1.0  T
   4   -106.7696296 -0.125881E-04  0.441E-03    3.23       2.9  T
   5   -106.7696299 -0.268299E-06  0.261E-03    3.23       4.9  T
   6   -106.7696300 -0.553561E-07  0.129E-03    3.23      10.0  T
   7   -106.7696300 -0.124408E-07  0.878E-04    3.23      14.7  T
   8   -106.7696300 -0.213953E-08  0.368E-04    3.23      35.1  T
     SCC iter.                  ...        0 min,  0.123 sec
     gradient                   ...        0 min,  0.134 sec
 * total energy  :  -105.2271479 Eh     change       -0.1374065E-03 Eh
   gradient norm :     0.0048239 Eh/α   predicted    -0.9656215E-04 ( -29.73%)
   displ. norm   :     0.4367782 α      lambda       -0.1863357E-03
   maximum displ.:     0.2523857 α      in ANC's #1, #3, #2, ...

........................................................................
.............................. CYCLE   28 ..............................
........................................................................
   1   -106.7690604 -0.106769E+03  0.904E-02    3.23       0.0  T
   2   -106.7690654 -0.501795E-05  0.512E-02    3.24       1.0  T
   3   -106.7690543  0.111407E-04  0.154E-02    3.23       1.0  T
   4   -106.7690678 -0.134937E-04  0.466E-03    3.24       2.8  T
   5   -106.7690680 -0.197415E-06  0.286E-03    3.24       4.5  T
   6   -106.7690680 -0.680717E-07  0.146E-03    3.24       8.8  T
   7   -106.7690681 -0.131831E-07  0.101E-03    3.24      12.8  T
   8   -106.7690681 -0.352627E-08  0.393E-04    3.24      32.8  T
   9   -106.7690681 -0.262359E-08  0.166E-04    3.24      77.7  T
     SCC iter.                  ...        0 min,  0.139 sec
     gradient                   ...        0 min,  0.113 sec
 * total energy  :  -105.2273080 Eh     change       -0.1600631E-03 Eh
   gradient norm :     0.0052470 Eh/α   predicted    -0.1109430E-03 ( -30.69%)
   displ. norm   :     0.5003431 α      lambda       -0.2400196E-03
   maximum displ.:     0.2896965 α      in ANC's #1, #2, #3, ...

........................................................................
.............................. CYCLE   29 ..............................
........................................................................
   1   -106.7689779 -0.106769E+03  0.108E-01    3.25       0.0  T
   2   -106.7689827 -0.480758E-05  0.610E-02    3.25       1.0  T
   3   -106.7689675  0.151666E-04  0.183E-02    3.25       1.0  T
   4   -106.7689858 -0.182770E-04  0.538E-03    3.25       2.4  T
   5   -106.7689859 -0.682187E-07  0.325E-03    3.25       4.0  T
   6   -106.7689860 -0.115256E-06  0.168E-03    3.25       7.7  T
   7   -106.7689860 -0.140130E-07  0.113E-03    3.25      11.5  T
   8   -106.7689860 -0.554016E-08  0.426E-04    3.25      30.3  T
   9   -106.7689860 -0.314435E-08  0.187E-04    3.25      69.1  T
     SCC iter.                  ...        0 min,  0.140 sec
     gradient                   ...        0 min,  0.048 sec
 * total energy  :  -105.2275148 Eh     change       -0.2067438E-03 Eh
   gradient norm :     0.0049323 Eh/α   predicted    -0.1500615E-03 ( -27.42%)
   displ. norm   :     0.5738691 α      lambda       -0.2873425E-03
   maximum displ.:     0.3310867 α      in ANC's #1, #2, #3, ...

........................................................................
.............................. CYCLE   30 ..............................
........................................................................
   1   -106.7688348 -0.106769E+03  0.129E-01    3.25       0.0  T
   2   -106.7688404 -0.556472E-05  0.723E-02    3.26       1.0  T
   3   -106.7688185  0.218629E-04  0.221E-02    3.26       1.0  T
   4   -106.7688447 -0.262031E-04  0.621E-03    3.26       2.1  T
   5   -106.7688447  0.193610E-08  0.367E-03    3.26       3.5  T
   6   -106.7688449 -0.177987E-06  0.193E-03    3.26       6.7  T
   7   -106.7688449 -0.155961E-07  0.124E-03    3.26      10.4  T
   8   -106.7688449 -0.796392E-08  0.499E-04    3.26      25.9  T
   9   -106.7688449 -0.498315E-08  0.222E-04    3.26      58.1  T
     SCC iter.                  ...        0 min,  0.140 sec
     gradient                   ...        0 min,  0.129 sec
 * total energy  :  -105.2277595 Eh     change       -0.2447671E-03 Eh
   gradient norm :     0.0045935 Eh/α   predicted    -0.1910300E-03 ( -21.95%)
   displ. norm   :     0.5916766 α      lambda       -0.3072961E-03
   maximum displ.:     0.3393252 α      in ANC's #1, #2, #3, ...

........................................................................
.............................. CYCLE   31 ..............................
........................................................................
   1   -106.7691692 -0.106769E+03  0.138E-01    3.27       0.0  T
   2   -106.7691757 -0.648723E-05  0.776E-02    3.27       1.0  T
   3   -106.7691501  0.255966E-04  0.241E-02    3.27       1.0  T
   4   -106.7691806 -0.305656E-04  0.644E-03    3.27       2.0  T
   5   -106.7691806  0.221124E-08  0.368E-03    3.27       3.5  T
   6   -106.7691808 -0.183327E-06  0.183E-03    3.27       7.1  T
   7   -106.7691808 -0.204057E-07  0.121E-03    3.27      10.7  T
   8   -106.7691808 -0.390233E-08  0.536E-04    3.27      24.1  T
   9   -106.7691808 -0.548771E-08  0.228E-04    3.27      56.7  T
     SCC iter.                  ...        0 min,  0.145 sec
     gradient                   ...        0 min,  0.120 sec
 * total energy  :  -105.2280115 Eh     change       -0.2520308E-03 Eh
   gradient norm :     0.0045569 Eh/α   predicted    -0.2074411E-03 ( -17.69%)
   displ. norm   :     0.5701625 α      lambda       -0.2932238E-03
   maximum displ.:     0.3226360 α      in ANC's #1, #2, #3, ...

........................................................................
.............................. CYCLE   32 ..............................
........................................................................
   1   -106.7697777 -0.106770E+03  0.136E-01    3.27       0.0  T
   2   -106.7697841 -0.641280E-05  0.766E-02    3.28       1.0  T
   3   -106.7697583  0.257863E-04  0.239E-02    3.27       1.0  T
   4   -106.7697890 -0.306212E-04  0.608E-03    3.27       2.1  T
   5   -106.7697890 -0.109033E-08  0.349E-03    3.27       3.7  T
   6   -106.7697891 -0.179058E-06  0.159E-03    3.27       8.1  T
   7   -106.7697892 -0.159019E-07  0.109E-03    3.27      11.9  T
   8   -106.7697892 -0.317195E-08  0.524E-04    3.27      24.6  T
   9   -106.7697892 -0.412386E-08  0.217E-04    3.27      59.4  T
     SCC iter.                  ...        0 min,  0.141 sec
     gradient                   ...        0 min,  0.145 sec
 * total energy  :  -105.2282449 Eh     change       -0.2333433E-03 Eh
   gradient norm :     0.0047382 Eh/α   predicted    -0.1942860E-03 ( -16.74%)
   displ. norm   :     0.4829814 α      lambda       -0.2582464E-03
   maximum displ.:     0.2624854 α      in ANC's #1, #2, #10, ...

........................................................................
.............................. CYCLE   33 ..............................
........................................................................
   1   -106.7717145 -0.106772E+03  0.124E-01    3.28       0.0  T
   2   -106.7717197 -0.519406E-05  0.698E-02    3.28       1.0  T
   3   -106.7717011  0.185321E-04  0.204E-02    3.28       1.0  T
   4   -106.7717232 -0.220199E-04  0.536E-03    3.28       2.4  T
   5   -106.7717232 -0.249371E-07  0.287E-03    3.28       4.5  T
   6   -106.7717233 -0.139705E-06  0.926E-04    3.28      13.9  T
   7   -106.7717233 -0.926711E-08  0.610E-04    3.28      21.2  T
     SCC iter.                  ...        0 min,  0.108 sec
     gradient                   ...        0 min,  0.111 sec
 * total energy  :  -105.2284389 Eh     change       -0.1940356E-03 Eh
   gradient norm :     0.0045359 Eh/α   predicted    -0.1592444E-03 ( -17.93%)
   displ. norm   :     0.4430578 α      lambda       -0.1938391E-03
   maximum displ.:     0.2399813 α      in ANC's #1, #2, #10, ...

........................................................................
.............................. CYCLE   34 ..............................
........................................................................
   1   -106.7696414 -0.106770E+03  0.114E-01    3.27       0.0  T
   2   -106.7696459 -0.454538E-05  0.642E-02    3.27       1.0  T
   3   -106.7696293  0.166029E-04  0.190E-02    3.27       1.0  T
   4   -106.7696491 -0.197805E-04  0.498E-03    3.27       2.6  T
   5   -106.7696491  0.129858E-07  0.287E-03    3.27       4.5  T
   6   -106.7696493 -0.167953E-06  0.828E-04    3.27      15.6  T
   7   -106.7696493 -0.423988E-08  0.566E-04    3.27      22.8  T
     SCC iter.                  ...        0 min,  0.111 sec
     gradient                   ...        0 min,  0.129 sec
 * total energy  :  -105.2285680 Eh     change       -0.1290247E-03 Eh
   gradient norm :     0.0059656 Eh/α   predicted    -0.1159473E-03 ( -10.14%)
   displ. norm   :     0.3399329 α      lambda       -0.2208277E-03
   maximum displ.:     0.1550905 α      in ANC's #9, #15, #12, ...

........................................................................
.............................. CYCLE   35 ..............................
........................................................................
   1   -106.7766705 -0.106777E+03  0.117E-01    3.32       0.0  T
   2   -106.7766794 -0.884227E-05  0.639E-02    3.31       1.0  T
   3   -106.7766716  0.780128E-05  0.149E-02    3.32       1.0  T
   4   -106.7766818 -0.101694E-04  0.526E-03    3.31       2.5  T
   5   -106.7766820 -0.199644E-06  0.295E-03    3.31       4.4  T
   6   -106.7766822 -0.239635E-06  0.742E-04    3.31      17.4  T
   7   -106.7766822 -0.304667E-08  0.511E-04    3.31      25.2  T
     SCC iter.                  ...        0 min,  0.105 sec
     gradient                   ...        0 min,  0.115 sec
 * total energy  :  -105.2286100 Eh     change       -0.4207077E-04 Eh
   gradient norm :     0.0084361 Eh/α   predicted    -0.1232057E-03 ( 192.85%)
   displ. norm   :     0.1966586 α      lambda       -0.1576716E-03
   maximum displ.:     0.1066639 α      in ANC's #1, #2, #16, ...

........................................................................
.............................. CYCLE   36 ..............................
........................................................................
   1   -106.7714277 -0.106771E+03  0.557E-02    3.28       0.0  T
   2   -106.7714312 -0.352805E-05  0.307E-02    3.29       1.0  T
   3   -106.7714279  0.331764E-05  0.102E-02    3.29       1.3  T
   4   -106.7714323 -0.441789E-05  0.364E-03    3.29       3.5  T
   5   -106.7714325 -0.134639E-06  0.238E-03    3.29       5.4  T
   6   -106.7714325 -0.574728E-07  0.126E-03    3.29      10.2  T
   7   -106.7714325 -0.124490E-07  0.812E-04    3.29      15.9  T
   8   -106.7714325 -0.262726E-08  0.412E-04    3.29      31.4  T
     SCC iter.                  ...        0 min,  0.124 sec
     gradient                   ...        0 min,  0.113 sec
 * total energy  :  -105.2287074 Eh     change       -0.9733208E-04 Eh
   gradient norm :     0.0035213 Eh/α   predicted    -0.8189121E-04 ( -15.86%)
   displ. norm   :     0.0864834 α      lambda       -0.7142938E-04
   maximum displ.:     0.0401356 α      in ANC's #2, #11, #9, ...

........................................................................
.............................. CYCLE   37 ..............................
........................................................................
   1   -106.7699299 -0.106770E+03  0.375E-02    3.28       0.0  T
   2   -106.7699308 -0.977076E-06  0.201E-02    3.28       1.0  T
   3   -106.7699305  0.371431E-06  0.437E-03    3.28       3.0  T
   4   -106.7699310 -0.496363E-06  0.237E-03    3.28       5.5  T
   5   -106.7699310 -0.836985E-07  0.141E-03    3.28       9.2  T
   6   -106.7699311 -0.780589E-08  0.838E-04    3.28      15.4  T
   7   -106.7699311 -0.737141E-08  0.505E-04    3.28      25.5  T
     SCC iter.                  ...        0 min,  0.111 sec
     gradient                   ...        0 min,  0.077 sec
 * total energy  :  -105.2287541 Eh     change       -0.4670449E-04 Eh
   gradient norm :     0.0035898 Eh/α   predicted    -0.3598867E-04 ( -22.94%)
   displ. norm   :     0.1571445 α      lambda       -0.7049101E-04
   maximum displ.:     0.0783973 α      in ANC's #9, #2, #5, ...

........................................................................
.............................. CYCLE   38 ..............................
........................................................................
   1   -106.7695427 -0.106770E+03  0.572E-02    3.28       0.0  T
   2   -106.7695442 -0.145502E-05  0.311E-02    3.28       1.0  T
   3   -106.7695434  0.746530E-06  0.527E-03    3.28       2.5  T
   4   -106.7695443 -0.866901E-06  0.268E-03    3.28       4.8  T
   5   -106.7695445 -0.150641E-06  0.120E-03    3.28      10.8  T
   6   -106.7695445 -0.123470E-07  0.597E-04    3.28      21.6  T
   7   -106.7695445 -0.418616E-08  0.443E-04    3.28      29.1  T
     SCC iter.                  ...        0 min,  0.110 sec
     gradient                   ...        0 min,  0.120 sec
 * total energy  :  -105.2288050 Eh     change       -0.5092975E-04 Eh
   gradient norm :     0.0033711 Eh/α   predicted    -0.3611791E-04 ( -29.08%)
   displ. norm   :     0.1990795 α      lambda       -0.6457371E-04
   maximum displ.:     0.1008662 α      in ANC's #9, #2, #5, ...

........................................................................
.............................. CYCLE   39 ..............................
........................................................................
   1   -106.7699967 -0.106770E+03  0.713E-02    3.28       0.0  T
   2   -106.7699976 -0.954500E-06  0.390E-02    3.28       1.0  T
   3   -106.7699964  0.126227E-05  0.638E-03    3.28       2.0  T
   4   -106.7699979 -0.155688E-05  0.293E-03    3.28       4.4  T
   5   -106.7699980 -0.938680E-07  0.106E-03    3.28      12.2  T
   6   -106.7699980 -0.178666E-07  0.469E-04    3.28      27.5  T
   7   -106.7699980 -0.221470E-08  0.319E-04    3.28      40.4  T
     SCC iter.                  ...        0 min,  0.109 sec
     gradient                   ...        0 min,  0.136 sec
 * total energy  :  -105.2288555 Eh     change       -0.5050079E-04 Eh
   gradient norm :     0.0034973 Eh/α   predicted    -0.3356838E-04 ( -33.53%)
   displ. norm   :     0.2597129 α      lambda       -0.7453994E-04
   maximum displ.:     0.1287814 α      in ANC's #9, #2, #5, ...

........................................................................
.............................. CYCLE   40 ..............................
........................................................................
   1   -106.7709006 -0.106771E+03  0.912E-02    3.30       0.0  T
   2   -106.7709022 -0.162285E-05  0.501E-02    3.29       1.0  T
   3   -106.7709004  0.177986E-05  0.795E-03    3.30       1.6  T
   4   -106.7709027 -0.222673E-05  0.370E-03    3.29       3.5  T
   5   -106.7709028 -0.142507E-06  0.136E-03    3.29       9.5  T
   6   -106.7709028 -0.352274E-07  0.637E-04    3.29      20.3  T
   7   -106.7709028 -0.366582E-08  0.441E-04    3.29      29.3  T
     SCC iter.                  ...        0 min,  0.113 sec
     gradient                   ...        0 min,  0.122 sec
 * total energy  :  -105.2289098 Eh     change       -0.5428820E-04 Eh
   gradient norm :     0.0033966 Eh/α   predicted    -0.3978841E-04 ( -26.71%)
   displ. norm   :     0.2811314 α      lambda       -0.6509873E-04
   maximum displ.:     0.1331561 α      in ANC's #9, #2, #5, ...

........................................................................
.............................. CYCLE   41 ..............................
........................................................................
   1   -106.7708856 -0.106771E+03  0.933E-02    3.28       0.0  T
   2   -106.7708874 -0.178236E-05  0.522E-02    3.29       1.0  T
   3   -106.7708846  0.274368E-05  0.886E-03    3.29       1.5  T
   4   -106.7708880 -0.335575E-05  0.368E-03    3.29       3.5  T
   5   -106.7708881 -0.144920E-06  0.164E-03    3.29       7.9  T
   6   -106.7708881 -0.329388E-07  0.713E-04    3.29      18.1  T
   7   -106.7708882 -0.502544E-08  0.461E-04    3.29      28.0  T
     SCC iter.                  ...        0 min,  0.118 sec
     gradient                   ...        0 min,  0.129 sec
 * total energy  :  -105.2289486 Eh     change       -0.3884676E-04 Eh
   gradient norm :     0.0031845 Eh/α   predicted    -0.3512477E-04 (  -9.58%)
   displ. norm   :     0.1825537 α      lambda       -0.5030429E-04
   maximum displ.:     0.0836677 α      in ANC's #2, #5, #9, ...

........................................................................
.............................. CYCLE   42 ..............................
........................................................................
   1   -106.7721311 -0.106772E+03  0.610E-02    3.30       0.0  T
   2   -106.7721321 -0.103911E-05  0.339E-02    3.30       1.0  T
   3   -106.7721313  0.873067E-06  0.572E-03    3.30       2.3  T
   4   -106.7721324 -0.111286E-05  0.249E-03    3.30       5.2  T
   5   -106.7721324 -0.450823E-07  0.117E-03    3.30      11.0  T
   6   -106.7721325 -0.266608E-07  0.554E-04    3.30      23.3  T
   7   -106.7721325 -0.316773E-08  0.379E-04    3.30      34.1  T
     SCC iter.                  ...        0 min,  0.113 sec
     gradient                   ...        0 min,  0.123 sec
 * total energy  :  -105.2289801 Eh     change       -0.3146639E-04 Eh
   gradient norm :     0.0030475 Eh/α   predicted    -0.2600167E-04 ( -17.37%)
   displ. norm   :     0.1532247 α      lambda       -0.3532111E-04
   maximum displ.:     0.0791680 α      in ANC's #2, #5, #9, ...
 * RMSD in coord.:     0.7120631 α      energy gain  -0.2558395E-02 Eh

generating ANC from model Hessian ...
Using Lindh-Hessian (1995)
 Shifting diagonal of input Hessian by    9.8299972593552699E-003
 Lowest  eigenvalues of input Hessian
    0.000000    0.000000    0.000000    0.000000    0.000000    0.000000
    0.010000    0.010200    0.010432    0.010520    0.010746    0.010777
    0.010839    0.011101    0.011202    0.011660    0.011922    0.012246
 Highest eigenvalues
    2.021563    2.028051    2.031516    2.327079    2.356046    2.402569


........................................................................
.............................. CYCLE   43 ..............................
........................................................................
   1   -106.7721949 -0.106772E+03  0.447E-02    3.30       0.0  T
   2   -106.7721953 -0.459443E-06  0.253E-02    3.30       1.0  T
   3   -106.7721946  0.717651E-06  0.445E-03    3.30       2.9  T
   4   -106.7721955 -0.880318E-06  0.169E-03    3.30       7.6  T
   5   -106.7721955 -0.250259E-07  0.788E-04    3.30      16.4  T
   6   -106.7721955 -0.869321E-08  0.370E-04    3.30      34.9  T
     SCC iter.                  ...        0 min,  0.095 sec
     gradient                   ...        0 min,  0.043 sec
 * total energy  :  -105.2290075 Eh     change       -0.2743303E-04 Eh
   gradient norm :     0.0025571 Eh/α   predicted     0.0000000E+00 (-100.00%)
   displ. norm   :     0.0298757 α      lambda       -0.1961736E-04
   maximum displ.:     0.0139277 α      in ANC's #11, #5, #2, ...

........................................................................
.............................. CYCLE   44 ..............................
........................................................................
   1   -106.7719242 -0.106772E+03  0.820E-03    3.29       0.0  T
   2   -106.7719243 -0.101092E-06  0.471E-03    3.29       2.7  T
   3   -106.7719243  0.566538E-07  0.149E-03    3.29       8.7  T
   4   -106.7719243 -0.759536E-07  0.617E-04    3.29      20.9  T
   5   -106.7719243 -0.479838E-08  0.349E-04    3.29      37.0  T
     SCC iter.                  ...        0 min,  0.083 sec
     gradient                   ...        0 min,  0.133 sec
 * total energy  :  -105.2290235 Eh     change       -0.1597095E-04 Eh
   gradient norm :     0.0010002 Eh/α   predicted    -0.9832450E-05 ( -38.44%)
   displ. norm   :     0.1443295 α      lambda       -0.3865533E-04
   maximum displ.:     0.0655549 α      in ANC's #11, #5, #2, ...

........................................................................
.............................. CYCLE   45 ..............................
........................................................................
   1   -106.7710631 -0.106771E+03  0.348E-02    3.28       0.0  T
   2   -106.7710639 -0.763067E-06  0.195E-02    3.28       1.0  T
   3   -106.7710632  0.649220E-06  0.427E-03    3.29       3.0  T
   4   -106.7710641 -0.850942E-06  0.160E-03    3.29       8.0  T
   5   -106.7710641 -0.252794E-07  0.716E-04    3.29      18.0  T
   6   -106.7710641 -0.117698E-07  0.281E-04    3.29      45.9  T
     SCC iter.                  ...        0 min,  0.098 sec
     gradient                   ...        0 min,  0.142 sec
 * total energy  :  -105.2290491 Eh     change       -0.2561178E-04 Eh
   gradient norm :     0.0035184 Eh/α   predicted    -0.1955368E-04 ( -23.65%)
   displ. norm   :     0.0302542 α      lambda       -0.1274928E-04
   maximum displ.:     0.0131252 α      in ANC's #5, #11, #2, ...

........................................................................
.............................. CYCLE   46 ..............................
........................................................................
   1   -106.7713108 -0.106771E+03  0.968E-03    3.29       0.0  T
   2   -106.7713109 -0.967937E-07  0.509E-03    3.29       2.5  T
   3   -106.7713108  0.671180E-07  0.155E-03    3.29       8.3  T
   4   -106.7713109 -0.880738E-07  0.692E-04    3.29      18.7  T
   5   -106.7713109 -0.582178E-08  0.402E-04    3.29      32.1  T
     SCC iter.                  ...        0 min,  0.075 sec
     gradient                   ...        0 min,  0.127 sec
 * total energy  :  -105.2290599 Eh     change       -0.1079150E-04 Eh
   gradient norm :     0.0021706 Eh/α   predicted    -0.6400150E-05 ( -40.69%)
   displ. norm   :     0.1016217 α      lambda       -0.2972467E-04
   maximum displ.:     0.0439484 α      in ANC's #2, #5, #11, ...

........................................................................
.............................. CYCLE   47 ..............................
........................................................................
   1   -106.7719138 -0.106772E+03  0.257E-02    3.30       0.0  T
   2   -106.7719144 -0.601307E-06  0.136E-02    3.30       1.0  T
   3   -106.7719140  0.401497E-06  0.365E-03    3.30       3.5  T
   4   -106.7719145 -0.523688E-06  0.143E-03    3.30       9.0  T
   5   -106.7719145 -0.306527E-07  0.730E-04    3.30      17.7  T
   6   -106.7719145 -0.599397E-08  0.291E-04    3.30      44.4  T
     SCC iter.                  ...        0 min,  0.102 sec
     gradient                   ...        0 min,  0.117 sec
 * total energy  :  -105.2290782 Eh     change       -0.1828356E-04 Eh
   gradient norm :     0.0012616 Eh/α   predicted    -0.1501672E-04 ( -17.87%)
   displ. norm   :     0.0994388 α      lambda       -0.7888234E-05
   maximum displ.:     0.0465030 α      in ANC's #2, #5, #3, ...

........................................................................
.............................. CYCLE   48 ..............................
........................................................................
   1   -106.7720198 -0.106772E+03  0.246E-02    3.30       0.0  T
   2   -106.7720201 -0.237174E-06  0.130E-02    3.30       1.0  T
   3   -106.7720198  0.264505E-06  0.292E-03    3.30       4.4  T
   4   -106.7720201 -0.337137E-06  0.129E-03    3.30      10.0  T
   5   -106.7720201 -0.159826E-07  0.587E-04    3.30      22.0  T
   6   -106.7720202 -0.343680E-08  0.288E-04    3.30      44.8  T
     SCC iter.                  ...        0 min,  0.094 sec
     gradient                   ...        0 min,  0.126 sec
 * total energy  :  -105.2290867 Eh     change       -0.8547980E-05 Eh
   gradient norm :     0.0015732 Eh/α   predicted    -0.3961757E-05 ( -53.65%)
   displ. norm   :     0.0913612 α      lambda       -0.8428853E-05
   maximum displ.:     0.0467508 α      in ANC's #2, #3, #5, ...

........................................................................
.............................. CYCLE   49 ..............................
........................................................................
   1   -106.7720204 -0.106772E+03  0.231E-02    3.30       0.0  T
   2   -106.7720205 -0.116529E-06  0.123E-02    3.30       1.1  T
   3   -106.7720204  0.125119E-06  0.221E-03    3.30       5.8  T
   4   -106.7720206 -0.165784E-06  0.110E-03    3.30      11.7  T
   5   -106.7720206 -0.916843E-08  0.418E-04    3.30      30.9  T
   6   -106.7720206 -0.484260E-08  0.230E-04    3.30      56.0  T
     SCC iter.                  ...        0 min,  0.094 sec
     gradient                   ...        0 min,  0.129 sec
 * total energy  :  -105.2290969 Eh     change       -0.1016378E-04 Eh
   gradient norm :     0.0006137 Eh/α   predicted    -0.4230844E-05 ( -58.37%)
   displ. norm   :     0.1274823 α      lambda       -0.1051398E-04
   maximum displ.:     0.0676413 α      in ANC's #2, #3, #5, ...

........................................................................
.............................. CYCLE   50 ..............................
........................................................................
   1   -106.7719248 -0.106772E+03  0.333E-02    3.29       0.0  T
   2   -106.7719250 -0.173845E-06  0.178E-02    3.29       1.0  T
   3   -106.7719248  0.192676E-06  0.290E-03    3.29       4.5  T
   4   -106.7719251 -0.247889E-06  0.153E-03    3.29       8.4  T
   5   -106.7719251 -0.291505E-07  0.506E-04    3.29      25.5  T
   6   -106.7719251 -0.508086E-08  0.327E-04    3.29      39.4  T
     SCC iter.                  ...        0 min,  0.094 sec
     gradient                   ...        0 min,  0.134 sec
 * total energy  :  -105.2291096 Eh     change       -0.1271734E-04 Eh
   gradient norm :     0.0009224 Eh/α   predicted    -0.5308373E-05 ( -58.26%)
   displ. norm   :     0.1657227 α      lambda       -0.1178222E-04
   maximum displ.:     0.0883679 α      in ANC's #2, #3, #5, ...

........................................................................
.............................. CYCLE   51 ..............................
........................................................................
   1   -106.7717648 -0.106772E+03  0.424E-02    3.29       0.0  T
   2   -106.7717650 -0.241074E-06  0.230E-02    3.29       1.0  T
   3   -106.7717648  0.213966E-06  0.342E-03    3.29       3.8  T
   4   -106.7717651 -0.255331E-06  0.191E-03    3.29       6.7  T
   5   -106.7717651 -0.731032E-07  0.602E-04    3.29      21.5  T
   6   -106.7717651 -0.395235E-08  0.411E-04    3.29      31.4  T
     SCC iter.                  ...        0 min,  0.100 sec
     gradient                   ...        0 min,  0.128 sec
 * total energy  :  -105.2291232 Eh     change       -0.1356007E-04 Eh
   gradient norm :     0.0012193 Eh/α   predicted    -0.5964569E-05 ( -56.01%)
   displ. norm   :     0.1720638 α      lambda       -0.1111074E-04
   maximum displ.:     0.0930780 α      in ANC's #2, #3, #5, ...

........................................................................
.............................. CYCLE   52 ..............................
........................................................................
   1   -106.7717524 -0.106772E+03  0.480E-02    3.30       0.0  T
   2   -106.7717527 -0.303370E-06  0.258E-02    3.30       1.0  T
   3   -106.7717525  0.197733E-06  0.369E-03    3.30       3.5  T
   4   -106.7717528 -0.235078E-06  0.213E-03    3.30       6.1  T
   5   -106.7717529 -0.100421E-06  0.755E-04    3.30      17.1  T
   6   -106.7717529 -0.412145E-08  0.502E-04    3.30      25.7  T
     SCC iter.                  ...        0 min,  0.094 sec
     gradient                   ...        0 min,  0.127 sec
 * total energy  :  -105.2291345 Eh     change       -0.1137772E-04 Eh
   gradient norm :     0.0010433 Eh/α   predicted    -0.5631910E-05 ( -50.50%)
   displ. norm   :     0.1470891 α      lambda       -0.7534656E-05
   maximum displ.:     0.0809630 α      in ANC's #2, #3, #7, ...

........................................................................
.............................. CYCLE   53 ..............................
........................................................................
   1   -106.7718475 -0.106772E+03  0.367E-02    3.30       0.0  T
   2   -106.7718477 -0.181714E-06  0.204E-02    3.30       1.0  T
   3   -106.7718476  0.128080E-06  0.292E-03    3.30       4.4  T
   4   -106.7718478 -0.165018E-06  0.163E-03    3.30       7.9  T
   5   -106.7718478 -0.444434E-07  0.649E-04    3.30      19.9  T
   6   -106.7718478 -0.410812E-08  0.427E-04    3.30      30.2  T
     SCC iter.                  ...        0 min,  0.098 sec
     gradient                   ...        0 min,  0.123 sec
 * total energy  :  -105.2291426 Eh     change       -0.8010164E-05 Eh
   gradient norm :     0.0005595 Eh/α   predicted    -0.3804524E-05 ( -52.50%)
   displ. norm   :     0.1139729 α      lambda       -0.5082926E-05
   maximum displ.:     0.0644186 α      in ANC's #2, #3, #7, ...

........................................................................
.............................. CYCLE   54 ..............................
........................................................................
   1   -106.7720682 -0.106772E+03  0.301E-02    3.30       0.0  T
   2   -106.7720684 -0.118478E-06  0.166E-02    3.30       1.0  T
   3   -106.7720683  0.496681E-07  0.225E-03    3.30       5.8  T
   4   -106.7720684 -0.740696E-07  0.125E-03    3.30      10.3  T
   5   -106.7720684 -0.240581E-07  0.486E-04    3.30      26.6  T
   6   -106.7720684 -0.396047E-08  0.304E-04    3.30      42.4  T
     SCC iter.                  ...        0 min,  0.105 sec
     gradient                   ...        0 min,  0.116 sec
 * total energy  :  -105.2291481 Eh     change       -0.5588681E-05 Eh
   gradient norm :     0.0005471 Eh/α   predicted    -0.2558709E-05 ( -54.22%)
   displ. norm   :     0.1133191 α      lambda       -0.5034235E-05
   maximum displ.:     0.0642675 α      in ANC's #2, #3, #9, ...

........................................................................
.............................. CYCLE   55 ..............................
........................................................................
   1   -106.7721973 -0.106772E+03  0.270E-02    3.30       0.0  T
   2   -106.7721974 -0.119072E-06  0.154E-02    3.30       1.0  T
   3   -106.7721973  0.149909E-06  0.241E-03    3.30       5.3  T
   4   -106.7721975 -0.190784E-06  0.111E-03    3.30      11.6  T
   5   -106.7721975 -0.151636E-07  0.474E-04    3.30      27.3  T
   6   -106.7721975 -0.176217E-08  0.303E-04    3.30      42.6  T
     SCC iter.                  ...        0 min,  0.097 sec
     gradient                   ...        0 min,  0.149 sec
 * total energy  :  -105.2291533 Eh     change       -0.5200554E-05 Eh
   gradient norm :     0.0006701 Eh/α   predicted    -0.2533004E-05 ( -51.29%)
   displ. norm   :     0.1108680 α      lambda       -0.4189330E-05
   maximum displ.:     0.0632018 α      in ANC's #2, #3, #9, ...

........................................................................
.............................. CYCLE   56 ..............................
........................................................................
   1   -106.7720897 -0.106772E+03  0.268E-02    3.30       0.0  T
   2   -106.7720898 -0.128915E-06  0.152E-02    3.30       1.0  T
   3   -106.7720897  0.129656E-06  0.234E-03    3.30       5.5  T
   4   -106.7720899 -0.173886E-06  0.112E-03    3.30      11.5  T
   5   -106.7720899 -0.115740E-07  0.469E-04    3.30      27.5  T
   6   -106.7720899 -0.330230E-08  0.274E-04    3.30      47.2  T
     SCC iter.                  ...        0 min,  0.092 sec
     gradient                   ...        0 min,  0.133 sec
 * total energy  :  -105.2291578 Eh     change       -0.4457438E-05 Eh
   gradient norm :     0.0006445 Eh/α   predicted    -0.2108964E-05 ( -52.69%)
   displ. norm   :     0.0683210 α      lambda       -0.3200582E-05
   maximum displ.:     0.0370489 α      in ANC's #2, #9, #3, ...

   *** GEOMETRY OPTIMIZATION CONVERGED AFTER 56 ITERATIONS ***

------------------------------------------------------------------------
 total energy gain   :        -0.0226343 Eh      -14.2032 kcal/mol
 total RMSD          :         1.1936637 a0        0.6317 Å
 total power (kW/mol):        -1.0611849 (step)   -2.8152 (real)
------------------------------------------------------------------------

 ANCopt (total)                0 d,  0 h,  0 min, 21.109 sec
 optimizer setup                ...        0 min,  0.000 sec (  0.001%)
 model hessian                  ...        0 min,  0.090 sec (  0.428%)
 ANC generation                 ...        0 min,  0.025 sec (  0.117%)
 coordinate transformation      ...        0 min,  0.004 sec (  0.018%)
 single point calculation       ...        0 min, 20.283 sec ( 96.084%)
 optimization log               ...        0 min,  0.008 sec (  0.040%)
 hessian update                 ...        0 min,  0.642 sec (  3.042%)
 rational function              ...        0 min,  0.013 sec (  0.063%)

================
 final structure:
================
60
 xtb: 6.3.3 (4ae9cef)
C         2.62015238932684   -3.16722787648268    0.30535520752569
C         3.54043175199835   -3.58942774076211    1.24852809773731
C         3.65009993652288   -2.92599975838612    2.45812822574905
C         2.83736140644031   -1.83646487160750    2.72238270696699
C         1.91706667090995   -1.41559723441517    1.78063612839656
C         1.80078117079549   -2.07915487821298    0.56521427952789
C         0.78428396986014   -1.62230039945828   -0.44969224198259
C        -0.67372547798339   -1.82656116890774    0.04096726445110
C        -1.57229263160854   -2.47207360094177   -0.98707591421828
C        -2.81489502049052   -1.93822402686522   -1.29941261247247
C        -3.62256039436561   -2.54851989866444   -2.24418286101877
C        -3.20246911465243   -3.70414450367790   -2.87822939298972
C        -1.97592165109662   -4.25757727131383   -2.55044170878901
C        -1.16758133639767   -3.64778772129236   -1.60876451132115
N        -1.10336230232084   -0.48252250493573    0.40243323413705
C        -1.56722906240511   -0.22824607956080    1.66665380762440
C        -1.68282594471300    1.20974444640005    2.04981416521556
C        -2.35100761267511    2.15249078875599    1.27433894012486
C        -2.43532381560908    3.46353020198356    1.71179582953962
C        -1.85600333492533    3.84799526113723    2.90912231442571
C        -1.20505199704066    2.89946480428330    3.67880751277324
I        -0.31847578469831    3.47062894262469    5.51102235953034
C        -1.12262254489155    1.58349796340801    3.26791811189160
O        -1.85727399833509   -1.12828651531968    2.42294667934542
C        -0.40584988702385    0.44890712470184   -0.44165861965481
C        -1.17327736451380    0.63880826360475   -1.77102171606728
O        -0.62484201119653   -0.03150032836390   -2.77317904476876
O        -2.14991949907062    1.32718387445072   -1.87481986763260
N         0.87521915458476   -0.17816369000580   -0.64731776156989
C         1.97529632085724    0.39718785634129   -1.19592335823233
C         1.88636935785884    1.89166496908047   -1.28753536680654
C         1.79137805786178    2.64707381348603   -0.12422199274922
C         1.69306740317414    4.02189857261858   -0.21686593902887
I         1.48648041130003    5.15688317307964    1.55490624652761
C         1.70417910376097    4.65892994189704   -1.44525411263626
C         1.82732189496148    3.90129862131681   -2.59740389163408
C         1.91822734409594    2.52168858947626   -2.52363328766688
O         2.94117366572718   -0.23835931408046   -1.55167737686690
H         2.54527347351575   -3.67867872034063   -0.64301421972673
H         4.17650408104279   -4.43563227569033    1.03562106425033
H         4.36989039969740   -3.25378666849383    3.19306201306712
H         2.92124322333918   -1.31347339014401    3.66345379761082
H         1.28430059409304   -0.56448301128296    1.99195339931882
H         0.95993006507345   -2.12550805385147   -1.40635351207956
H        -0.69574614794120   -2.43290775745236    0.95571056368410
H        -3.16268122062181   -1.04818515613598   -0.79660685579830
H        -4.58500855211768   -2.11890133887614   -2.47893881626810
[...]

 SCC (total)                   0 d,  0 h,  0 min,  0.294 sec
 SCC setup                      ...        0 min,  0.015 sec (  5.167%)
 Dispersion                     ...        0 min,  0.014 sec (  4.813%)
 classical contributions        ...        0 min,  0.010 sec (  3.389%)
 integral evaluation            ...        0 min,  0.083 sec ( 28.292%)
 iterations                     ...        0 min,  0.049 sec ( 16.601%)
 molecular gradient             ...        0 min,  0.121 sec ( 41.052%)
 printout                       ...        0 min,  0.002 sec (  0.658%)

         :::::::::::::::::::::::::::::::::::::::::::::::::::::
         ::                     SUMMARY                     ::
         :::::::::::::::::::::::::::::::::::::::::::::::::::::
         :: total energy            -105.229157807245 Eh    ::
         :: gradient norm              0.000644250844 Eh/a0 ::
         :: HOMO-LUMO gap              3.303599299915 eV    ::
         ::.................................................::
         :: SCC energy              -106.772089897400 Eh    ::
         :: -> isotropic ES            0.119412171143 Eh    ::
         :: -> anisotropic ES          0.003025399825 Eh    ::
         :: -> anisotropic XC          0.040002428806 Eh    ::
         :: -> dispersion             -0.093813220883 Eh    ::
         :: repulsion energy           1.539521096730 Eh    ::
         :: add. restraining           0.000000000000 Eh    ::
         :: total charge              -0.000000000000 e     ::
         :::::::::::::::::::::::::::::::::::::::::::::::::::::

           -------------------------------------------------
          |                Property Printout                |
           -------------------------------------------------

    * Orbital Energies and Occupations

         #    Occupation            Energy/Eh            Energy/eV
      -------------------------------------------------------------
         1        2.0000           -0.7908683             -21.5206
       ...           ...                  ...                  ...
        83        2.0000           -0.4328165             -11.7775
        84        2.0000           -0.4295830             -11.6895
        85        2.0000           -0.4228436             -11.5062
        86        2.0000           -0.4224186             -11.4946
        87        2.0000           -0.4209276             -11.4540
        88        2.0000           -0.4158046             -11.3146
        89        2.0000           -0.4147145             -11.2850
        90        2.0000           -0.4145576             -11.2807
        91        2.0000           -0.4140272             -11.2663
        92        2.0000           -0.4112588             -11.1909
        93        2.0000           -0.4105141             -11.1707
        94        2.0000           -0.4055949             -11.0368
        95        2.0000           -0.4048177             -11.0156 (HOMO)
        96                         -0.2834126              -7.7121 (LUMO)
        97                         -0.2742533              -7.4628
        98                         -0.2729200              -7.4265
        99                         -0.2653562              -7.2207
       100                         -0.2572101              -6.9990
       101                         -0.2433708              -6.6225
       102                         -0.2411636              -6.5624
       103                         -0.2400967              -6.5334
       104                         -0.2349632              -6.3937
       105                         -0.2322404              -6.3196
       106                         -0.2312231              -6.2919
       ...                                ...                  ...
       184                          0.6559982              17.8506
      -------------------------------------------------------------
                  HL-Gap            0.1214050 Eh            3.3036 eV
             Fermi-level           -0.3441151 Eh           -9.3638 eV

     #   Z          covCN         q      C6AA      α(0)
     1   6 C        2.924    -0.028    28.705     8.786
     2   6 C        2.920    -0.025    28.617     8.772
     3   6 C        2.921    -0.027    28.671     8.781
     4   6 C        2.919    -0.025    28.635     8.775
     5   6 C        2.924    -0.028    28.691     8.784
     6   6 C        2.974     0.007    27.859     8.658
     7   6 C        3.824     0.040    19.878     6.344
     8   6 C        3.840     0.036    19.941     6.353
     9   6 C        2.971     0.002    27.968     8.675
    10   6 C        2.923    -0.034    28.845     8.807
    11   6 C        2.920    -0.028    28.700     8.785
    12   6 C        2.920    -0.030    28.759     8.794
    13   6 C        2.920    -0.027    28.671     8.781
    14   6 C        2.925    -0.036    28.908     8.817
    15   7 N        2.766    -0.117    23.544     7.207
    16   6 C        2.765     0.273    22.387     7.749
    17   6 C        2.977    -0.018    28.458     8.751
    18   6 C        2.918    -0.037    28.909     8.817
    19   6 C        2.923    -0.023    28.589     8.768
    20   6 C        3.048    -0.027    28.634     8.776
    21   6 C        2.956     0.063    26.586     8.457
    22  53 I        1.226    -0.116   380.540    33.675
    23   6 C        3.060    -0.025    28.575     8.766
    24   8 O        0.859    -0.405    21.776     6.257
    25   6 C        3.775     0.089    19.126     6.231
    26   6 C        2.688     0.352    21.030     7.505
    27   8 O        1.659    -0.352    19.935     6.027
    28   8 O        0.856    -0.389    21.461     6.211
    29   7 N        2.769    -0.117    23.548     7.207
    30   6 C        2.761     0.273    22.381     7.747
    31   6 C        2.980    -0.017    28.435     8.747
    32   6 C        3.061    -0.036    28.840     8.807
    33   6 C        2.957     0.057    26.731     8.480
    34  53 I        1.228    -0.118   380.705    33.682
    35   6 C        3.046    -0.031    28.722     8.790
    36   6 C        2.923    -0.024    28.602     8.770
    37   6 C        2.921    -0.025    28.621     8.773
    38   8 O        0.859    -0.407    21.815     6.262
    39   1 H        0.926     0.037     2.493     2.469
    40   1 H        0.926     0.040     2.448     2.447
    41   1 H        0.926     0.039     2.457     2.451
    42   1 H        0.926     0.040     2.453     2.449
    43   1 H        0.925     0.020     2.733     2.585
    44   1 H        0.924     0.066     2.129     2.282
    45   1 H        0.924     0.088     1.895     2.153
    46   1 H        0.926     0.034     2.534     2.489
    47   1 H        0.926     0.039     2.463     2.454
    48   1 H        0.926     0.038     2.474     2.460
    49   1 H        0.926     0.040     2.454     2.450
    50   1 H        0.926     0.036     2.503     2.474
    51   1 H        0.926     0.059     2.211     2.325
    52   1 H        0.926     0.053     2.288     2.366
    53   1 H        0.926     0.062     2.170     2.304
    54   1 H        0.926     0.064     2.150     2.293
    55   1 H        0.924     0.068     2.104     2.268
    56   1 H        0.804     0.346     0.598     1.215
    57   1 H        0.926     0.046     2.375     2.410
    58   1 H        0.926     0.059     2.216     2.328
    59   1 H        0.926     0.053     2.282     2.363
    60   1 H        0.926     0.053     2.281     2.362

 Mol. C6AA /au·bohr⁶  :      64945.155765
 Mol. C8AA /au·bohr⁸  :    2099823.447432
 Mol. α(0) /au        :        409.770794


Wiberg/Mayer (AO) data.
largest (>0.10) Wiberg bond orders for each atom

 ---------------------------------------------------------------------------
     #   Z sym  total        # sym  WBO       # sym  WBO       # sym  WBO
 ---------------------------------------------------------------------------
     1   6 C    3.990 --     2 C    1.441     6 C    1.416    39 H    0.968
                             4 C    0.111
     2   6 C    3.992 --     3 C    1.442     1 C    1.441    40 H    0.970
                             5 C    0.112
     3   6 C    3.990 --     2 C    1.442     4 C    1.435    41 H    0.971
                             6 C    0.110
     4   6 C    3.992 --     5 C    1.449     3 C    1.435    42 H    0.971
                             1 C    0.111
     5   6 C    3.992 --     4 C    1.449     6 C    1.409    43 H    0.969
                             2 C    0.112
     6   6 C    3.985 --     1 C    1.416     5 C    1.409     7 C    0.989
                             3 C    0.110
     7   6 C    3.960 --     6 C    0.989    44 H    0.952    29 N    0.952
                             8 C    0.952
     8   6 C    3.958 --     9 C    0.989    15 N    0.964     7 C    0.952
                            45 H    0.939
     9   6 C    3.985 --    10 C    1.418    14 C    1.406     8 C    0.989
                            12 C    0.109
    10   6 C    3.991 --    11 C    1.438     9 C    1.418    46 H    0.967
                            13 C    0.110
    11   6 C    3.992 --    12 C    1.444    10 C    1.438    47 H    0.971
                            14 C    0.112
    12   6 C    3.992 --    11 C    1.444    13 C    1.434    48 H    0.971
                             9 C    0.109
    13   6 C    3.991 --    14 C    1.450    12 C    1.434    49 H    0.970
                            10 C    0.110
    14   6 C    3.991 --    13 C    1.450     9 C    1.406    50 H    0.967
                            11 C    0.112
    15   7 N    3.449 --    16 C    1.174    25 C    0.990     8 C    0.964
                            24 O    0.182
    16   6 C    3.941 --    24 O    1.708    15 N    1.174    17 C    0.977
    17   6 C    3.987 --    18 C    1.394    23 C    1.393    16 C    0.977
                            20 C    0.105
    18   6 C    3.989 --    19 C    1.440    17 C    1.394    51 H    0.964
                            21 C    0.100
    19   6 C    3.991 --    18 C    1.440    20 C    1.435    52 H    0.967
                            23 C    0.108
    20   6 C    3.989 --    19 C    1.435    21 C    1.417    53 H    0.967
                            17 C    0.105
    21   6 C    3.956 --    23 C    1.431    20 C    1.417    22 I    0.974
                            18 C    0.100
    22  53 I    1.089 --    21 C    0.974
    23   6 C    3.988 --    21 C    1.431    17 C    1.393    54 H    0.966
                            19 C    0.108
    24   8 O    2.038 --    16 C    1.708    15 N    0.182
    25   6 C    3.974 --    15 N    0.990    29 N    0.986    55 H    0.932
                            26 C    0.906
    26   6 C    3.919 --    28 O    1.771    27 O    1.170    25 C    0.906
    27   8 O    2.234 --    26 C    1.170    56 H    0.854    28 O    0.184
    28   8 O    2.058 --    26 C    1.771    27 O    0.184
    29   7 N    3.463 --    30 C    1.207    25 C    0.986     7 C    0.952
                            38 O    0.193
    30   6 C    3.947 --    38 O    1.705    29 N    1.207    31 C    0.955
    31   6 C    3.987 --    37 C    1.411    32 C    1.396    30 C    0.955
                            35 C    0.108
    32   6 C    3.990 --    33 C    1.430    31 C    1.396    57 H    0.967
                            36 C    0.109
    33   6 C    3.956 --    32 C    1.430    35 C    1.418    34 I    0.972
                            37 C    0.101
    34  53 I    1.089 --    33 C    0.972
    35   6 C    3.989 --    36 C    1.438    33 C    1.418    58 H    0.968
                            31 C    0.108
    36   6 C    3.990 --    35 C    1.438    37 C    1.436    59 H    0.967
                            32 C    0.109
    37   6 C    3.990 --    36 C    1.436    31 C    1.411    60 H    0.968
                            33 C    0.101
    38   8 O    2.032 --    30 C    1.705    29 N    0.193
    39   1 H    0.999 --     1 C    0.968
    40   1 H    0.998 --     2 C    0.970
    41   1 H    0.998 --     3 C    0.971
    42   1 H    0.998 --     4 C    0.971
    43   1 H    1.000 --     5 C    0.969
    44   1 H    0.995 --     7 C    0.952
    45   1 H    0.992 --     8 C    0.939
    46   1 H    0.999 --    10 C    0.967
    47   1 H    0.998 --    11 C    0.971
    48   1 H    0.998 --    12 C    0.971
    49   1 H    0.998 --    13 C    0.970
    50   1 H    0.999 --    14 C    0.967
    51   1 H    0.995 --    18 C    0.964
    52   1 H    0.997 --    19 C    0.967
    53   1 H    0.996 --    20 C    0.967
    54   1 H    0.996 --    23 C    0.966
    55   1 H    0.995 --    25 C    0.932
    56   1 H    0.880 --    27 O    0.854
    57   1 H    0.998 --    32 C    0.967
    58   1 H    0.996 --    35 C    0.968
    59   1 H    0.997 --    36 C    0.967
    60   1 H    0.996 --    37 C    0.968
 ---------------------------------------------------------------------------

Topologies differ in total number of bonds
Writing topology from bond orders to xtbtopo.mol

molecular dipole:
                 x           y           z       tot (Debye)
 q only:       -0.427      -0.264      -1.889
   full:       -0.653      -0.414      -3.083       8.078
molecular quadrupole (traceless):
                xx          xy          yy          xz          yz          zz
 q only:       -9.484      -5.190      12.038      11.296      -6.357      -2.554
  q+dip:       -4.521     -10.915      12.830      12.957     -18.923      -8.310
   full:       -1.091      -6.723       9.519      10.298     -20.062      -8.428

           -------------------------------------------------
          |                Geometry Summary                 |
           -------------------------------------------------

      molecular mass/u    :      728.3167434
   center of mass at/Å    :        0.1799052       1.4633644       1.1703995
  moments of inertia/u·Å² :        0.5351632E+04   0.1036471E+05   0.1145509E+05
rotational constants/cm⁻¹ :        0.3149998E-02   0.1626444E-02   0.1471628E-02

 * 58 selected distances

     #   Z          #   Z                                           value/Å
     1   6 C        2   6 C                                       1.3837420
     2   6 C        3   6 C                                       1.3839423
     3   6 C        4   6 C                                       1.3847240
     4   6 C        5   6 C                                       1.3823743
     1   6 C        6   6 C                                       1.3866502
     5   6 C        6   6 C                                       1.3896335
     9   6 C       10   6 C                                       1.3880239
    10   6 C       11   6 C                                       1.3846932
    11   6 C       12   6 C                                       1.3834594
    12   6 C       13   6 C                                       1.3849734
     9   6 C       14   6 C                                       1.3901768
    13   6 C       14   6 C                                       1.3827557
     8   6 C       15   7 N                                       1.4566006
    15   7 N       16   6 C                                       1.3704315
    17   6 C       18   6 C                                       1.3916175
    18   6 C       19   6 C                                       1.3846668
    19   6 C       20   6 C                                       1.3845636
    20   6 C       21   6 C                                       1.3841470
    21   6 C       22  53 I                                       2.1140618
    17   6 C       23   6 C                                       1.3918681
    21   6 C       23   6 C                                       1.3810842
    16   6 C       24   8 O                                       1.2108583
    15   7 N       25   6 C                                       1.4375590
    26   6 C       27   8 O                                       1.3245430
    26   6 C       28   8 O                                       1.1993602
     7   6 C       29   7 N                                       1.4604300
    25   6 C       29   7 N                                       1.4410591
    29   7 N       30   6 C                                       1.3572646
    31   6 C       32   6 C                                       1.3903107
    32   6 C       33   6 C                                       1.3814453
    33   6 C       34  53 I                                       2.1142481 (max)
    33   6 C       35   6 C                                       1.3837883
    35   6 C       36   6 C                                       1.3844199
    31   6 C       37   6 C                                       1.3877618
    36   6 C       37   6 C                                       1.3845684
    30   6 C       38   8 O                                       1.2097108
     1   6 C       39   1 H                                       1.0800895
     2   6 C       40   1 H                                       1.0798053
     3   6 C       41   1 H                                       1.0796621
     4   6 C       42   1 H                                       1.0798940
     5   6 C       43   1 H                                       1.0814080
     7   6 C       44   1 H                                       1.0951120
     8   6 C       45   1 H                                       1.0976777
    10   6 C       46   1 H                                       1.0797861
    11   6 C       47   1 H                                       1.0798097
    12   6 C       48   1 H                                       1.0795522
    13   6 C       49   1 H                                       1.0797645
    14   6 C       50   1 H                                       1.0799652
    18   6 C       51   1 H                                       1.0789789
    19   6 C       52   1 H                                       1.0791230
    20   6 C       53   1 H                                       1.0787526
    23   6 C       54   1 H                                       1.0797403
    25   6 C       55   1 H                                       1.0958938
    27   8 O       56   1 H                                       0.9712611 (min)
    32   6 C       57   1 H                                       1.0806453
    35   6 C       58   1 H                                       1.0789502
    36   6 C       59   1 H                                       1.0792900
    37   6 C       60   1 H                                       1.0791167

 * 6 distinct bonds (by element types)

   Z      Z             #   av. dist./Å        max./Å        min./Å
   1 H    6 C          21     1.0820484     1.0976777     1.0787526
   6 C    6 C          24     1.3856413     1.3918681     1.3810842
   6 C    7 N           6     1.4205575     1.4604300     1.3572646
   1 H    8 O           1     0.9712611     0.9712611     0.9712611
   6 C    8 O           4     1.2361181     1.3245430     1.1993602
   6 C   53 I           2     2.1141549     2.1142481     2.1140618


optimized geometry written to: xtbopt.xyz


           -------------------------------------------------
          | TOTAL ENERGY             -105.229157807245 Eh   |
          | GRADIENT NORM               0.000644250844 Eh/α |
          | HOMO-LUMO GAP               3.303599299915 eV   |
           -------------------------------------------------

------------------------------------------------------------------------
 * finished run on 2022/03/17 at 00:50:20.497     
------------------------------------------------------------------------
 total:
 * wall-time:     0 d,  0 h,  0 min, 22.034 sec
 *  cpu-time:     0 d,  0 h,  8 min, 28.520 sec
 * ratio c/w:    23.079 speedup
 SCF:
 * wall-time:     0 d,  0 h,  0 min,  0.483 sec
 *  cpu-time:     0 d,  0 h,  0 min,  9.131 sec
 * ratio c/w:    18.908 speedup
 ANC optimizer:
 * wall-time:     0 d,  0 h,  0 min, 21.409 sec
 *  cpu-time:     0 d,  0 h,  8 min, 15.449 sec
 * ratio c/w:    23.142 speedup

