62
 energy: -107.651349779979 gnorm: 0.000923163910 xtb: 6.3.3 (4ae9cef)
C        -0.86115338806558   -2.44138750542563   -1.95735067661143
C        -1.17754634461551   -3.33877822576343   -2.96119014938560
C        -1.94577838528671   -4.45476272873340   -2.67961056200334
C        -2.39772330993907   -4.67001089099102   -1.38911984431260
C        -2.08473000837946   -3.77161682351762   -0.38501275735224
C        -1.31474637192092   -2.65125050089070   -0.66219259990913
C        -0.97007728744830   -1.68449770309046    0.44460788878830
C         0.51830116391294   -1.72515543978900    0.82117873286355
C         0.80202483579659   -1.63037259842347    2.30337436574997
C         1.95271686823995   -2.22842884289662    2.80369140355393
C         2.27878307326037   -2.11160886603526    4.14294670791173
C         1.45930069493298   -1.39406119303337    4.99782019697451
C         0.31314216832417   -0.79389409388301    4.50616748165597
C        -0.01522164721643   -0.90881898409753    3.16591829932256
N         1.06402205120997   -0.54840743312817    0.13980463915013
C         2.37251774302861   -0.47502722635700   -0.20009805938240
C         2.86307896190354    0.83429160988445   -0.74470527246197
C         2.49253951583623    1.32850020513710   -2.00094014209644
C         1.54557408029650    0.64458602689849   -2.79553634077160
N         0.75041894939854    0.12376433641992   -3.43759219471639
C         3.05208979190701    2.51175915611849   -2.48717463168558
C         3.97729643323168    3.19772584512862   -1.72569581387438
C         4.35761435105873    2.70441416365489   -0.48643363427143
C         3.81217599693130    1.52638477958407   -0.00557803591543
O         3.13284367439650   -1.40709649855698   -0.04575713339554
C         0.04889135837617    0.46038658721428    0.04897955948974
C         0.08556100590888    1.45739527910386    1.23304041065669
O         1.30792447016480    1.57513293163904    1.74358300755141
O        -0.85925146077963    2.09172389630914    1.60304812651780
N        -1.17601908218871   -0.29901762683289    0.02382461223994
C        -2.43077222433891    0.13821000805593   -0.26534493024143
C        -2.52642573047110    1.53021767103911   -0.80334763851079
C        -2.00994197683274    1.84804488151433   -2.05124657257521
C        -2.17045002382683    3.12469135024754   -2.56500003045797
C        -2.84918470538350    4.09104703593066   -1.83869804551861
C        -3.38228923290411    3.78350226403238   -0.60104504560141
C        -3.23102344654121    2.49929887375327   -0.08161399391486
C        -3.76753595256360    2.18470697463372    1.19085757778723
N        -4.20748983496846    1.96134543923494    2.22440633368667
O        -3.39905934137560   -0.57411867573310   -0.12304032758630
H        -0.26384508600744   -1.57294073801033   -2.19163539096236
H        -0.82318776297595   -3.16009709084585   -3.96508309778532
H        -2.19528108109928   -5.15315672168979   -3.46463653162186
H        -3.00193097910542   -5.53612338429333   -1.16420803092426
H        -2.44747257042545   -3.93491176793447    0.61894291427103
H        -1.60944127640425   -1.90280927163473    1.30648171857835
H         1.01546462560571   -2.60821059276431    0.40845489952372
H         2.59788946640308   -2.77544219078831    2.13334416744714
H         3.17442783950684   -2.58268301041589    4.51947278542305
H         1.71136421407553   -1.30361929191710    6.04396374064341
H        -0.33331387345635   -0.23330827962817    5.16495386373927
H        -0.91805158553368   -0.43374538614987    2.80968539889665
H         2.75693601853139    2.87463297311014   -3.46066429248546
H         4.40931193224559    4.11222592409243   -2.10230866984732
H         5.08986436932627    3.23504870466702    0.10279405763398
H         4.11500327475620    1.12814167749590    0.95034765792463
H         0.15776335432420    1.07532231328298   -0.85680337399062
H         1.31123273568599    2.19860797401883    2.48914633546616
H        -1.49989584694347    1.09111763554158   -2.63060041362867
H        -1.76818572380171    3.36185930216559   -3.53849083342370
H        -2.96961527014260    5.08505094473770   -2.24281417970171
H        -3.91943220763727    4.52622281860646   -0.03026763652447
