72
 energy: -121.672238234725 gnorm: 0.000449343274 xtb: 6.3.3 (4ae9cef)
C        -3.93732991000793    2.91534702989245    2.56882170415806
C        -4.04048015642574    3.73144640226826    1.47914316022602
C        -3.41262836885339    3.37112822167027    0.27931663411090
C        -2.67956419901529    2.22062331783700    0.19394793311136
C        -2.52479358459667    1.36572547910885    1.30746789347301
C        -3.18867278960299    1.72088582479876    2.51423926262978
C        -3.08638586602420    0.88083881771934    3.64237584327232
C        -2.35149735000115   -0.26716864706147    3.58670371193417
C        -1.66984552823923   -0.60695726334543    2.41076254932616
C        -1.73853692704189    0.18028076208451    1.29049035042633
C        -0.92522932976562   -0.16614112163106    0.06803961953379
C         0.44296042963248    0.55212981812042    0.07400793558756
C         0.49160313097989    1.67555277877198   -0.92859399529409
C         0.64546744449353    1.35806155143602   -2.25525569258253
C         0.65979138608959    2.34574408077908   -3.24650813359992
C         0.49554237654206    3.65659887001101   -2.90302009512006
C         0.31270537016561    4.02720971635997   -1.55526190223505
C         0.31581291344051    3.03043472550326   -0.53990242446491
C         0.11626871411961    3.44816141476820    0.79455242933824
C        -0.08180409459081    4.76436300455492    1.10360522848133
C        -0.08733785154031    5.74220476366081    0.09922342299829
C         0.11111280478430    5.37807403900374   -1.20115336758840
N         1.39839394906712   -0.50505604751355   -0.24891735729629
C         2.73006113954277   -0.17835414710052   -0.18737747310311
C         3.71661319822370   -1.25984195216660   -0.22175489708828
C         5.08737583964400   -1.13877793453728   -0.11721521201499
C         5.88740047911105    0.10571806087763   -0.02322543433959
C         5.59201922386699   -2.46340124954149   -0.12988778045560
C         4.51481523605739   -3.28461631336000   -0.23578491683974
O         3.37570582053478   -2.57867210720769   -0.29118640725844
O         3.07542338670975    0.98841767760527   -0.15015875647864
C         0.83074444938899   -1.78833429086555    0.06946623532909
C         1.23890761446008   -2.18192401764032    1.52642205324858
O         0.86177879099326   -3.39512831701148    1.91466421641607
O         1.84097559895340   -1.43350924586021    2.23615079103477
N        -0.59450579665634   -1.58557559295837   -0.04005246359822
C        -1.54191275169884   -2.38943990668835   -0.60619740617804
C        -1.22100332789785   -3.78755320333711   -0.92061961760423
C        -1.95624862613705   -4.66106412066124   -1.69169540495243
C        -3.24758124633471   -4.41893176037108   -2.37725026130854
C        -1.22517496382079   -5.87970168712384   -1.70057286034214
C        -0.11983703582871   -5.67731936327997   -0.94154257734228
O        -0.09412130657012   -4.41828177358015   -0.46338639037287
O        -2.65421458283630   -1.94925279602125   -0.84402225316449
H        -4.42856146311799    3.17125763475444    3.49698848876633
H        -4.61021839416439    4.64753551369679    1.53030741220708
H        -3.50905185835907    4.01131483324746   -0.58503106470432
H        -2.21701987483367    1.97263245268900   -0.74730418131286
H        -3.60027053000635    1.16472313736258    4.54948507878992
H        -2.27386430986453   -0.91637146080897    4.44589198468048
H        -1.07833036417368   -1.50986385642253    2.40448098628896
H        -1.49779774571680    0.08740999342944   -0.83136975962854
H         0.67483288547479    0.92032507390135    1.07904701489108
H         0.76807801831163    0.32339016726430   -2.54353190422838
H         0.79623489883946    2.05879646205188   -4.27886912893164
H         0.49806610457946    4.42959233525093   -3.65822601134781
H         0.11220983790151    2.72479875016564    1.59410442217242
H        -0.23723927174935    5.05813897522493    2.13124320352742
H        -0.24575006468320    6.77781859103608    0.36230276929076
H         0.11335168487337    6.12078156549485   -1.98667050314254
H         6.10937300459340    0.48090042705073   -1.02197097033902
H         5.31973960922002    0.87332165839738    0.49492803370532
H         6.82531415759532   -0.08577476247234    0.49223093195596
H         6.62003139557843   -2.75512217338526   -0.06305161664089
H         4.42781903254338   -4.35280975419499   -0.28070290320121
H         1.17739183521327   -2.55923582780639   -0.62874196465306
H         0.43699400596594   -3.90155969429684    1.19742108782260
H        -3.26271454388424   -4.91849030229024   -3.34339984132792
H        -3.41699613949189   -3.35344389210207   -2.49812630575226
H        -4.06158416256784   -4.81884802113232   -1.77337465281165
H        -1.50107676406535   -6.78080477463740   -2.20804904539976
H         0.69826331266350   -6.31435654943322   -0.66887045469419
