74
 energy: -128.108408895709 gnorm: 0.127683172112 xtb: 6.3.3 (4ae9cef)
C        -2.71444700000000   -2.23419200000000    0.16980700000000
O        -1.90204400000000   -2.47999100000000    1.24787200000000
C        -2.42785300000000   -3.27540800000000    2.30062000000000
C        -4.00621500000000   -2.75923100000000    0.02679700000000
C        -4.78297500000000   -2.44426500000000   -1.08825100000000
C        -4.27877700000000   -1.59618100000000   -2.06612200000000
C        -2.99224500000000   -1.07496300000000   -1.93987000000000
C        -2.18177300000000   -1.39244900000000   -0.83206000000000
C        -0.77411300000000   -0.81918200000000   -0.69920600000000
C         0.07033300000000   -0.66020100000000   -2.00006000000000
C         0.68385000000000   -1.99333600000000   -2.41957400000000
C         0.20931400000000   -2.58621600000000   -3.60611100000000
C         0.71572900000000   -3.80502100000000   -4.05526100000000
C         1.70513600000000   -4.45295800000000   -3.32425500000000
C         2.18079900000000   -3.88831500000000   -2.13818600000000
C         1.67451300000000   -2.66702800000000   -1.67351000000000
O         2.11226100000000   -2.05067000000000   -0.52823600000000
C         2.75899900000000   -2.87441500000000    0.43573200000000
N         1.03229700000000    0.38243600000000   -1.64881300000000
C         2.12812000000000    0.66307400000000   -2.45158500000000
C         3.25831200000000    1.36763100000000   -1.85625500000000
C         3.86388000000000    1.19839300000000   -0.62723700000000
C         4.92403400000000    2.13317900000000   -0.38218000000000
C         5.73591900000000    2.32425000000000    0.76056000000000
C         6.72080700000000    3.31718800000000    0.76911000000000
C         6.91932200000000    4.11867600000000   -0.34670400000000
C         6.13893000000000    3.94579500000000   -1.49097000000000
C         5.14174300000000    2.95078200000000   -1.49213100000000
S         4.06797100000000    2.55888700000000   -2.77704800000000
O         2.13916800000000    0.30050900000000   -3.62860500000000
C         0.67111600000000    1.00631600000000   -0.38251100000000
C         0.74452500000000    2.55976800000000   -0.22929600000000
O         0.95288000000000    3.23166900000000   -1.37898200000000
O         0.56359200000000    3.17299900000000    0.81567300000000
N        -0.65768400000000    0.47606100000000   -0.00830100000000
C        -1.71543500000000    1.36164400000000   -0.27116600000000
C        -2.54807100000000    1.62687000000000    0.89357400000000
C        -2.53831800000000    1.01654600000000    2.13277200000000
C        -3.46924400000000    1.59440800000000    3.05923000000000
C        -4.17740300000000    2.64483400000000    2.47206600000000
C        -5.13407300000000    3.38464300000000    3.19714500000000
C        -5.36959100000000    3.05735200000000    4.53361400000000
C        -4.67888100000000    2.01566500000000    5.13810500000000
C        -3.73552500000000    1.27850200000000    4.41299000000000
S        -3.72128600000000    2.86552700000000    0.82811800000000
O        -1.85409300000000    1.88505600000000   -1.37542100000000
H        -3.31810400000000   -2.81219000000000    2.73876600000000
H        -1.66742500000000   -3.33505700000000    3.08519300000000
H        -2.63261500000000   -4.29585400000000    1.95967200000000
H        -4.44266100000000   -3.41597600000000    0.77261000000000
H        -5.78742500000000   -2.84867400000000   -1.18479400000000
H        -4.88853400000000   -1.33023800000000   -2.92503200000000
H        -2.64758100000000   -0.38967300000000   -2.71382000000000
H        -0.22389100000000   -1.49725400000000   -0.03534500000000
H        -0.51088900000000   -0.23623600000000   -2.82550900000000
H        -0.55237300000000   -2.08620100000000   -4.20095700000000
H         0.35046700000000   -4.23784400000000   -4.98278500000000
H         2.11687500000000   -5.39385900000000   -3.68201600000000
H         2.96686300000000   -4.41858500000000   -1.61150900000000
H         3.73956200000000   -3.20529700000000    0.08795500000000
H         2.91850100000000   -2.26773200000000    1.33243900000000
H         2.12989500000000   -3.72337700000000    0.71486100000000
H         3.56508900000000    0.44104200000000    0.08658000000000
H         5.59043600000000    1.70519400000000    1.64114100000000
H         7.33420600000000    3.46127800000000    1.65517300000000
H         7.68986300000000    4.88687600000000   -0.33498800000000
H         6.29556800000000    4.57221200000000   -2.36394200000000
H         1.36062600000000    0.60162400000000    0.36523400000000
H         0.87764600000000    4.17836000000000   -1.13778800000000
H        -1.88192100000000    0.19026800000000    2.38172200000000
H        -5.66925600000000    4.20447600000000    2.72607200000000
H        -6.10089300000000    3.62640000000000    5.10348300000000
H        -4.87409600000000    1.76904500000000    6.17955800000000
H        -3.19143500000000    0.47263500000000    4.89846900000000
74
 energy: -128.127204887010 gnorm: 0.051738286239 xtb: 6.3.3 (4ae9cef)
C        -2.70536365485061   -2.21632402149568    0.16449649088925
O        -1.90271751886591   -2.47226487194635    1.24448150695207
C        -2.42423743671434   -3.26884939044739    2.29160359385334
C        -3.98942669635240   -2.74344315776905    0.02216412494125
C        -4.76259865564716   -2.43126877933410   -1.08484010139985
C        -4.26176747890048   -1.58627847959166   -2.05762507324803
C        -2.98324791882571   -1.06204916495985   -1.92682814609702
C        -2.17610453378976   -1.36710260656854   -0.83056849172084
C        -0.75874686255584   -0.83122088697964   -0.68720865048846
C         0.06885906483600   -0.66313989103266   -1.99592480573494
C         0.68396113638024   -1.98204113583251   -2.43014038973457
C         0.21953758170373   -2.57565086485893   -3.60250058884836
C         0.71661197822815   -3.79100614427340   -4.04671709738061
C         1.70013301236715   -4.43448046515767   -3.31836514861923
C         2.17034266524465   -3.87207210197224   -2.14134452490661
C         1.66914934025079   -2.65369170564786   -1.68325293518174
O         2.09931267475584   -2.05212991879972   -0.52636279443671
C         2.75667483078424   -2.86611089679007    0.42942914973221
N         1.04028853720033    0.37059882722929   -1.62980006032979
C         2.12165083694279    0.65253711557486   -2.43023158257359
C         3.24795704228646    1.38767479631167   -1.82874641984855
C         3.84703200247220    1.22241301839762   -0.60817401782654
C         4.92808320094723    2.12801608152847   -0.38194764499476
C         5.73272191247763    2.31341245850205    0.75422851897987
C         6.70241752651094    3.29896453481861    0.75861347433382
C         6.90425569469417    4.10509209579280   -0.35928990736255
C         6.13340835229799    3.94021465250249   -1.49530862201662
C         5.14373500377740    2.95581423314843   -1.49845489625228
S         4.04345237755938    2.58755260913363   -2.78117808489878
O         2.14552000948754    0.28359628382420   -3.59355058562652
C         0.68157464457545    0.97725042731557   -0.35636787024680
C         0.69742142717316    2.51946602305227   -0.24919211732911
O         0.95221959161070    3.18689341799720   -1.37962226268261
O         0.55178017714176    3.10568975503021    0.79434876388524
N        -0.65290212958910    0.47123488576853    0.00102695014131
C        -1.72119038580156    1.37219676226536   -0.26094577504263
C        -2.56343030903963    1.62257152869003    0.90184947290000
C        -2.53947137401970    1.01721312557898    2.13635731405955
C        -3.46591072583806    1.59152331842584    3.05632441972103
C        -4.18613577316697    2.64903649015326    2.46694221648395
C        -5.12973716966904    3.38200322961317    3.18976748279668
C        -5.35780546786988    3.05109540940937    4.51219488411008
C        -4.66191078902737    2.00393028438461    5.11374676378810
C        -3.72531829868023    1.27635308637796    4.40267815478405
S        -3.73180567720319    2.88916819248557    0.81763546288219
O        -1.86736518428532    1.91137333458563   -1.34004830243762
H        -3.32074995617817   -2.81611335727420    2.72581092376837
H        -1.65278915871086   -3.31823331383385    3.06295121763610
H        -2.64029594018907   -4.28627316704601    1.95201128496097
H        -4.41612584965081   -3.40059028015031    0.76765911256453
H        -5.75989862188324   -2.84280651451606   -1.17961162837269
H        -4.86776414025180   -1.32935629254118   -2.91625892732935
H        -2.63012506055129   -0.39171844928951   -2.69768530955675
H        -0.21199034700057   -1.52280266432013   -0.03467779809382
H        -0.53328698779541   -0.26323589965821   -2.82011203016702
H        -0.54348112851411   -2.07902847318373   -4.18567242938112
H         0.34809553932748   -4.22667592118759   -4.96604251462453
H         2.10943027735886   -5.37456077313102   -3.66691697316405
H         2.94569144142071   -4.39979326957206   -1.60322297578490
H         3.73602478661746   -3.19976036362391    0.07804351310937
H         2.90323236428257   -2.24980363530862    1.31915951773512
H         2.13877730805760   -3.72740258014477    0.69806717394107
H         3.55741677405206    0.46018323152122    0.09599348176017
H         5.58308559894453    1.69955003411020    1.63178928786096
H         7.31262661316318    3.44577058042386    1.64111100824255
H         7.67041734154971    4.87076783472376   -0.34204527325499
H         6.28758008135279    4.56492663040848   -2.36279167582780
H         1.36522761231687    0.59985057533158    0.41866206185614
H         0.89971810875742    4.13916530627325   -1.16387057715154
H        -1.88087693087304    0.19942707061578    2.37816026839036
H        -5.66411477815375    4.19612133946461    2.72246452987005
H        -6.08418980813656    3.61554893445905    5.08433289080014
H        -4.85559327093477    1.76146363692325    6.15149961948280
H        -3.18694644939147    0.47161928608582    4.88416137276145
74
 energy: -128.133538346999 gnorm: 0.019917703607 xtb: 6.3.3 (4ae9cef)
C        -2.69541804321760   -2.19792379047137    0.16435576331444
O        -1.89751230265430   -2.46172524710914    1.24240757471726
C        -2.41593868304353   -3.25930608680359    2.28289804857857
C        -3.97446887563205   -2.72382571490456    0.02298711016028
C        -4.74373465263487   -2.41377227159522   -1.08259306451330
C        -4.24500178258653   -1.56813552068512   -2.05158463260563
C        -2.96894373010365   -1.04681136700490   -1.91813519438739
C        -2.16761450353114   -1.35094801517244   -0.83001536158323
C        -0.75096828134745   -0.84220385936041   -0.67543858423308
C         0.06493893832748   -0.66647055873759   -1.98434248826175
C         0.67880569961427   -1.97033745581864   -2.43530182249806
C         0.22342408472350   -2.56089596663190   -3.60164958943079
C         0.71615748571167   -3.77447110141615   -4.04430270434128
C         1.69473757248537   -4.41610662985755   -3.31359609581830
C         2.15987619886521   -3.85455031919823   -2.13963344360941
C         1.66002349102171   -2.63901423257954   -1.68664159002100
O         2.08017542376142   -2.04761433494069   -0.52091353954592
C         2.75418574980151   -2.85262179820506    0.42147437154532
N         1.04551870359727    0.35160829931921   -1.60327750382116
C         2.11014524077474    0.63269918161658   -2.40498416421666
C         3.22601229453553    1.40252172753570   -1.79943024573632
C         3.82859748578838    1.23950691526290   -0.59222900584205
C         4.91971262947377    2.12943887292491   -0.38140837376270
C         5.72269378763904    2.30599456399074    0.74882410314083
C         6.68939853626323    3.28162409902749    0.74857439151280
C         6.89276469101152    4.09156766060328   -0.37097583849449
C         6.12320103301408    3.93471667972814   -1.50136505519914
C         5.13430203599674    2.96094185872135   -1.50291417870089
S         4.00466097867213    2.61245393757061   -2.77892302653779
O         2.15459845865218    0.24778139578804   -3.55632842905831
C         0.68863576881466    0.94848392642433   -0.32936633803598
C         0.72442711631323    2.47601951319211   -0.24458023003912
O         0.94752615082960    3.12020701315930   -1.38212451092268
O         0.51452733709838    3.05139729061909    0.78610868645670
N        -0.64795385428309    0.46062021605483    0.01133353028650
C        -1.71926971063392    1.37915683807867   -0.25645713026517
C        -2.56843043272983    1.61287128086002    0.90345977592346
C        -2.53905110503720    1.01451156235957    2.13295769686312
C        -3.46215813578555    1.58734822335900    3.04582819692613
C        -4.18864411580519    2.65032918831910    2.45668405759388
C        -5.12544111238830    3.37750874494428    3.17837129838118
C        -5.34729140080897    3.04396372671519    4.49402822985443
C        -4.64555110991939    1.99302616745371    5.09265416489456
C        -3.71589828327150    1.27062084838208    4.38709746676293
S        -3.73509162384714    2.90103238129622    0.80197778113152
O        -1.85689714751598    1.94872131539030   -1.31172484925456
H        -3.31721869195561   -2.81516876166763    2.71687272864761
H        -1.63502179176749   -3.30059962855910    3.04160200801461
H        -2.63934156276774   -4.27530994043810    1.94336391540841
H        -4.38908339079416   -3.38458009467193    0.76790576485424
H        -5.73399619720496   -2.83445562214794   -1.17814148476625
H        -4.84515120508098   -1.31778014974651   -2.91229592715760
H        -2.60693415040188   -0.38057722146530   -2.68262213650013
H        -0.20901096174188   -1.54464730406051   -0.03248266976637
H        -0.55061160869784   -0.27525990125068   -2.80257766439566
H        -0.53821804727918   -2.06124315039094   -4.17804872028619
H         0.34329855549932   -4.21287070207179   -4.95681159640291
H         2.10159559264178   -5.35761515985728   -3.65187809857352
H         2.92577366626855   -4.37752661168694   -1.58790316788078
H         3.73650603883644   -3.17649300866433    0.06576145086466
H         2.88617319580732   -2.23040648712994    1.30634483927202
H         2.15484109171212   -3.73140282511214    0.68296464047086
H         3.54247454386750    0.48139073703816    0.11294561796532
H         5.57185415099498    1.68722500847542    1.61994468379604
H         7.29940141891565    3.43100176761166    1.62722441578131
H         7.65708452800262    4.85391117846994   -0.34748105164892
H         6.27469164625149    4.55825056312474   -2.36711741019967
H         1.35998633559093    0.58945333364819    0.46876910038548
H         0.88489468917287    4.08016585073202   -1.21484991592443
H        -1.87709217080019    0.20352548220999    2.36996166021058
H        -5.66011473089861    4.18841594468084    2.71223305067928
H        -6.06938976441634    3.60241605102682    5.07097595845331
H        -4.83928722963829    1.75355121544283    6.12770642823754
H        -3.17586995612586    0.46669127825585    4.86216932315308
74
 energy: -128.135757344441 gnorm: 0.014533135720 xtb: 6.3.3 (4ae9cef)
C        -2.69069982892646   -2.18571591946220    0.16925632431472
O        -1.89055931542973   -2.45039875097056    1.24339982942288
C        -2.40390137106300   -3.25061604782935    2.28082786424046
C        -3.96884613215167   -2.70918480511068    0.02591938523456
C        -4.73424652962832   -2.39736637230953   -1.08313506935377
C        -4.23515546595293   -1.54861315612069   -2.04980710161531
C        -2.95894432111143   -1.02883054287479   -1.91269086418950
C        -2.16299036847451   -1.34208057678017   -0.82510122451764
C        -0.74931815951010   -0.84958037507700   -0.66431616954952
C         0.06068430017693   -0.67047609353056   -1.97098384063004
C         0.66991468695579   -1.96586051101270   -2.43431898397185
C         0.21966455395685   -2.54972297526880   -3.60496645453281
C         0.71365037371176   -3.76317489869679   -4.04765173501682
C         1.68867481771530   -4.40596880208419   -3.31168430810483
C         2.15142381455620   -3.84536472101052   -2.13526962397297
C         1.64938006362909   -2.63185981418087   -1.68344253379465
O         2.06094790873760   -2.04036775035335   -0.51556323648754
C         2.75519627142591   -2.83564159408270    0.41653127933406
N         1.04889254880990    0.33057434955217   -1.57972190977466
C         2.10097167109072    0.61407241466491   -2.38663275519840
C         3.20347080118056    1.40745689783987   -1.78176961301797
C         3.81030325339129    1.24842512133367   -0.58004050479510
C         4.90342410677888    2.13600805571294   -0.37885931303145
C         5.71353641666975    2.30216159445714    0.74633850707462
C         6.68594924925762    3.27245658274856    0.74207924666103
C         6.88639816880323    4.08360380033792   -0.37786641930038
C         6.10851331839280    3.93412920301307   -1.50497707450555
C         5.11384646337686    2.96731047408588   -1.50095117099830
S         3.97062049461748    2.62366075428510   -2.77119686269468
O         2.16415073011761    0.20779560031500   -3.53049411420856
C         0.69278107152756    0.92279828818999   -0.30635099282414
C         0.69285915128856    2.44946198094479   -0.24368853924591
O         0.95366094648938    3.06328477341244   -1.38742451710484
O         0.48890103788475    3.03319933028927    0.78686165453050
N        -0.64438482330990    0.44797584425441    0.02450400412589
C        -1.70521857948516    1.38280879997846   -0.25609434234890
C        -2.56535271804167    1.60215677741982    0.89486342369452
C        -2.53818613758794    1.00695037247833    2.12228818397676
C        -3.45975087682589    1.58152038036015    3.03182904322797
C        -4.18695847110983    2.64466780832906    2.44324069758934
C        -5.12285880653702    3.37071788661986    3.16659044568046
C        -5.34095967734943    3.03584004178647    4.48355904215684
C        -4.63632961256428    1.98465740945148    5.08076223892111
C        -3.70821602188779    1.26316129403770    4.37275711586241
S        -3.73472803755687    2.89495955547641    0.78578287927524
O        -1.81872334607348    1.97833585659100   -1.30034081972663
H        -3.30618849858111   -2.81083332599642    2.71839803545695
H        -1.61842388293412   -3.28979641907779    3.03347577229741
H        -2.62731347678367   -4.26638738839366    1.93890797931221
H        -4.37905484475530   -3.37147470654576    0.77069998032237
H        -5.72178743908915   -2.82182412584284   -1.18132838916044
H        -4.83103368546607   -1.29739519775157   -2.91245457000261
H        -2.58950684417904   -0.36111216847236   -2.67341605384046
H        -0.21227512833834   -1.55881134718778   -0.02546507970242
H        -0.55645527699335   -0.26806181951388   -2.78135000887806
H        -0.53830907686693   -2.04334217191634   -4.18150038834654
H         0.34154562877567   -4.20057656818830   -4.96019609211809
H         2.09543795562415   -5.34864385398260   -3.64512821652852
H         2.91320249099885   -4.36500924307771   -1.57593310951066
H         3.74389516653979   -3.13627782937543    0.05525646371681
H         2.87435181469998   -2.21389380617336    1.30260373723507
H         2.17789967385515   -3.73198724771495    0.67491087041245
H         3.52422362129962    0.49748020282952    0.13315365272767
H         5.56220039789467    1.67657542464860    1.61301647111000
H         7.30241155280970    3.41897737792102    1.61609726648639
H         7.65570591899470    4.83979915079584   -0.35463769700375
H         6.25946225152985    4.55569869503460   -2.37298266554496
H         1.35703208743587    0.56896584642191    0.50183481141980
H         0.90434032143106    4.03101929803207   -1.26180124796902
H        -1.87115803433666    0.20008689197010    2.35963841532911
H        -5.65893319126687    4.18139912091315    2.70025113205036
H        -6.06075338363681    3.59113339326294    5.06493077146452
H        -4.82880462190924    1.74673695331463    6.11585362664381
H        -3.16319711671743    0.45822832285601    4.84143446180943
74
 energy: -128.137026538765 gnorm: 0.012817881840 xtb: 6.3.3 (4ae9cef)
C        -2.69291922265825   -2.17647871536037    0.17608338633653
O        -1.88759506554420   -2.43842445745408    1.24594519882496
C        -2.39114406093968   -3.24308856032153    2.28329442689057
C        -3.97186632755332   -2.69646851242299    0.02962491287848
C        -4.73248648697811   -2.37947561281154   -1.08287044453406
C        -4.23203308240846   -1.52721752568702   -2.04659944102879
C        -2.95525455668982   -1.00953989999490   -1.90595172668308
C        -2.16424874094334   -1.33504280293473   -0.81736398655121
C        -0.75174132399225   -0.85538181036201   -0.65322897441400
C         0.05598222634274   -0.67245292843223   -1.95707584109365
C         0.65702724990240   -1.96479137819851   -2.43053610133546
C         0.21200153876773   -2.54033245260801   -3.60835719964114
C         0.70981829148208   -3.75281379768045   -4.05170260976513
C         1.68031048584378   -4.39818592170092   -3.31054761827519
C         2.14051351827537   -3.84099523849114   -2.13006820791668
C         1.63515752635727   -2.62950432003395   -1.67748353956188
O         2.03875610247097   -2.03415056073412   -0.50978752547816
C         2.76039459399335   -2.81462057680073    0.41312620926608
N         1.05447893205922    0.30972654083903   -1.55585090885998
C         2.09948052838471    0.59106882689619   -2.36688157693308
C         3.18730661955687    1.40499940684501   -1.76763706544948
C         3.79676909265464    1.25240751439967   -0.56704302438644
C         4.88657892178462    2.14490348774421   -0.37273357677401
C         5.70648203904133    2.30133631828204    0.74679274444215
C         6.68640586008346    3.26659792520837    0.73617292890925
C         6.88064846892544    4.07776287478265   -0.38397516010778
C         6.09036162380069    3.93688296012761   -1.50596593456966
C         5.08990225603331    2.97532122529835   -1.49421126140872
S         3.94260167080321    2.62716997235300   -2.76018940388320
O         2.17575590991770    0.16700145264520   -3.50425502511692
C         0.69853198486788    0.90343733617598   -0.28505723939225
C         0.70051072614960    2.43124671731924   -0.23733975111658
O         0.96283295016842    3.01398053007215   -1.39462750618877
O         0.46705581878900    3.03197596644030    0.78020820703390
N        -0.64114796652577    0.43655979141881    0.03776158530156
C        -1.68729411566180    1.38454114898440   -0.25751376608563
C        -2.56397347232506    1.58908202539958    0.87895560067888
C        -2.53749617419077    0.99633120285904    2.10709817008192
C        -3.45927702134152    1.57211373218091    3.01484892660245
C        -4.18698318461613    2.63273228704360    2.42629865685419
C        -5.12196219506144    3.35920607181523    3.15250435745439
C        -5.33490397001925    3.02429366860470    4.47214536560330
C        -4.62837770961834    1.97465854517950    5.06875638594041
C        -3.70110565243452    1.25278429986903    4.35696212611375
S        -3.73712705987753    2.88070841999918    0.76743067623542
O        -1.76399922941619    2.00685448144139   -1.29238529348242
H        -3.29252377068874   -2.80756099982543    2.72742968539371
H        -1.60132232701912   -3.28180258946265    3.03144633529399
H        -2.61164260357275   -4.25878342893323    1.93838057899800
H        -4.38293884560059   -3.35841465461839    0.77401407213515
H        -5.71928076809661   -2.80416254528826   -1.18499868910412
H        -4.82481339485928   -1.27092237932756   -2.91004292421625
H        -2.57993363618826   -0.33848436285192   -2.66242998363838
H        -0.21814244458987   -1.57026630991234   -0.01759908619261
H        -0.55726683025818   -0.25164292736747   -2.76073603651217
H        -0.54044075120944   -2.02662057448876   -4.18739164050490
H         0.34376977775228   -4.18600444121055   -4.96886766664807
H         2.08870949186573   -5.34049731935838   -3.64316825915497
H         2.90092336170530   -4.35882920635798   -1.56772415829343
H         3.75692559488651   -3.08202478494222    0.04360281271743
H         2.86530347066946   -2.19571085321655    1.30335637153899
H         2.21149045973499   -3.73060954328457    0.66966075325778
H         3.51171060205435    0.50861913930760    0.15529218656379
H         5.55621905690121    1.66989838838082    1.61012655774043
H         7.31457799411549    3.40555835769087    1.60338246606466
H         7.65847522165446    4.82563522463420   -0.36642743033037
H         6.23991263026999    4.55665383436457   -2.37642170450684
H         1.35566465886310    0.54623572851171    0.52590826079973
H         0.89661555020111    3.98498239098359   -1.31238607098645
H        -1.86488484437659    0.19320535901203    2.34627599615489
H        -5.65959734747648    4.17030821852275    2.68686079385098
H        -6.05255827879469    3.57870488249369    5.05711727179057
H        -4.81735018985653    1.73837585459107    6.10506771651014
H        -3.15032815574711    0.44744088375828    4.81982263586247
74
 energy: -128.137741939465 gnorm: 0.009641908648 xtb: 6.3.3 (4ae9cef)
C        -2.70112866243340   -2.16851711276281    0.18441076188592
O        -1.89067188979216   -2.42802608190987    1.25068994089700
C        -2.38308090085410   -3.23879361159233    2.28883405354010
C        -3.98193780101237   -2.68438464121235    0.03588146608119
C        -4.73865876536118   -2.36054826489339   -1.07807993676951
C        -4.23636208038138   -1.50531053918754   -2.03860674649968
C        -2.95792862974070   -0.99206905198278   -1.89665129546267
C        -2.16989620182782   -1.32816997594184   -0.80800001736315
C        -0.75579883439142   -0.85655656240809   -0.64334182246240
C         0.05300368912137   -0.67365832747907   -1.94540915058346
C         0.64410855259983   -1.96736702909399   -2.42568892147501
C         0.20327336261488   -2.53496674932328   -3.60946199593766
C         0.70602035631765   -3.74505082202604   -4.05506098383169
C         1.67216981398175   -4.39362923208505   -3.31071451724601
C         2.12912469702751   -3.84236481749063   -2.12534917330541
C         1.62111752628087   -2.63258013057954   -1.67110737177265
O         2.01879409212467   -2.03270332591032   -0.50446473802191
C         2.77089568216600   -2.79493269884224    0.41009077099273
N         1.06187324440069    0.29303101858217   -1.53834948771605
C         2.10585607530707    0.56903791146121   -2.35069981269830
C         3.18288631476146    1.39583310419070   -1.75792441988226
C         3.79211221945260    1.25109285900906   -0.55534655425627
C         4.87481327208279    2.15314963829998   -0.36351733219508
C         5.70350668096888    2.30431115282306    0.75054333335151
C         6.69043997267783    3.26387785024950    0.73132730492344
C         6.87665437725376    4.07493959428951   -0.38915728027254
C         6.07410974335925    3.94126201908550   -1.50439108065407
C         5.07125820969783    2.98183112254263   -1.48520850576790
S         3.92690006428881    2.62319794285183   -2.74902890888875
O         2.18940545452473    0.13163504499844   -3.48244081916402
C         0.70484305324315    0.89378445557091   -0.27188494537682
C         0.70658103718907    2.42426654473212   -0.23787607079340
O         0.97088168267032    2.98524362647507   -1.40378337997230
O         0.46831028574635    3.03846716702312    0.76901217715158
N        -0.63721188151105    0.43225601149458    0.04856234424539
C        -1.67012708227361    1.38705405086009   -0.25889961118258
C        -2.56801391227930    1.57621410082272    0.86001978509465
C        -2.53844983363215    0.98526293926281    2.09004306143760
C        -3.46202604963487    1.55923399012751    2.99737584740329
C        -4.19225834187616    2.61576439285039    2.40866255570772
C        -5.12526598712938    3.34288272674401    3.13808249005594
C        -5.33088246636489    3.00989310396616    4.46016968356160
C        -4.62184154787859    1.96289230949357    5.05656018918872
C        -3.69655562324815    1.24012874343788    4.34120723507487
S        -3.74738425837551    2.86094442920343    0.74880662863016
O        -1.71246808249622    2.02628552196330   -1.28593573939440
H        -3.28222032802070   -2.80791121189535    2.74175291159969
H        -1.58838644402905   -3.27783806235517    3.03257777602193
H        -2.59990919105900   -4.25419400535274    1.94093653500780
H        -4.39667564518999   -3.34610331633087    0.77901485723402
H        -5.72632919827618   -2.78268942040933   -1.18438039488859
H        -4.82795620471656   -1.24219556742588   -2.90133034213179
H        -2.57973441173917   -0.31698354164898   -2.64854072869997
H        -0.22467776087513   -1.57553336383922   -0.01021074385784
H        -0.55384465858078   -0.23522615842131   -2.74501883362974
H        -0.54377872994406   -2.01536771461378   -4.19093227944261
H         0.34836620055202   -4.17241280133873   -4.97890016835946
H         2.08257432770910   -5.33437160523940   -3.64608416665293
H         2.88956303543977   -4.36066043586201   -1.56334897364849
H         3.77366890173322   -3.02630628437070    0.03071393055606
H         2.86235990146901   -2.17857650464809    1.30425020288527
H         2.25296651259330   -3.72887112403496    0.66689909884917
H         3.51016446254939    0.51154834487589    0.17301023866498
H         5.55678982265542    1.66947372568463    1.61212746392089
H         7.33127793590852    3.39446582333389    1.59109531305353
H         7.66167091058990    4.81615163537331   -0.38005455454219
H         6.21877704538802    4.56163911268472   -2.37551432224874
H         1.35825955987203    0.53331895069795    0.53886763038802
H         0.89344067279759    3.95466876347932   -1.35142206642187
H        -1.86088038564702    0.18582261118953    2.33044165590558
H        -5.66495607708950    4.15380909301897    2.67392120065430