96
 energy: -143.096180010873 gnorm: 0.139648285753 xtb: 6.3.3 (4ae9cef)
C        -3.44773300000000   -1.24930400000000   -3.38401500000000
C        -2.48254600000000   -0.61816500000000   -4.16258300000000
C        -1.31333700000000   -0.17248900000000   -3.56994600000000
C        -1.11253900000000   -0.36835300000000   -2.19850700000000
C        -2.06591200000000   -1.01360300000000   -1.37389900000000
C        -3.25804800000000   -1.45625300000000   -2.00835000000000
C        -4.25627500000000   -2.11172500000000   -1.27690000000000
C        -4.09961400000000   -2.34686500000000    0.08211600000000
C        -2.94425600000000   -1.92190300000000    0.72320100000000
C        -1.91457600000000   -1.25020200000000    0.02749000000000
C        -0.69514600000000   -0.86325500000000    0.86520200000000
C         0.55072500000000   -1.75322300000000    0.53294300000000
C         0.92627200000000   -2.74078600000000    1.64467600000000
C         0.98064000000000   -2.28535600000000    2.98119700000000
C         1.27337300000000   -3.14490000000000    4.03301300000000
C         1.51722800000000   -4.48690400000000    3.78132900000000
C         1.48812100000000   -4.98477000000000    2.47499300000000
C         1.20120200000000   -4.12293100000000    1.38014700000000
C         1.20889200000000   -4.71901300000000    0.09407000000000
C         1.48088900000000   -6.07621700000000   -0.10047500000000
C         1.75004600000000   -6.89211300000000    0.98550300000000
C         1.75165100000000   -6.34790800000000    2.26483600000000
N         1.63980400000000   -0.79157800000000    0.23204900000000
C         2.53163400000000   -1.09137100000000   -0.79391700000000
C         3.34169300000000   -0.01328500000000   -1.40085400000000
C         3.14916100000000    0.24750000000000   -2.75838200000000
C         3.87760800000000    1.26096400000000   -3.37437900000000
C         4.79803200000000    2.01210400000000   -2.63514800000000
C         5.02555800000000    1.75574000000000   -1.27038100000000
C         6.04496300000000    2.55836900000000   -0.43980700000000
C         7.20007700000000    1.62782800000000   -0.01226500000000
C         6.67317300000000    3.74828900000000   -1.20089500000000
C         5.35435500000000    3.13303100000000    0.81534400000000
C         4.28913900000000    0.71151600000000   -0.66892000000000
O         2.62932300000000   -2.21030400000000   -1.28720600000000
C         1.22671800000000    0.57385900000000    0.58348400000000
C         1.90826300000000    0.98300000000000    1.93814700000000
O         2.88239500000000    0.11253300000000    2.33695300000000
O         1.61700500000000    1.94529600000000    2.63314100000000
N        -0.21392100000000    0.51709800000000    0.72092000000000
C        -0.93076400000000    1.69484000000000    0.72577400000000
C        -2.33769400000000    1.68151500000000    1.17240400000000
C        -3.32140300000000    2.17330600000000    0.30176300000000
C        -4.67690400000000    2.21012500000000    0.67865900000000
C        -5.73164900000000    2.76130400000000   -0.29796100000000
C        -5.73064500000000    1.93201800000000   -1.60152800000000
C        -7.16656600000000    2.72969200000000    0.26932200000000
C        -5.40555000000000    4.23590500000000   -0.63331600000000
C        -4.99732300000000    1.74118900000000    1.96646600000000
C        -4.01100700000000    1.27640700000000    2.84672800000000
C        -2.67609200000000    1.25516500000000    2.45646900000000
O        -0.44512700000000    2.75844800000000    0.34953500000000
H        -4.36032700000000   -1.58983400000000   -3.87294500000000
H        -2.64890500000000   -0.47910300000000   -5.22697600000000
H        -0.55226800000000    0.32708000000000   -4.16539400000000
H        -0.18230600000000    0.00466100000000   -1.78704100000000
H        -5.16479200000000   -2.45531800000000   -1.76589100000000
H        -4.87717900000000   -2.85917600000000    0.64231300000000
H        -2.85352500000000   -2.11941300000000    1.79082200000000
H        -0.97077500000000   -0.94957300000000    1.92120000000000
H         0.33347900000000   -2.29825500000000   -0.38781800000000
H         0.78933100000000   -1.24406800000000    3.23781200000000
H         1.30830800000000   -2.77100300000000    5.05249400000000
H         1.73607800000000   -5.14395200000000    4.62064900000000
H         1.02275100000000   -4.13736100000000   -0.80357800000000
H         1.49461800000000   -6.48765800000000   -1.10663500000000
H         1.96242200000000   -7.94644500000000    0.83818300000000
H         1.97099900000000   -7.00269600000000    3.10471700000000
H         2.43906100000000   -0.34086900000000   -3.33728100000000
H         3.73015700000000    1.47291100000000   -4.43202100000000
H         5.34015600000000    2.79323800000000   -3.16513400000000
H         6.85329500000000    0.80518900000000    0.62185700000000
H         7.96334700000000    2.17318400000000    0.55315000000000
H         7.69063800000000    1.18190500000000   -0.88462400000000
H         7.36652100000000    4.30810900000000   -0.56024700000000
H         5.90806400000000    4.45211600000000   -1.54857300000000
H         7.25047800000000    3.41616400000000   -2.07271900000000
H         4.48984300000000    3.74968200000000    0.54017100000000
H         6.04167700000000    3.76593500000000    1.38718300000000
H         5.00266900000000    2.34990800000000    1.50099000000000
H         4.47734400000000    0.45879200000000    0.37183300000000
H         1.52039300000000    1.30507800000000   -0.17810700000000
H         2.90562400000000   -0.67961200000000    1.75329000000000
H        -3.01193700000000    2.53324400000000   -0.67954200000000
H        -5.94972200000000    0.87530200000000   -1.39806300000000
H        -4.77045200000000    1.97871500000000   -2.12658300000000
H        -6.49505400000000    2.29779000000000   -2.29777500000000
H        -7.89001200000000    3.12684100000000   -0.45652500000000
H        -7.25680000000000    3.33800900000000    1.17966800000000
H        -7.49028900000000    1.70781200000000    0.50835700000000
H        -5.38281100000000    4.84851500000000    0.27396600000000
H        -4.43455400000000    4.34467800000000   -1.12812700000000
H        -6.15881500000000    4.66533100000000   -1.30390500000000
H        -6.02077900000000    1.74153400000000    2.33050800000000
H        -4.29319300000000    0.94786000000000    3.84614800000000
H        -1.91606900000000    0.93049000000000    3.16194900000000
96
 energy: -143.115394789367 gnorm: 0.052425438976 xtb: 6.3.3 (4ae9cef)
C        -3.44197156025507   -1.24595377789097   -3.38562850205619
C        -2.48337261900387   -0.62070574141682   -4.14631910442264
C        -1.30984976886678   -0.17772549791701   -3.53965818663974
C        -1.10595921418516   -0.36561313501481   -2.18627227644767
C        -2.06189372252158   -1.00557818924529   -1.36603438408113
C        -3.25834685411974   -1.45346676622584   -2.00614608294199
C        -4.25499225431127   -2.11133634889866   -1.26763017590817
C        -4.08804148035906   -2.33747286148272    0.07575910465307
C        -2.92760139618802   -1.90180170312559    0.71355409491814
C        -1.91447820438374   -1.23626448889174    0.03434424626497
C        -0.69469534454229   -0.85979374491683    0.86715112406865
C         0.54642741219882   -1.75196215484737    0.53598745537773
C         0.91844956454197   -2.73902231235204    1.64188951564405
C         0.97836820079034   -2.29025208001261    2.95646625018430
C         1.27480914425547   -3.14500396408964    4.01873806654086
C         1.51689822868419   -4.47519142571269    3.78349964702387
C         1.48753051689287   -4.98193253649364    2.47510092065893
C         1.19374124420670   -4.11775422787149    1.37510345797540
C         1.20308003511505   -4.70934662745760    0.09129471883623
C         1.47743182650560   -6.04939439445796   -0.09453592564460
C         1.74820120314193   -6.87853445725906    0.99190936102060
C         1.75191112596430   -6.34741376232836    2.25850087517177
N         1.62807499970816   -0.79171972229348    0.21961503081289
C         2.50607240147595   -1.08519804640309   -0.80901497913817
C         3.33097845633902    0.01356775595886   -1.38820796129999
C         3.15371979474183    0.26136381371547   -2.74650193235238
C         3.88684540687153    1.26346612574260   -3.35504111864498
C         4.80219793674448    2.00980699058387   -2.62241978382229
C         5.03123790338294    1.75785323239676   -1.26919887506280
C         6.04465116752104    2.55469939856403   -0.43835279528269
C         7.19177252445861    1.62146804768798   -0.01436928783430
C         6.66012993645748    3.73495425864282   -1.20957415266651
C         5.35088910208108    3.12642939625364    0.81070865768485
C         4.28336570101698    0.73587232892413   -0.66926715127328
O         2.60358391449449   -2.21113343762145   -1.26181186717563
C         1.23038050276565    0.56017808280812    0.58696788311885
C         1.89697219774059    0.96182984034404    1.94111681389547
O         2.88130084395569    0.12604392811763    2.33122001967125
O         1.60595753472196    1.91890004479818    2.59499404215500
N        -0.21188611750745    0.51571652360676    0.71002974168752
C        -0.93014239004962    1.68575809368448    0.70114652507715
C        -2.34922220792591    1.65176642453822    1.14901858313916
C        -3.33299655435581    2.15802314625656    0.29976622510628
C        -4.67803211300664    2.20888296555404    0.67694929645280
C        -5.72851278632647    2.76060779126172   -0.29566266052417
C        -5.72343008782557    1.93065784417733   -1.59238574869952
C        -7.15413881921492    2.72364015130191    0.27743347775523
C        -5.39842644686761    4.22799236463368   -0.62792442199306
C        -4.99475051023452    1.74639791585710    1.95526895181299
C        -4.01366985064742    1.28730955094639    2.82728569293496
C        -2.68732386972469    1.24012771367184    2.43391071259874
O        -0.42596891603522    2.73378975845364    0.33853297862498
H        -4.35258284828789   -1.58747650405406   -3.86246410394925
H        -2.64368912689013   -0.47763691749699   -5.20760552653489
H        -0.55279468573454    0.31971373182791   -4.13270373030995
H        -0.18061517432937    0.00198310192828   -1.76893009766867
H        -5.15733050499288   -2.44965682203429   -1.76071190016533
H        -4.85743718599740   -2.84938059630276    0.63919692031790
H        -2.82729970106081   -2.09957708749869    1.77402839369790
H        -0.97482187862936   -0.98854368136271    1.91946599789721
H         0.34010367855856   -2.30744960969708   -0.38285743418815
H         0.78901818365164   -1.25163644652910    3.20090898960147
H         1.30654770461169   -2.76311596457477    5.03074814383916
H         1.73404570425408   -5.13501507325920    4.61403341095375
H         1.02458403136927   -4.12146234649526   -0.79622749144720
H         1.48641681847013   -6.45963453949119   -1.09602413173632
H         1.95887675184388   -7.92966604246937    0.84119540039197
H         1.96858951055993   -6.99111762075723    3.10126995403449
H         2.44601876537119   -0.32692536551405   -3.31842129376678
H         3.74098251952732    1.47199305332858   -4.40777992140690
H         5.34038183263688    2.78922511384116   -3.14307575066413
H         6.83903991927461    0.80673293662407    0.61701596016556
H         7.94352333094525    2.17708877531770    0.54723478607965
H         7.67802832931199    1.18552429485823   -0.88801115665511
H         7.34397549080474    4.28169253973638   -0.55771779088823
H         5.89740277200226    4.43729110140549   -1.54638823518002
H         7.23783944256154    3.40028961026543   -2.07215976476509
H         4.49277971938983    3.73900898097714    0.53205263227923
H         6.04325574587539    3.75473451421329    1.37186580911372
H         5.00156180814090    2.34514745691192    1.48586768626996
H         4.46855536297063    0.48157974627142    0.36515837808309
H         1.52882018553729    1.30328024453613   -0.16555430695682
H         2.90367922497168   -0.66838256420670    1.75810365370033
H        -3.02206703649102    2.51967897120631   -0.67152162352802
H        -5.94015415694837    0.88169619161253   -1.38345301484563
H        -4.76438370939356    1.97961375315717   -2.10663250918234
H        -6.48652986239907    2.30203376712701   -2.27881534042237
H        -7.85891158936018    3.12337336447171   -0.45499542046550
H        -7.24067485301344    3.33324283529189    1.17781009440793
H        -7.47105192694293    1.70574849132271    0.50956680272590
H        -5.37964341901695    4.83316663790235    0.27840798859146
H        -4.43121661168213    4.32705702075858   -1.11856831066508
H        -6.15456473276505    4.64440254938193   -1.29549440430459
H        -6.01480159648472    1.74688733065007    2.31193282176836
H        -4.29332546084052    0.96068863188295    3.82205947974114
H        -1.92540450969662    0.92627235068007    3.13687985908136
96
 energy: -143.120767229853 gnorm: 0.014787577869 xtb: 6.3.3 (4ae9cef)
C        -3.43132149523841   -1.23722758419336   -3.37945387140384
C        -2.47379672801688   -0.61607994076742   -4.12719037062841
C        -1.29719040886434   -0.17581564380128   -3.50820660235881
C        -1.09575574412150   -0.35998263233449   -2.16665141793937
C        -2.05837820459035   -0.99703365613927   -1.35368664833410
C        -3.25500223213566   -1.44493379819889   -1.99632646714480
C        -4.25182566868164   -2.10504806122284   -1.25319134845700
C        -4.08088304505864   -2.32588779354803    0.08115998127302
C        -2.91545642491100   -1.88522210434347    0.71683506626391
C        -1.91378901644298   -1.22783346306846    0.04519025849328
C        -0.69155394716756   -0.85980700963277    0.86862425573577
C         0.54101720012085   -1.75386485001762    0.52734223699856
C         0.91378110858918   -2.73077547608365    1.63549212965670
C         0.97644238512676   -2.28144373300628    2.93377604248244
C         1.27376649912301   -3.13180962443816    4.00615765561576
C         1.51366237535717   -4.45527859130089    3.78203701703775
C         1.48299186372591   -4.97017178044932    2.47219328704326
C         1.18766063535601   -4.10794582448120    1.36968773137913
C         1.19654816408528   -4.69446182046909    0.08525336542292
C         1.46885023958715   -6.02328857534645   -0.09624169020382
C         1.74262848326787   -6.86131592017250    0.99137102436192
C         1.74889771588671   -6.33760116212996    2.25085950716819
N         1.61861901751032   -0.79663833346593    0.20563309222926
C         2.49650525068586   -1.08975353900776   -0.81488800454913
C         3.31892956713428    0.02952744428909   -1.37567193586056
C         3.14643539040961    0.27660626224351   -2.73470822744089
C         3.88612881410679    1.27060172800649   -3.34078306584401
C         4.80027326937281    2.01202850448273   -2.61170232997020
C         5.02066378651246    1.76186477805279   -1.26312970484627
C         6.03568595879518    2.54787498652453   -0.43823006418605
C         7.17880483306642    1.61366183715611   -0.01660494005367
C         6.64780214399840    3.72096511673455   -1.21271259673283
C         5.34478311496850    3.11949954713128    0.80812013461133
C         4.27085816409947    0.75032234357356   -0.66299469799621
O         2.57502789750857   -2.21465281925660   -1.25762826974971
C         1.23409396989155    0.54217015757441    0.58980366625595
C         1.89748223915210    0.95227152683486    1.93763578450100
O         2.87075865177901    0.12359285240027    2.33306851813283
O         1.57152154334962    1.89679258137228    2.58043035845965
N        -0.21027014553749    0.50817817652951    0.70172609721681
C        -0.92743739290594    1.67393882945246    0.67479508326151
C        -2.35449310723847    1.62229360721366    1.11916225298726
C        -3.33933683400434    2.13358227289052    0.28269075939042
C        -4.67597399985077    2.19631110266476    0.66774438943066
C        -5.72155980358811    2.75525499913086   -0.29381821463114
C        -5.71361948837842    1.92495976840332   -1.58526367028901
C        -7.14093345033182    2.71770486973112    0.28327424731638
C        -5.38730765942176    4.21794202722394   -0.62103022964868
C        -4.99220457578152    1.74272731435167    1.94245794866574
C        -4.01175914000420    1.28227869030753    2.80515718648833
C        -2.69021250405467    1.22128138794101    2.40693226664690
O        -0.41072596250206    2.70872333030193    0.30990476110355
H        -4.34294793285340   -1.58362319183737   -3.84435999695536
H        -2.62341708871123   -0.46779875176831   -5.18697200447121
H        -0.54100505576368    0.31726717383462   -4.10093820430356
H        -0.17490915748105   -0.00038848751923   -1.73677992364381
H        -5.14693127267577   -2.44037797859376   -1.75641684152955
H        -4.84077973247895   -2.84018952758198    0.64990829262484
H        -2.80916181702226   -2.07911509628578    1.77417157372181
H        -0.96922271717522   -1.01725490478850    1.91923563649583
H         0.33903551809320   -2.31892062876703   -0.38771419808059
H         0.78618752275785   -1.24347367032950    3.16656748528506
H         1.30514760344988   -2.73738210357543    5.01064372936422
H         1.73286861369902   -5.12117159678960    4.60382860753833
H         1.02167977141042   -4.09607031317093   -0.79236893313995
H         1.47845448006883   -6.43352202624252   -1.09484886134032
H         1.95343099856278   -7.90934206329049    0.83421189122631
H         1.96532151602993   -6.96874663462958    3.10089885707453
H         2.44130006942871   -0.31306633577981   -3.30153069109802
H         3.75073130971170    1.47180559508070   -4.39313353788347
H         5.34720009225076    2.78524590140218   -3.12490949484643
H         6.81904090045479    0.80282696256227    0.61013591994745
H         7.92469162169932    2.17229717028530    0.54513211018422
H         7.66127065529264    1.18382741881166   -0.89188721939707
H         7.32855215845957    4.26320959844848   -0.55892350569277
H         5.88230471050353    4.41728205192629   -1.54505928551637
H         7.21998202713831    3.37936651103145   -2.07166226442308
H         4.49114522382676    3.73024892173830    0.52443197044601
H         6.04205521268777    3.74381062167382    1.36260972714513
H         4.99622024950762    2.33740109420859    1.47518168717525
H         4.44535086454500    0.50526923520306    0.37294690731213
H         1.53555386128641    1.29939711393299   -0.15068146852099
H         2.90790111496425   -0.66320792724232    1.75581218754751
H        -3.03025365105897    2.49513163769012   -0.68529773940376
H        -5.92826973356809    0.88091273521068   -1.36839309364090
H        -4.75229632936171    1.97594845281944   -2.08813748233055
H        -6.47438821300670    2.29933712016683   -2.26768020280916
H        -7.83702373630719    3.11891616521534   -0.45117995912377
H        -7.21978713687219    3.32629329226564    1.18017953435599
H        -7.44909999560006    1.70075793001890    0.51225639234644
H        -5.37079809888132    4.81641009939444    0.28675870463037
H        -4.42015541607441    4.30736115594197   -1.10594904436304
H        -6.14251268155801    4.62923473576214   -1.28838571848733
H        -6.00972917529317    1.75858633592026    2.29816455151051
H        -4.28625045990918    0.97257622777978    3.80351118737236
H        -1.92631799791473    0.90384967422394    3.10221698033501
96
 energy: -143.122476975809 gnorm: 0.012435304888 xtb: 6.3.3 (4ae9cef)
C        -3.41950586033967   -1.22507156333591   -3.36732387508231
C        -2.45709960786215   -0.60558189350967   -4.10863528552410
C        -1.27977147832807   -0.16892162126979   -3.48322575924493
C        -1.08462977309441   -0.35462912214632   -2.14335730747990
C        -2.05589775189361   -0.98989356796386   -1.33852583512257
C        -3.24992416748912   -1.43429736853605   -1.98250255004886
C        -4.24912053295820   -2.09510577684994   -1.23993058443106
C        -4.08158363119621   -2.31633294792578    0.09372143162120
C        -2.91557398769971   -1.87611470378354    0.73123315061012
C        -1.91502409280203   -1.22282122438659    0.05898274116860
C        -0.68908742736239   -0.86030151193210    0.87252759767238
C         0.53592833823794   -1.75380384039384    0.51802390503128
C         0.91081898523173   -2.72202412186352    1.62808754744937
C         0.97665322353669   -2.26550934407675    2.92132026208193
C         1.27538115079556   -3.11219991332112    3.99787052337722
C         1.51208783472406   -4.43566142044961    3.77731361571844
C         1.47870689095625   -4.95570396819422    2.46756791260263
C         1.18295154418501   -4.09827444073716    1.36471976793226
C         1.18994648348673   -4.68064531495118    0.07822845348509
C         1.46161980943368   -6.00709533035953   -0.10331810222930
C         1.73654555346488   -6.84632397928372    0.98580710314810
C         1.74452946185912   -6.32385083686438    2.24498924548749
N         1.61144316173831   -0.79940694132209    0.19427461481362
C         2.48795217881745   -1.09409967313846   -0.82454753119212
C         3.30879218067203    0.03236791345575   -1.37345148217408
C         3.13774515607546    0.28344235652834   -2.73230211446162
C         3.87982041078702    1.27617611062182   -3.33667481647128
C         4.79651962923823    2.01221707128326   -2.60660474647722
C         5.00737452098122    1.76227093621056   -1.25686519025789
C         6.02354380169760    2.54187561677968   -0.43460349802650
C         7.16232006176097    1.60164022194752   -0.01629755160430
C         6.63584787908364    3.71045462591395   -1.21345476451778
C         5.33566376328665    3.11522577176868    0.81171874780424
C         4.25284608551435    0.75599899917382   -0.65593195026990
O         2.56269867716889   -2.22006411027138   -1.26426907698292
C         1.23465044570735    0.53267510490223    0.58988282851402
C         1.87667691685832    0.92948653491390    1.95147473910767
O         2.88171139232142    0.13137411922006    2.32667868999498
O         1.54276738131179    1.88343957940128    2.58082963935054
N        -0.20906684400175    0.50169854438314    0.69681743919943
C        -0.92568175768689    1.66515021528020    0.64969851695245
C        -2.35264233162360    1.60334223037785    1.09267155141948
C        -3.33967303336535    2.11260351500782    0.26058127438940
C        -4.67139038955483    2.18253194082668    0.65724169609640
C        -5.71472571446331    2.74623741847237   -0.29612798348879
C        -5.70597602317405    1.91560606650198   -1.58601739746861
C        -7.13094910403888    2.71005831703864    0.28587286783125
C        -5.37308492917807    4.20757528556999   -0.61675569005211
C        -4.98461874913473    1.73789191006961    1.93513201354154
C        -4.00103659102737    1.27107307511338    2.78981693525724
C        -2.68313807369176    1.20102730585065    2.38159434762545
O        -0.40669986298364    2.69434672815178    0.27403841334822
H        -4.33212454934449   -1.57317095845621   -3.82904310972599
H        -2.59668052634440   -0.45323489304814   -5.16865546124347
H        -0.52119413791291    0.32137645035966   -4.07476112049389
H        -0.16674170417343   -0.00143344497145   -1.70218757076610
H        -5.14035442018217   -2.42810551823814   -1.75143297060838
H        -4.83800788956147   -2.83096905652691    0.66550613126050
H        -2.80786146184188   -2.06770184954182    1.78859861905096
H        -0.95802111003927   -1.02671970551943    1.92376302382395
H         0.32870529307317   -2.32026475426069   -0.39444127401431
H         0.78716405541719   -1.22613358139524    3.14696520978830
H         1.30734571471754   -2.70781021124342    4.99788325014984
H         1.73205590855529   -5.10496605826026    4.59590137403777
H         1.01706958725889   -4.07497428097206   -0.79461530575744
H         1.47070056053139   -6.41842984323201   -1.10118129250074
H         1.94697974538738   -7.89303454925983    0.82396342666943
H         1.96223898280643   -6.94838086458422    3.09973603849886
H         2.42932481796287   -0.30302876823259   -3.29666811331819
H         3.74949757211536    1.47695106420297   -4.38918984839905
H         5.35234729112855    2.78164755578267   -3.11521056837671
H         6.79783268362404    0.78964168272589    0.60580869433510
H         7.90782826822972    2.15721450029323    0.54797682153445
H         7.64312850269299    1.17500373921231   -0.89379465398381
H         7.31787510225590    4.25276091175494   -0.56235485363264
H         5.86858665213058    4.40435498837087   -1.54641591944483
H         7.20470722670287    3.36255526795514   -2.07184339071626
H         4.48376136482404    3.72704193872238    0.52571426885882
H         6.03543579640253    3.73706945343787    1.36480256952417
H         4.98579919304024    2.33269060240415    1.47696995746040
H         4.42062831038785    0.51756398856508    0.38286418627872
H         1.53911547288203    1.29939161549929   -0.14146099119591
H         2.92450507107702   -0.65932169444333    1.75592414172351
H        -3.03611309869065    2.46833168925506   -0.71135314112635
H        -5.91933715604602    0.87272776264718   -1.36350173559097
H        -4.74191517879346    1.96598537426345   -2.08291887000940
H        -6.46448882177627    2.28874508639281   -2.27041604974339
H        -7.82731070481452    3.11262893430207   -0.44640636121894
H        -7.20313242183668    3.31852254547771    1.18329812861685
H        -7.43582480105347    1.69262242552264    0.51560437990945
H        -5.35776099518595    4.80093092786209    0.29434110729146
H        -4.40277358480325    4.29235615927796   -1.09559253315521
H        -6.12407040794446    4.62289873511603   -1.28541153612376
H        -6.00037185630567    1.76636424033183    2.29439379245695
H        -4.27008026014716    0.96923402954055    3.79164880383309
H        -1.91610729038875    0.87701738501166    3.06919426601917
96
 energy: -143.123804354011 gnorm: 0.010686895407 xtb: 6.3.3 (4ae9cef)
C        -3.40384559856698   -1.20676375110739   -3.34941825370973
C        -2.43338180160836   -0.58966861973043   -4.08359375230006
C        -1.25605679591597   -0.15874923959011   -3.45214021856831
C        -1.06983593335391   -0.34837486631115   -2.11174417488875
C        -2.05243796130704   -0.98075961491570   -1.31687446110836
C        -3.24296960046958   -1.41890853496440   -1.96323518744145
C        -4.24647370157311   -2.07859049192682   -1.22343643271159
C        -4.08585829088981   -2.30166368817143    0.11147893048892
C        -2.92057946023770   -1.86494551049962    0.75331934486636
C        -1.91729292178821   -1.21562409414346    0.07946219768183
C        -0.68630280115447   -0.85746927325262    0.88116623277768
C         0.53082723368851   -1.74977221385488    0.51022093471080
C         0.91032859298258   -2.71097066457240    1.61935493836308
C         0.98173863507898   -2.24484050429198    2.90988146163885
C         1.28142415791158   -3.08747956496444    3.98912421186914
C         1.51257067811445   -4.41266561074506    3.77074854163207
C         1.47518578560038   -4.93782024804564    2.46194841536847
C         1.17928980618321   -4.08637238285333    1.35905086660267
C         1.18220647374051   -4.66485904980800    0.07004190900044
C         1.45237906519034   -5.99125645555309   -0.11203619565257
C         1.72823284608652   -6.82896792157603    0.97904060960735
C         1.73921487813581   -6.30662344519427    2.23907685882682
N         1.60548610661185   -0.80002011337182    0.18200598230197
C         2.47736750186055   -1.09761778896706   -0.83872262391458
C         3.29537322351601    0.03179830495682   -1.37830019721523
C         3.12408505269691    0.28934514594003   -2.73611516744545
C         3.86806527547227    1.28201418373667   -3.33808967212650
C         4.78793226652426    2.01123969344093   -2.60465205822395
C         4.98861149483563    1.76150309937096   -1.25239127942089
C         6.00556346631305    2.53458963998672   -0.42944536810457
C         7.13836485805235    1.58509960488411   -0.01458525132325
C         6.62213460690331    3.69933954273277   -1.21029303295330
C         5.32214257161615    3.11034958941276    0.81840539241938
C         4.22982222895408    0.75802319744068   -0.65238570135719
O         2.54776736337847   -2.22377354026958   -1.28024277185851
C         1.23708220265141    0.52662735641641    0.59166606243339
C         1.87807227807015    0.91950677008461    1.95408358346213
O         2.88109606589891    0.12457638341363    2.33357441267626
O         1.49914069816265    1.84852191870876    2.60117080698263
N        -0.20562442525393    0.49796010792301    0.69687976068003
C        -0.92337459196996    1.65753621984767    0.61753534606556
C        -2.34640753737888    1.58641984151980    1.06156841723450
C        -3.33764786766828    2.08862876531378    0.23265186187203
C        -4.66423566629060    2.16332897131349    0.64392604620214
C        -5.70646064494409    2.73160465273738   -0.30189085318792
C        -5.69951540864919    1.90164505836856   -1.59217347160270
C        -7.12030286088041    2.69886716214560    0.28514433419235
C        -5.35500235257787    4.19256474350890   -0.61411015502878
C        -4.97009511855115    1.72874977299423    1.92767546539628
C        -3.98124050700074    1.25390184539043    2.77272547831751
C        -2.66802190370575    1.17884594655819    2.35138988517312
O        -0.40752819069319    2.68060362676753    0.21949808453823
H        -4.31707160171028   -1.55312751375351   -3.81214231789548
H        -2.56104342457456   -0.43246222260211   -5.14429416737238
H        -0.49300816637454    0.32867078090058   -4.04086072201645
H        -0.15492386814580   -0.00282919242303   -1.65911777233737
H        -5.13444261018785   -2.40864615248099   -1.74324338838230
H        -4.84157765392531   -2.81524385899978    0.68490027487758