      -----------------------------------------------------------      
     |                   =====================                   |     
     |                           x T B                           |     
     |                   =====================                   |     
     |                         S. Grimme                         |     
     |          Mulliken Center for Theoretical Chemistry        |     
     |                    University of Bonn                     |     
      -----------------------------------------------------------      

   * xtb version 6.3.3 (4ae9cef) compiled by 'conda@95abc7406d43' on 2020-10-14

   xtb is free software: you can redistribute it and/or modify it under
   the terms of the GNU Lesser General Public License as published by
   the Free Software Foundation, either version 3 of the License, or
   (at your option) any later version.
   
   xtb is distributed in the hope that it will be useful,
   but WITHOUT ANY WARRANTY; without even the implied warranty of
   MERCHANTABILITY or FITNESS FOR A PARTICULAR PURPOSE.  See the
   GNU Lesser General Public License for more details.
   
   Cite this work as:
   * C. Bannwarth, E. Caldeweyher, S. Ehlert, A. Hansen, P. Pracht,
     J. Seibert, S. Spicher, S. Grimme, WIREs Comput. Mol. Sci., 2020,
     e01493. DOI: 10.1002/wcms.1493
   
   for GFN2-xTB:
   * S. Grimme, C. Bannwarth, P. Shushkov, J. Chem. Theory Comput., 2017,
     13, 1989-2009. DOI: 10.1021/acs.jctc.7b00118
   for GFN1-xTB:
   * C. Bannwarth, S. Ehlert and S. Grimme., J. Chem. Theory Comput., 2019,
     15, 1652-1671. DOI: 10.1021/acs.jctc.8b01176
   for GFN0-xTB:
   * P. Pracht, E. Caldeweyher, S. Ehlert, S. Grimme, ChemRxiv, 2019, preprint.
     DOI: 10.26434/chemrxiv.8326202.v1
   for GFN-FF:
   * S. Spicher and S. Grimme, Angew. Chem. Int. Ed., 2020, 59, 15665-15673.
     DOI: 10.1002/anie.202004239
   
   for DFT-D4:
   * E. Caldeweyher, C. Bannwarth and S. Grimme, J. Chem. Phys., 2017,
     147, 034112. DOI: 10.1063/1.4993215
   * E. Caldeweyher, S. Ehlert, A. Hansen, H. Neugebauer, S. Spicher,
     C. Bannwarth and S. Grimme, J. Chem. Phys., 2019, 150, 154122.
     DOI: 10.1063/1.5090222
   * E. Caldeweyher, J.-M. Mewes, S. Ehlert and S. Grimme, Phys. Chem. Chem. Phys.
     2020, 22, 8499-8512. DOI: 10.1039/D0CP00502A
   
   for sTDA-xTB:
   * S. Grimme and C. Bannwarth, J. Chem. Phys., 2016, 145, 054103.
     DOI: 10.1063/1.4959605
   
   in the mass-spec context:
   * V. Asgeirsson, C. Bauer and S. Grimme, Chem. Sci., 2017, 8, 4879.
     DOI: 10.1039/c7sc00601b
   * J. Koopman and S. Grimme, ACS Omega 2019, 4, 12, 15120-15133.
     DOI: 10.1021/acsomega.9b02011
   
   for metadynamics refer to:
   * S. Grimme, J. Chem. Theory Comput., 2019, 155, 2847-2862
     DOI: 10.1021/acs.jctc.9b00143
   
   with help from (in alphabetical order)
   C. Bannwarth, F. Bohle, G. Brandenburg, E. Caldeweyher, M. Checinski,
   S. Dohm, S. Ehlert, S. Ehrlich, F. März, H. Neugebauer, J. Pisarek,
   P. Pracht, P. Shushkov, and S. Spicher.
   
 * started run on 2022/03/17 at 02:20:24.699     

           -------------------------------------------------
          |                Calculation Setup                |
           -------------------------------------------------

          program call               : xtb sub_5.xyz --opt --chrg 0 --uhf 0 --gfn 2
          coordinate file            : sub_5.xyz
          omp threads                :                    64
          number of atoms            :                    28
          number of electrons        :                    84
          charge                     :                     0
          spin                       :                   0.0
          first test random number   :      0.28606502923580

   ID    Z sym.   atoms
    1   17 Cl     1
    2    6 C      2-4, 6, 8-17
    3    7 N      5, 7
    4    1 H      18-28

           -------------------------------------------------
          |                 G F N 2 - x T B                 |
           -------------------------------------------------

        Reference                      10.1021/acs.jctc.8b01176
      * Hamiltonian:
        H0-scaling (s, p, d)           1.850000    2.230000    2.230000
        zeta-weighting                 0.500000
      * Dispersion:
        s8                             2.700000
        a1                             0.520000
        a2                             5.000000
        s9                             5.000000
      * Repulsion:
        kExp                           1.500000    1.000000
        rExp                           1.000000
      * Coulomb:
        alpha                          2.000000
        third order                    shell-resolved
        anisotropic                    true
        a3                             3.000000
        a5                             4.000000
        cn-shift                       1.200000
        cn-exp                         4.000000
        max-rad                        5.000000


          ...................................................
          :                      SETUP                      :
          :.................................................:
          :  # basis functions                  85          :
          :  # atomic orbitals                  84          :
          :  # shells                           46          :
          :  # electrons                        84          :
          :  max. iterations                   250          :
          :  Hamiltonian                  GFN2-xTB          :
          :  restarted?                      false          :
          :  GBSA solvation                  false          :
          :  PC potential                    false          :
          :  electronic temp.          300.0000000     K    :
          :  accuracy                    1.0000000          :
          :  -> integral cutoff          0.2500000E+02      :
          :  -> integral neglect         0.1000000E-07      :
          :  -> SCF convergence          0.1000000E-05 Eh   :
          :  -> wf. convergence          0.1000000E-03 e    :
          :  Broyden damping             0.4000000          :
          ...................................................

 iter      E             dE          RMSdq      gap      omega  full diag
   1    -46.6323406 -0.466323E+02  0.398E+00    3.04       0.0  T
   2    -46.6803189 -0.479782E-01  0.254E+00    2.94       1.0  T
   3    -46.6731721  0.714679E-02  0.124E+00    2.92       1.0  T
   4    -46.6889114 -0.157393E-01  0.398E-01    2.78       1.0  T
   5    -46.6921070 -0.319561E-02  0.118E-01    2.82       1.0  T
   6    -46.6922788 -0.171864E-03  0.553E-02    2.83       1.0  T
   7    -46.6923276 -0.487326E-04  0.233E-02    2.83       1.0  T
   8    -46.6923287 -0.111134E-05  0.971E-03    2.83       1.9  T
   9    -46.6923304 -0.168314E-05  0.322E-03    2.83       5.9  T
  10    -46.6923305 -0.826582E-07  0.213E-03    2.83       8.9  T
  11    -46.6923305 -0.334178E-07  0.131E-03    2.83      14.5  T
  12    -46.6923305 -0.105741E-07  0.895E-04    2.83      21.1  T
  13    -46.6923305 -0.748297E-08  0.477E-04    2.83      39.6  T

   *** convergence criteria satisfied after 13 iterations ***

         #    Occupation            Energy/Eh            Energy/eV
      -------------------------------------------------------------
         1        2.0000           -1.0440806             -28.4109
       ...           ...                  ...                  ...
        36        2.0000           -0.4283505             -11.6560
        37        2.0000           -0.4167055             -11.3391
        38        2.0000           -0.4106668             -11.1748
        39        2.0000           -0.4069727             -11.0743
        40        2.0000           -0.3854606             -10.4889
        41        2.0000           -0.3796645             -10.3312
        42        2.0000           -0.3676041             -10.0030 (HOMO)
        43                         -0.2634605              -7.1691 (LUMO)
        44                         -0.2519986              -6.8572
        45                         -0.2379056              -6.4737
        46                         -0.2021107              -5.4997
        47                         -0.1686818              -4.5901
       ...                                ...                  ...
        84                          0.6964477              18.9513
      -------------------------------------------------------------
                  HL-Gap            0.1041437 Eh            2.8339 eV
             Fermi-level           -0.3155323 Eh           -8.5861 eV

 SCC (total)                   0 d,  0 h,  0 min,  0.227 sec
 SCC setup                      ...        0 min,  0.015 sec (  6.572%)
 Dispersion                     ...        0 min,  0.009 sec (  4.127%)
 classical contributions        ...        0 min,  0.008 sec (  3.609%)
 integral evaluation            ...        0 min,  0.028 sec ( 12.410%)
 iterations                     ...        0 min,  0.028 sec ( 12.504%)
 molecular gradient             ...        0 min,  0.138 sec ( 60.600%)
 printout                       ...        0 min,  0.000 sec (  0.144%)

         :::::::::::::::::::::::::::::::::::::::::::::::::::::
         ::                     SUMMARY                     ::
         :::::::::::::::::::::::::::::::::::::::::::::::::::::
         :: total energy             -46.002012071786 Eh    ::
         :: gradient norm              0.077929815347 Eh/a0 ::
         :: HOMO-LUMO gap              2.833893388361 eV    ::
         ::.................................................::
         :: SCC energy               -46.692330503924 Eh    ::
         :: -> isotropic ES            0.015582920441 Eh    ::
         :: -> anisotropic ES          0.002996580321 Eh    ::
         :: -> anisotropic XC          0.028147840335 Eh    ::
         :: -> dispersion             -0.030966176667 Eh    ::
         :: repulsion energy           0.690455898661 Eh    ::
         :: add. restraining           0.000000000000 Eh    ::
         :: total charge               0.000000000000 e     ::
         :::::::::::::::::::::::::::::::::::::::::::::::::::::

      ----------------------------------------------------------- 
     |                   =====================                   |
     |                        A N C O P T                        |
     |                   =====================                   |
     |               Approximate Normal Coordinate               |
     |                Rational Function Optimizer                |
      ----------------------------------------------------------- 

          ...................................................
          :                      SETUP                      :
          :.................................................:
          :   optimization level            normal          :
          :   max. optcycles                   200          :
          :   ANC micro-cycles                  20          :
          :   degrees of freedom                78          :
          :.................................................:
          :   RF solver                   davidson          :
          :   write xtbopt.log                true          :
          :   linear?                        false          :
          :   energy convergence         0.5000000E-05 Eh   :
          :   grad. convergence          0.1000000E-02 Eh/α :
          :   maximium RF displ.         1.0000000          :
          :   Hlow (freq-cutoff)         0.1000000E-01      :
          :   Hmax (freq-cutoff)         5.0000000          :
          :   S6 in model hess.         20.0000000          :
          ...................................................

generating ANC from model Hessian ...
Using Lindh-Hessian (1995)
 Shifting diagonal of input Hessian by    8.9771851862650263E-003
 Lowest  eigenvalues of input Hessian
    0.000000    0.000000    0.000000    0.000000    0.000000    0.000000
    0.010000    0.010381    0.010878    0.012603    0.015902    0.017886
    0.019462    0.023253    0.024241    0.025554    0.027476    0.029140
 Highest eigenvalues
    1.896610    1.942366    1.969231    2.014846    2.093976    2.101924


........................................................................
.............................. CYCLE    1 ..............................
........................................................................
   1    -46.6923305 -0.466923E+02  0.164E-04    2.83       0.0  T
   2    -46.6923305 -0.119798E-09  0.117E-04    2.83     160.9  T
   3    -46.6923305 -0.663647E-10  0.912E-05    2.83     207.2  T
     SCC iter.                  ...        0 min,  0.011 sec
     gradient                   ...        0 min,  0.133 sec
 * total energy  :   -46.0020121 Eh     change       -0.2962096E-08 Eh
   gradient norm :     0.0779299 Eh/α   predicted     0.0000000E+00 (-100.00%)
   displ. norm   :     0.2773711 α      lambda       -0.9839175E-02
   maximum displ.:     0.1545281 α      in ANC's #12, #24, #9, ...

........................................................................
.............................. CYCLE    2 ..............................
........................................................................
   1    -46.7315805 -0.467316E+02  0.175E-01    2.98       0.0  T
   2    -46.7316937 -0.113185E-03  0.126E-01    2.99       1.0  T
   3    -46.7317286 -0.348834E-04  0.645E-02    2.99       1.0  T
   4    -46.7317718 -0.432509E-04  0.168E-02    2.99       1.1  T
   5    -46.7317768 -0.494672E-05  0.722E-03    2.99       2.6  T
   6    -46.7317774 -0.589483E-06  0.454E-03    2.99       4.2  T
   7    -46.7317775 -0.146615E-06  0.314E-03    2.99       6.0  T
   8    -46.7317776 -0.805063E-07  0.225E-03    2.99       8.4  T
   9    -46.7317777 -0.603115E-07  0.125E-03    2.99      15.2  T
  10    -46.7317777 -0.187752E-07  0.477E-04    2.99      39.6  T
  11    -46.7317777 -0.348148E-08  0.156E-04    2.99     121.1  T
     SCC iter.                  ...        0 min,  0.028 sec
     gradient                   ...        0 min,  0.122 sec
 * total energy  :   -46.0087000 Eh     change       -0.6687909E-02 Eh
   gradient norm :     0.0309847 Eh/α   predicted    -0.5298075E-02 ( -20.78%)
   displ. norm   :     0.2301689 α      lambda       -0.2361317E-02
   maximum displ.:     0.1383908 α      in ANC's #12, #3, #9, ...

........................................................................
.............................. CYCLE    3 ..............................
........................................................................
   1    -46.7496265 -0.467496E+02  0.956E-02    3.06       0.0  T
   2    -46.7496887 -0.621550E-04  0.735E-02    3.08       1.0  T
   3    -46.7497205 -0.317933E-04  0.381E-02    3.08       1.0  T
   4    -46.7497233 -0.287458E-05  0.136E-02    3.08       1.4  T
   5    -46.7497263 -0.296222E-05  0.409E-03    3.08       4.6  T
   6    -46.7497266 -0.285887E-06  0.182E-03    3.08      10.4  T
   7    -46.7497266 -0.214209E-07  0.105E-03    3.08      17.9  T
   8    -46.7497266 -0.782393E-08  0.744E-04    3.08      25.4  T
   9    -46.7497266 -0.458981E-08  0.543E-04    3.08      34.8  T
     SCC iter.                  ...        0 min,  0.020 sec
     gradient                   ...        0 min,  0.092 sec
 * total energy  :   -46.0099775 Eh     change       -0.1277478E-02 Eh
   gradient norm :     0.0067661 Eh/α   predicted    -0.1243209E-02 (  -2.68%)
   displ. norm   :     0.1110047 α      lambda       -0.1842902E-03
   maximum displ.:     0.1044117 α      in ANC's #3, #12, #9, ...

........................................................................
.............................. CYCLE    4 ..............................
........................................................................
   1    -46.7495762 -0.467496E+02  0.252E-02    3.08       0.0  T
   2    -46.7495777 -0.158081E-05  0.153E-02    3.08       1.2  T
   3    -46.7495772  0.505583E-06  0.635E-03    3.08       3.0  T
   4    -46.7495778 -0.561361E-06  0.270E-03    3.08       7.0  T
   5    -46.7495780 -0.192808E-06  0.633E-04    3.08      29.8  T
   6    -46.7495780 -0.235394E-08  0.448E-04    3.08      42.2  T
     SCC iter.                  ...        0 min,  0.017 sec
     gradient                   ...        0 min,  0.122 sec
 * total energy  :   -46.0101189 Eh     change       -0.1414833E-03 Eh
   gradient norm :     0.0030352 Eh/α   predicted    -0.9328199E-04 ( -34.07%)
   displ. norm   :     0.0987518 α      lambda       -0.9924181E-04
   maximum displ.:     0.0968427 α      in ANC's #3, #9, #26, ...

........................................................................
.............................. CYCLE    5 ..............................
........................................................................
   1    -46.7484465 -0.467484E+02  0.213E-02    3.08       0.0  T
   2    -46.7484468 -0.349891E-06  0.126E-02    3.08       1.5  T
   3    -46.7484463  0.492158E-06  0.470E-03    3.08       4.0  T
   4    -46.7484470 -0.635613E-06  0.117E-03    3.08      16.1  T
   5    -46.7484470 -0.139825E-07  0.782E-04    3.08      24.2  T
   6    -46.7484470 -0.273615E-08  0.567E-04    3.08      33.3  T
     SCC iter.                  ...        0 min,  0.016 sec
     gradient                   ...        0 min,  0.140 sec
 * total energy  :   -46.0101935 Eh     change       -0.7454231E-04 Eh
   gradient norm :     0.0014999 Eh/α   predicted    -0.5010807E-04 ( -32.78%)
   displ. norm   :     0.0956131 α      lambda       -0.3731290E-04
   maximum displ.:     0.0941630 α      in ANC's #3, #6, #4, ...

........................................................................
.............................. CYCLE    6 ..............................
........................................................................
   1    -46.7482039 -0.467482E+02  0.178E-02    3.08       0.0  T
   2    -46.7482040 -0.138464E-06  0.105E-02    3.08       1.8  T
   3    -46.7482036  0.403035E-06  0.385E-03    3.08       4.9  T
   4    -46.7482041 -0.497046E-06  0.918E-04    3.08      20.6  T
   5    -46.7482041 -0.529595E-08  0.679E-04    3.08      27.8  T
     SCC iter.                  ...        0 min,  0.015 sec
     gradient                   ...        0 min,  0.045 sec
 * total energy  :   -46.0102358 Eh     change       -0.4234676E-04 Eh
   gradient norm :     0.0017138 Eh/α   predicted    -0.1873562E-04 ( -55.76%)
   displ. norm   :     0.0956159 α      lambda        0.1288758E-05
   maximum displ.:     0.0941634 α      in ANC's #3, #6, #4, ...

........................................................................
.............................. CYCLE    7 ..............................
........................................................................
   1    -46.7478348 -0.467478E+02  0.178E-02    3.08       0.0  T
   2    -46.7478349 -0.140130E-06  0.105E-02    3.07       1.8  T
   3    -46.7478345  0.356043E-06  0.379E-03    3.07       5.0  T
   4    -46.7478350 -0.448543E-06  0.941E-04    3.07      20.1  T
   5    -46.7478350 -0.453752E-08  0.712E-04    3.07      26.5  T
     SCC iter.                  ...        0 min,  0.011 sec
     gradient                   ...        0 min,  0.083 sec
 * total energy  :   -46.0102507 Eh     change       -0.1481977E-04 Eh
   gradient norm :     0.0028169 Eh/α   predicted     0.6469865E-06 (-104.37%)
   displ. norm   :     0.0125538 α      lambda       -0.1082896E-04
   maximum displ.:     0.0089237 α      in ANC's #3, #9, #6, ...

........................................................................
.............................. CYCLE    8 ..............................
........................................................................
   1    -46.7484033 -0.467484E+02  0.602E-03    3.08       0.0  T
   2    -46.7484034 -0.448834E-07  0.370E-03    3.08       5.1  T
   3    -46.7484033  0.749592E-07  0.177E-03    3.08      10.7  T
   4    -46.7484034 -0.988453E-07  0.303E-04    3.08      62.5  T
   5    -46.7484034 -0.179253E-08  0.136E-04    3.08     139.3  T
     SCC iter.                  ...        0 min,  0.011 sec
     gradient                   ...        0 min,  0.138 sec
 * total energy  :   -46.0102590 Eh     change       -0.8350667E-05 Eh
   gradient norm :     0.0017402 Eh/α   predicted    -0.5418447E-05 ( -35.11%)
   displ. norm   :     0.0189901 α      lambda       -0.6715078E-05
   maximum displ.:     0.0133965 α      in ANC's #3, #9, #6, ...

........................................................................
.............................. CYCLE    9 ..............................
........................................................................
   1    -46.7492438 -0.467492E+02  0.905E-03    3.08       0.0  T
   2    -46.7492439 -0.101566E-06  0.559E-03    3.08       3.4  T
   3    -46.7492437  0.148520E-06  0.256E-03    3.08       7.4  T
   4    -46.7492439 -0.200397E-06  0.587E-04    3.08      32.2  T
   5    -46.7492439 -0.400180E-08  0.401E-04    3.08      47.1  T
     SCC iter.                  ...        0 min,  0.011 sec
     gradient                   ...        0 min,  0.141 sec
 * total energy  :   -46.0102623 Eh     change       -0.3273997E-05 Eh
   gradient norm :     0.0012843 Eh/α   predicted    -0.3363012E-05 (   2.72%)
   displ. norm   :     0.0159318 α      lambda       -0.4351266E-05
   maximum displ.:     0.0102680 α      in ANC's #3, #6, #9, ...

........................................................................
.............................. CYCLE   10 ..............................
........................................................................
   1    -46.7489388 -0.467489E+02  0.956E-03    3.07       0.0  T
   2    -46.7489388 -0.382545E-07  0.567E-03    3.07       3.3  T
   3    -46.7489388  0.662863E-07  0.174E-03    3.07      10.8  T
   4    -46.7489388 -0.843578E-07  0.439E-04    3.07      43.1  T
   5    -46.7489388 -0.122160E-08  0.321E-04    3.07      58.9  T
     SCC iter.                  ...        0 min,  0.024 sec
     gradient                   ...        0 min,  0.140 sec
 * total energy  :   -46.0102652 Eh     change       -0.2897740E-05 Eh
   gradient norm :     0.0006857 Eh/α   predicted    -0.2176407E-05 ( -24.89%)
   displ. norm   :     0.0104120 α      lambda       -0.1227342E-05
   maximum displ.:     0.0083254 α      in ANC's #3, #6, #20, ...

   *** GEOMETRY OPTIMIZATION CONVERGED AFTER 10 ITERATIONS ***

------------------------------------------------------------------------
 total energy gain   :        -0.0082531 Eh       -5.1789 kcal/mol
 total RMSD          :         0.1472713 a0        0.0779 Å
 total power (kW/mol):        -2.1668523 (step)  -10.0269 (real)
------------------------------------------------------------------------

 ANCopt (total)                0 d,  0 h,  0 min,  2.161 sec
 optimizer setup                ...        0 min,  0.000 sec (  0.004%)
 model hessian                  ...        0 min,  0.009 sec (  0.399%)
 ANC generation                 ...        0 min,  0.001 sec (  0.063%)
 coordinate transformation      ...        0 min,  0.000 sec (  0.006%)
 single point calculation       ...        0 min,  2.051 sec ( 94.924%)
 optimization log               ...        0 min,  0.001 sec (  0.039%)
 hessian update                 ...        0 min,  0.097 sec (  4.501%)
 rational function              ...        0 min,  0.001 sec (  0.030%)

================
 final structure:
================
28
 xtb: 6.3.3 (4ae9cef)
Cl        3.36464505175849    2.75594717425873    2.19659447155757
C         3.13377551593728    1.32492618511769    1.24947811968783
C         1.84983576850074    0.97495657322502    0.88192767893000
C         1.70340467638338   -0.17865982213743    0.12292852284671
N         0.57374236188573   -0.78747627165210   -0.39443995168756
C        -0.73998331994018   -0.35673532461322   -0.26089636876800
N        -0.93400025524083    0.75196782506973    0.44334548274451
C        -2.15887285824079    1.21149805780773    0.60529981627860
C        -3.29430655206606    0.60787297307974    0.08122027922201
C        -4.65864528507569    1.18611642888462    0.27971357416489
C        -3.08819044775693   -0.55534290078989   -0.65618111991908
C        -1.81234274565353   -1.04992087467608   -0.83498937315004
C         2.82744443872858   -0.95324629170111   -0.25209510434485
C         2.33291619064840   -2.05095764526320   -1.01436977197075
C         0.98652371751317   -1.91517851292914   -1.07607572920938
C         4.10685535130114   -0.56704780575104    0.13840952747799
C         4.25567085634448    0.57568405339523    0.89118154500797
H         0.99864282766873    1.56644572998067    1.16907673789009
H        -2.23225660718242    2.11687984797304    1.19473088090110
H        -5.41318958367249    0.40264713250833    0.28462318321308
H        -4.71153183072469    1.73797246593356    1.21515674375942
H        -4.89274298801527    1.87522199715668   -0.53253321899857
H        -3.93089315629223   -1.07553244514013   -1.08957675975072
H        -1.66654638141757   -1.95114476246932   -1.40627440025906
H         2.91651183880603   -2.83457742711713   -1.45458366471943
H         0.28486275737694   -2.55843068861020   -1.56764041430016
H         4.96543563158847   -1.15569245132929   -0.14593079448818
H         5.23323602683728    0.90180477978864    1.20959210788414

 Bond Distances (Angstroems)
 ---------------------------
Cl1-C2=1.7315        C2-Cl1=1.7315        C2-C3=1.3806         C2-C17=1.3958        C3-C2=1.3806         C3-C4=1.3887         
C3-H18=1.0756        C4-C3=1.3887         C4-N5=1.3836         C4-C13=1.4157        N5-C4=1.3836         N5-C6=1.3890         
N5-C15=1.3808        C6-N5=1.3890         C6-N7=1.3277         C6-C12=1.4000        N7-C6=1.3277         N7-C8=1.3182         
C8-N7=1.3182         C8-C9=1.3886         C8-H19=1.0828        C9-C8=1.3886         C9-C10=1.4951        C9-C11=1.3926        
C10-C9=1.4951        C10-H20=1.0877       C10-H21=1.0874       C10-H22=1.0906       C11-C9=1.3926        C11-C12=1.3800       
C11-H23=1.0810       C12-C6=1.4000        C12-C11=1.3800       C12-H24=1.0770       C13-C4=1.4157        C13-C14=1.4250       
C13-C16=1.3923       C14-C13=1.4250       C14-C15=1.3546       C14-H25=1.0716       C15-N5=1.3808        C15-C14=1.3546       
C15-H26=1.0713       C16-C13=1.3923       C16-C17=1.3765       C16-H27=1.0791       C17-C2=1.3958        C17-C16=1.3765       
C17-H28=1.0786       H18-C3=1.0756        H19-C8=1.0828        H20-C10=1.0877       H21-C10=1.0874       H22-C10=1.0906       
H23-C11=1.0810       H24-C12=1.0770       H25-C14=1.0716       H26-C15=1.0713       H27-C16=1.0791       H28-C17=1.0786       
 C  H  Rav=1.0803 sigma=0.0061  Rmin=1.0713  Rmax=1.0906    11
 C  C  Rav=1.3989 sigma=0.0324  Rmin=1.3546  Rmax=1.4951    13
 N  C  Rav=1.3599 sigma=0.0304  Rmin=1.3182  Rmax=1.3890     5
 Cl C  Rav=1.7315 sigma=0.0000  Rmin=1.7315  Rmax=1.7315     1

 selected bond angles (degree)
 --------------------
C3-C2-Cl1=118.63               C17-C2-Cl1=118.48              C17-C2-C3=122.89               C4-C3-C2=117.01                
H18-C3-C2=121.70               H18-C3-C4=121.29               N5-C4-C3=131.00                C13-C4-C3=121.04               
C13-C4-N5=107.97               C6-N5-C4=126.86                C15-N5-C4=107.45               C15-N5-C6=125.69               
N7-C6-N5=116.63                C12-C6-N5=122.11               C12-C6-N7=121.27               C8-N7-C6=119.47                
C9-C8-N7=124.19                H19-C8-N7=114.92               H19-C8-C9=120.90               C10-C9-C8=121.87               
C11-C9-C8=116.23               C11-C9-C10=121.90              H20-C10-C9=110.80              H21-C10-C9=110.79              
H21-C10-H20=109.14             H22-C10-C9=109.96              H22-C10-H20=108.03             H22-C10-H21=108.03             

 selected dihedral angles (degree)
 ---------------------------------
C4-C3-C2-Cl1=180.00           C4-C3-C2-C17=  0.00           H18-C3-C2-Cl1=359.97          H18-C3-C2-C17=179.98          
N5-C4-C3-C2=180.01            N5-C4-C3-H18=  0.04           C13-C4-C3-C2=359.97           C13-C4-C3-H18=180.00          
C6-N5-C4-C3=359.91            C6-N5-C4-C13=179.95           C15-N5-C4-C3=179.95           C15-N5-C4-C13=  0.00          
N7-C6-N5-C4=359.60            N7-C6-N5-C15=179.56           C12-C6-N5-C4=179.65           C12-C6-N5-C15=359.61          
C8-N7-C6-N5=179.98            C8-N7-C6-C12=359.93           C9-C8-N7-C6=  0.00            H19-C8-N7-C6=179.77           
C10-C9-C8-N7=180.95           C10-C9-C8-H19=  1.20          C11-C9-C8-N7=  0.04           C11-C9-C8-H19=180.29          
H20-C10-C9-C8=209.48          H20-C10-C9-C11= 30.45         H21-C10-C9-C8=330.77          H21-C10-C9-C11=151.74         
H22-C10-C9-C8= 90.12          H22-C10-C9-C11=271.09         
           -------------------------------------------------
          |                Final Singlepoint                |
           -------------------------------------------------

          ...................................................
          :                      SETUP                      :
          :.................................................:
          :  # basis functions                  85          :
          :  # atomic orbitals                  84          :
          :  # shells                           46          :
          :  # electrons                        84          :
          :  max. iterations                   250          :
          :  Hamiltonian                  GFN2-xTB          :
          :  restarted?                      false          :
          :  GBSA solvation                  false          :
          :  PC potential                    false          :
          :  electronic temp.          300.0000000     K    :
          :  accuracy                    1.0000000          :
          :  -> integral cutoff          0.2500000E+02      :
          :  -> integral neglect         0.1000000E-07      :
          :  -> SCF convergence          0.1000000E-05 Eh   :
          :  -> wf. convergence          0.1000000E-03 e    :
          :  Broyden damping             0.4000000          :
          ...................................................

 iter      E             dE          RMSdq      gap      omega  full diag
   1    -46.7489389 -0.467489E+02  0.232E-04    3.07       0.0  T
   2    -46.7489389 -0.276920E-09  0.198E-04    3.07      95.5  T
   3    -46.7489389 -0.175710E-09  0.170E-04    3.07     111.5  T

   *** convergence criteria satisfied after 3 iterations ***

         #    Occupation            Energy/Eh            Energy/eV
      -------------------------------------------------------------
         1        2.0000           -1.0434834             -28.3946
       ...           ...                  ...                  ...
        36        2.0000           -0.4293152             -11.6823
        37        2.0000           -0.4173236             -11.3560
        38        2.0000           -0.4138031             -11.2602
        39        2.0000           -0.4068536             -11.0710
        40        2.0000           -0.3837207             -10.4416
        41        2.0000           -0.3760928             -10.2340
        42        2.0000           -0.3702599             -10.0753 (HOMO)
        43                         -0.2572715              -7.0007 (LUMO)
        44                         -0.2488543              -6.7717
        45                         -0.2338056              -6.3622
        46                         -0.2013799              -5.4798
        47                         -0.1648528              -4.4859
       ...                                ...                  ...
        84                          0.7219125              19.6442
      -------------------------------------------------------------
                  HL-Gap            0.1129884 Eh            3.0746 eV
             Fermi-level           -0.3137657 Eh           -8.5380 eV

 SCC (total)                   0 d,  0 h,  0 min,  0.237 sec
 SCC setup                      ...        0 min,  0.015 sec (  6.322%)
 Dispersion                     ...        0 min,  0.014 sec (  5.969%)
 classical contributions        ...        0 min,  0.019 sec (  7.982%)
 integral evaluation            ...        0 min,  0.039 sec ( 16.586%)
 iterations                     ...        0 min,  0.007 sec (  3.122%)
 molecular gradient             ...        0 min,  0.142 sec ( 59.873%)
 printout                       ...        0 min,  0.000 sec (  0.116%)

         :::::::::::::::::::::::::::::::::::::::::::::::::::::
         ::                     SUMMARY                     ::
         :::::::::::::::::::::::::::::::::::::::::::::::::::::
         :: total energy             -46.010265177417 Eh    ::
         :: gradient norm              0.000686473308 Eh/a0 ::
         :: HOMO-LUMO gap              3.074572022082 eV    ::
         ::.................................................::
         :: SCC energy               -46.748938851087 Eh    ::
         :: -> isotropic ES            0.015592058571 Eh    ::
         :: -> anisotropic ES          0.002189739489 Eh    ::
         :: -> anisotropic XC          0.026685773574 Eh    ::
         :: -> dispersion             -0.031471217951 Eh    ::
         :: repulsion energy           0.738799974966 Eh    ::
         :: add. restraining           0.000000000000 Eh    ::
         :: total charge              -0.000000000000 e     ::
         :::::::::::::::::::::::::::::::::::::::::::::::::::::

           -------------------------------------------------
          |                Property Printout                |
           -------------------------------------------------

    * Orbital Energies and Occupations

         #    Occupation            Energy/Eh            Energy/eV
      -------------------------------------------------------------
         1        2.0000           -1.0434834             -28.3946
       ...           ...                  ...                  ...
        30        2.0000           -0.4746571             -12.9161
        31        2.0000           -0.4696677             -12.7803
        32        2.0000           -0.4532602             -12.3338
        33        2.0000           -0.4429601             -12.0536
        34        2.0000           -0.4421494             -12.0315
        35        2.0000           -0.4398667             -11.9694
        36        2.0000           -0.4293152             -11.6823
        37        2.0000           -0.4173236             -11.3560
        38        2.0000           -0.4138031             -11.2602
        39        2.0000           -0.4068536             -11.0710
        40        2.0000           -0.3837207             -10.4416
        41        2.0000           -0.3760928             -10.2340
        42        2.0000           -0.3702599             -10.0753 (HOMO)
        43                         -0.2572715              -7.0007 (LUMO)
        44                         -0.2488543              -6.7717
        45                         -0.2338056              -6.3622
        46                         -0.2013799              -5.4798
        47                         -0.1648528              -4.4859
        48                         -0.1270176              -3.4563
        49                         -0.1075885              -2.9276
        50                         -0.0800093              -2.1772
        51                          0.0124407               0.3385
        52                          0.0303290               0.8253
        53                          0.0333386               0.9072
       ...                                ...                  ...
        84                          0.7219125              19.6442
      -------------------------------------------------------------
                  HL-Gap            0.1129884 Eh            3.0746 eV
             Fermi-level           -0.3137657 Eh           -8.5380 eV

     #   Z          covCN         q      C6AA      α(0)
     1  17 Cl       0.974    -0.189   105.100    15.684
     2   6 C        2.895     0.093    25.929     8.349
     3   6 C        2.950    -0.057    29.413     8.895
     4   6 C        3.091     0.046    26.866     8.496
     5   7 N        2.823    -0.009    21.430     6.875
     6   6 C        2.895     0.141    24.918     8.184
     7   7 N        1.845    -0.244    27.219     7.732
     8   6 C        2.910     0.052    26.838     8.495
     9   6 C        2.960     0.001    28.006     8.680
    10   6 C        3.757    -0.110    22.659     6.787
    11   6 C        2.935    -0.022    28.564     8.765
    12   6 C        2.914    -0.059    29.477     8.903
    13   6 C        3.113    -0.011    28.121     8.687
    14   6 C        2.999    -0.065    29.605     8.925
    15   6 C        3.038    -0.006    28.137     8.700
    16   6 C        2.914    -0.035    28.874     8.811
    17   6 C        2.956    -0.048    29.191     8.862
    18   1 H        0.926     0.083     1.951     2.184
    19   1 H        0.925     0.042     2.422     2.434
    20   1 H        0.925     0.047     2.354     2.399
    21   1 H        0.925     0.048     2.348     2.396
    22   1 H        0.924     0.053     2.289     2.366
    23   1 H        0.926     0.037     2.484     2.465
    24   1 H        0.926     0.038     2.474     2.460
    25   1 H        0.926     0.039     2.456     2.450
    26   1 H        0.926     0.040     2.452     2.449
    27   1 H        0.926     0.043     2.403     2.424
    28   1 H        0.926     0.052     2.296     2.369

 Mol. C6AA /au·bohr⁶  :      12192.303776
 Mol. C8AA /au·bohr⁸  :     320540.309681
 Mol. α(0) /au        :        176.227757


Wiberg/Mayer (AO) data.
largest (>0.10) Wiberg bond orders for each atom

 ---------------------------------------------------------------------------
     #   Z sym  total        # sym  WBO       # sym  WBO       # sym  WBO
 ---------------------------------------------------------------------------
     1  17 Cl   1.088 --     2 C    0.964
     2   6 C    3.909 --     3 C    1.444    17 C    1.353     1 Cl   0.964
     3   6 C    3.984 --     2 C    1.444     4 C    1.356    18 H    0.955
                            16 C    0.107
     4   6 C    3.959 --     3 C    1.356    13 C    1.257     5 N    1.125
     5   7 N    3.635 --    15 C    1.150     4 C    1.125     6 C    1.090
     6   6 C    3.968 --     7 N    1.369    12 C    1.333     5 N    1.090
     7   7 N    3.068 --     8 C    1.441     6 C    1.369
     8   6 C    3.981 --     7 N    1.441     9 C    1.399    19 H    0.961
                            12 C    0.109
     9   6 C    3.973 --     8 C    1.399    11 C    1.389    10 C    1.028
    10   6 C    3.995 --     9 C    1.028    21 H    0.981    20 H    0.981
                            22 H    0.966
    11   6 C    3.990 --    12 C    1.477     9 C    1.389    23 H    0.968
    12   6 C    3.986 --    11 C    1.477     6 C    1.333    24 H    0.963
                             8 C    0.109
    13   6 C    3.982 --    16 C    1.339     4 C    1.257    14 C    1.201
    14   6 C    3.972 --    15 C    1.643    13 C    1.201    25 H    0.972
    15   6 C    3.946 --    14 C    1.643     5 N    1.150    26 H    0.964
    16   6 C    3.990 --    17 C    1.492    13 C    1.339    27 H    0.968
                             3 C    0.107
    17   6 C    3.983 --    16 C    1.492     2 C    1.353    28 H    0.968
    18   1 H    0.993 --     3 C    0.955
    19   1 H    0.998 --     8 C    0.961
    20   1 H    0.997 --    10 C    0.981
    21   1 H    0.997 --    10 C    0.981
    22   1 H    0.995 --    10 C    0.966
    23   1 H    0.998 --    11 C    0.968
    24   1 H    0.998 --    12 C    0.963
    25   1 H    0.997 --    14 C    0.972
    26   1 H    0.998 --    15 C    0.964
    27   1 H    0.998 --    16 C    0.968
    28   1 H    0.997 --    17 C    0.968
 ---------------------------------------------------------------------------

Topologies differ in total number of bonds
Writing topology from bond orders to xtbtopo.mol

molecular dipole:
                 x           y           z       tot (Debye)
 q only:       -1.056      -0.842      -0.679
   full:       -1.467      -0.934      -0.797       4.863
molecular quadrupole (traceless):
                xx          xy          yy          xz          yz          zz
 q only:        7.091      -9.411      -3.482      -5.046      -2.654      -3.609
  q+dip:       10.575      -8.453      -3.448      -3.221       1.595      -7.127
   full:        7.621      -8.291      -3.292      -4.000      -1.445      -4.328

           -------------------------------------------------
          |                Geometry Summary                 |
           -------------------------------------------------

      molecular mass/u    :      242.7039948
   center of mass at/Å    :        0.7050252       0.3100722       0.3267220
  moments of inertia/u·Å² :        0.6818461E+03   0.1924182E+04   0.2602890E+04
rotational constants/cm⁻¹ :        0.2472351E-01   0.8760934E-02   0.6476506E-02

 * 29 selected distances

     #   Z          #   Z                                           value/Å
     1  17 Cl       2   6 C                                       1.7315170 (max)
     2   6 C        3   6 C                                       1.3806061
     3   6 C        4   6 C                                       1.3886513
     4   6 C        5   7 N                                       1.3836418
     5   7 N        6   6 C                                       1.3889733
     6   6 C        7   7 N                                       1.3277130
     7   7 N        8   6 C                                       1.3182223
     8   6 C        9   6 C                                       1.3886080
     9   6 C       11   6 C                                       1.3925932
     6   6 C       12   6 C                                       1.4000156
    11   6 C       12   6 C                                       1.3799881
     4   6 C       13   6 C                                       1.4156597
    13   6 C       14   6 C                                       1.4249881
     5   7 N       15   6 C                                       1.3808433
    14   6 C       15   6 C                                       1.3546277
    13   6 C       16   6 C                                       1.3923130
     2   6 C       17   6 C                                       1.3958472
    16   6 C       17   6 C                                       1.3764621
     3   6 C       18   1 H                                       1.0755666
     8   6 C       19   1 H                                       1.0828344
    10   6 C       20   1 H                                       1.0877432
    10   6 C       21   1 H                                       1.0873803
    10   6 C       22   1 H                                       1.0906022
    11   6 C       23   1 H                                       1.0810073
    12   6 C       24   1 H                                       1.0769530
    14   6 C       25   1 H                                       1.0716492
    15   6 C       26   1 H                                       1.0713250 (min)
    16   6 C       27   1 H                                       1.0791256
    17   6 C       28   1 H                                       1.0785980

 * 4 distinct bonds (by element types)

   Z      Z             #   av. dist./Å        max./Å        min./Å
   1 H    6 C          11     1.0802532     1.0906022     1.0713250
   6 C    6 C          12     1.3908633     1.4249881     1.3546277
   6 C    7 N           5     1.3598787     1.3889733     1.3182223
   6 C   17 Cl          1     1.7315170     1.7315170     1.7315170


optimized geometry written to: xtbopt.xyz


           -------------------------------------------------
          | TOTAL ENERGY              -46.010265177417 Eh   |
          | GRADIENT NORM               0.000686473308 Eh/α |
          | HOMO-LUMO GAP               3.074572022082 eV   |
           -------------------------------------------------

------------------------------------------------------------------------
 * finished run on 2022/03/17 at 02:20:27.468     
------------------------------------------------------------------------
 total:
 * wall-time:     0 d,  0 h,  0 min,  2.769 sec
 *  cpu-time:     0 d,  0 h,  1 min, 26.661 sec
 * ratio c/w:    31.293 speedup
 SCF:
 * wall-time:     0 d,  0 h,  0 min,  0.227 sec
 *  cpu-time:     0 d,  0 h,  0 min,  6.887 sec
 * ratio c/w:    30.281 speedup
 ANC optimizer:
 * wall-time:     0 d,  0 h,  0 min,  2.399 sec
 *  cpu-time:     0 d,  0 h,  1 min, 15.958 sec
 * ratio c/w:    31.656 speedup

