28
 energy: -46.002012074748 gnorm: 0.077929880334 xtb: 6.3.3 (4ae9cef)
Cl        3.49375400000000    2.75884200000000    2.21472300000000
C         3.24235300000000    1.33826300000000    1.27131800000000
C         1.94242600000000    0.98399300000000    0.89943200000000
C         1.74819900000000   -0.18189600000000    0.12648600000000
N         0.59034200000000   -0.78538500000000   -0.39073500000000
C        -0.76591200000000   -0.32049300000000   -0.24100100000000
N        -0.98331000000000    0.81378900000000    0.46909300000000
C        -2.25572900000000    1.24960500000000    0.61187500000000
C        -3.36258600000000    0.60331500000000    0.08502100000000
C        -4.73959600000000    1.16007600000000    0.25189700000000
C        -3.12781900000000   -0.55164300000000   -0.65543200000000
C        -1.82297500000000   -1.02416300000000   -0.81824100000000
C         2.84624400000000   -0.96556900000000   -0.25752600000000
C         2.35071200000000   -2.05197800000000   -1.01237800000000
C         0.98512800000000   -1.92267700000000   -1.07952900000000
C         4.14783000000000   -0.58511500000000    0.13143300000000
C         4.33499800000000    0.56894900000000    0.89603400000000
H         1.10751600000000    1.60447700000000    1.20716500000000
H        -2.35720100000000    2.16827700000000    1.18431300000000
H        -5.48716400000000    0.35983900000000    0.25156500000000
H        -4.83366400000000    1.69154400000000    1.20477200000000
H        -4.96555400000000    1.85411200000000   -0.56347400000000
H        -3.95389700000000   -1.09322400000000   -1.11046400000000
H        -1.68391600000000   -1.92837900000000   -1.39678400000000
H         2.93127900000000   -2.84776900000000   -1.46080400000000
H         0.27473600000000   -2.56794400000000   -1.57248100000000
H         5.00425100000000   -1.18634900000000   -0.16155000000000
H         5.33955600000000    0.85750100000000    1.19296400000000
28
 energy: -46.008699984241 gnorm: 0.030984743199 xtb: 6.3.3 (4ae9cef)
Cl        3.46880197588326    2.74436712074467    2.20263954658238
C         3.21067583168754    1.32323441016256    1.25803636771217
C         1.91486681402194    0.98550412482344    0.89722481610883
C         1.73088168096586   -0.16580781791497    0.13497682620099
N         0.58118644350214   -0.76286702807223   -0.37692636392179
C        -0.75543489721832   -0.32032193731733   -0.24000814516862
N        -0.96804715664998    0.79724712759571    0.45989278911130
C        -2.21837883704820    1.23214704337884    0.60334593986052
C        -3.33696417742821    0.60196289785302    0.07669091978038
C        -4.71783780633782    1.15504153784441    0.25650363054230
C        -3.10531002127285   -0.55603472194459   -0.65659824330782
C        -1.81144484094632   -1.02622667145075   -0.81855785902964
C         2.83749357369788   -0.95384880065759   -0.25083097488693
C         2.33158768628126   -2.04127713195088   -1.00727897365263
C         0.97974826125878   -1.89665929749653   -1.06313821989278
C         4.13189063909061   -0.58548850729832    0.12940559624784
C         4.31183886572950    0.55505692329158    0.88447511441471
H         1.08151621454402    1.59860493299323    1.20047773135776
H        -2.31372595406274    2.14365995126681    1.18100655602948
H        -5.46389026999747    0.35972658964531    0.24425165192474
H        -4.80830679694300    1.69470841771218    1.19904313871763
H        -4.95262958598854    1.84740819771572   -0.55283857886070
H        -3.93139063005396   -1.09473538004385   -1.10301099216076
H        -1.66391674736770   -1.92675234070046   -1.39315257657244
H         2.90239485041391   -2.83497443467304   -1.45562267845637
H         0.27292745693442   -2.53764001818654   -1.55323046705119
H         4.98262817259206   -1.18500148329171   -0.16311715138964
H         5.30884025471196    0.84896429597134    1.18403259976029
28
 energy: -46.009977461766 gnorm: 0.006766118518 xtb: 6.3.3 (4ae9cef)
Cl        3.44194905419708    2.74152119037583    2.19774852721169
C         3.18073544571747    1.31851781002902    1.25165283788248
C         1.88782963028181    0.98674770012470    0.89489517752459
C         1.71534955556894   -0.16062309385349    0.13637803023159
N         0.57400452300083   -0.75572576472364   -0.37403488153365
C        -0.74383968648493   -0.32526283580691   -0.24458901112713
N        -0.95339339626248    0.78318771439242    0.45268703991106
C        -2.18805261199587    1.22295727071446    0.60265751888073
C        -3.31453882386005    0.60309403176830    0.07581775348994
C        -4.69299681244209    1.15689578361597    0.26102232613679
C        -3.08793103939106   -0.55822519233989   -0.65636368911621
C        -1.80274042908694   -1.03216546352740   -0.82341877863989
C         2.82800272022217   -0.94934990868594   -0.24887454834270
C         2.31678570885997   -2.03941576391020   -1.00747281589425
C         0.97250166578035   -1.88760425717205   -1.05841358585430
C         4.11629560998472   -0.58361502338276    0.12910368526626
C         4.28900651804283    0.55382398694754    0.88121790900483
H         1.05111291349084    1.59331365409844    1.19343326380978
H        -2.27881403735095    2.13216515746981    1.18323936012210
H        -5.43335527565400    0.35968209210364    0.24504700516288
H        -4.77425170351769    1.69796000394771    1.20041256884469
H        -4.92973575014914    1.84884997571955   -0.54777862953058
H        -3.91738725634562   -1.09333654820162   -1.09606811621362
H        -1.64906126352214   -1.93264369094451   -1.39300205058182
H         2.88504195335656   -2.83036736538188   -1.45402050171912
H         0.26577828510893   -2.52615910961500   -1.54691211604446
H         4.96395006814242   -1.18323864530048   -0.16380373349708
H         5.27775543430808    0.85901429153846    1.18713145461543
28
 energy: -46.010118945092 gnorm: 0.003035166414 xtb: 6.3.3 (4ae9cef)
Cl        3.42345237965904    2.74507816104870    2.19791418548018
C         3.16708972342425    1.32025823703232    1.25104543873168
C         1.87598911250920    0.98494532128810    0.89193640466589
C         1.71118581087030   -0.16483652306361    0.13267954181144
N         0.57355013716846   -0.76287567355465   -0.37894950294856
C        -0.74068379420276   -0.33263677573552   -0.24866282276615
N        -0.94677345594141    0.77663010261497    0.45019807076548
C        -2.17828554744355    1.22271199879909    0.60344143978422
C        -3.30676023998382    0.60593356445809    0.07729245285784
C        -4.68215231109831    1.16257971649363    0.26514624022955
C        -3.08538036466835   -0.55670505430185   -0.65574736241674
C        -1.80362983130480   -1.03683343934089   -0.82631888320042
C         2.82652133380118   -0.95069511061745   -0.25006920931622
C         2.31813098812238   -2.04300091018939   -1.00975947995279
C         0.97378117913767   -1.89382589994396   -1.06283949318692
C         4.11225215545796   -0.58029550543551    0.13086940116053
C         4.27881989627750    0.55933650313974    0.88364173509628
H         1.03484429032368    1.58740946300843    1.18739069207359
H        -2.26598481222839    2.13053979435561    1.18721639867896
H        -5.42286580348030    0.36599841361597    0.25145437424375
H        -4.75775166116685    1.70409571260626    1.20464960212070
H        -4.91811588901659    1.85469916623429   -0.54393393679641
H        -3.91862289802489   -1.08872813283449   -1.09262453216968
H        -1.65082805684692   -1.93763492386951   -1.39538396361894
H         2.88965656396559   -2.83236314527425   -1.45445979300816
H         0.26735498577944   -2.53291790272375   -1.55157163627238
H         4.96150101716692   -1.17854042554860   -0.16072160090674
H         5.26370609174343    0.87167126773830    1.19385823886006
28
 energy: -46.010193487397 gnorm: 0.001499936362 xtb: 6.3.3 (4ae9cef)
Cl        3.40654712849638    2.74864482711395    2.19811500694880
C         3.15639538305540    1.32179276536153    1.25061595978688
C         1.86713090021888    0.98230645633792    0.88888797765907
C         1.70886000808821   -0.16967576929150    0.12898372111198
N         0.57381175642085   -0.77073642568107   -0.38449921114554
C        -0.73926364793551   -0.33953948685793   -0.25315712493232
N        -0.94218248730211    0.77031025897781    0.44807750615439
C        -2.17178991071273    1.22134539304208    0.60521207662687
C        -3.30167889424287    0.60776981279034    0.07940441110133
C        -4.67409972879302    1.16879361197645    0.26914126293046
C        -3.08528356736002   -0.55529138573052   -0.65499208152841
C        -1.80613901563218   -1.04078477098854   -0.82908737090414
C         2.82654564116559   -0.95210998461423   -0.25109957451846
C         2.32188167326014   -2.04637525434057   -1.01171122360116
C         0.97663822377454   -1.90111754862806   -1.06757850016369
C         4.11040923082563   -0.57664974781892    0.13305073377291
C         4.27112701668073    0.56471019260067    0.88624394604374
H         1.02197692578406    1.58082124935356    1.18113979727241
H        -2.25575372133776    2.12909042507556    1.18982225676637
H        -5.41725303911666    0.37446167375048    0.25901647651616
H        -4.74484020700817    1.71161572635473    1.20846543478008
H        -4.90921651568882    1.86090412794810   -0.54032797669499
H        -3.92227284866561   -1.08348990883933   -1.09011799370672
H        -1.65433690794360   -1.94220386540771   -1.39771145576717
H         2.89751957377049   -2.83408486980054   -1.45478334647584
H         0.27054998166466   -2.54083315747637   -1.55691024491247
H         4.96198992428813   -1.17292854312192   -0.15676349117503
H         5.25272812424547    0.88325219791410    1.20025502805454
28
 energy: -46.010235834157 gnorm: 0.001713844022 xtb: 6.3.3 (4ae9cef)
Cl        3.38940983496521    2.75182427769376    2.19779908881236
C         3.14668586629356    1.32282736145484    1.24986321201122
C         1.85957989281891    0.97928045576749    0.88561785085417
C         1.70694891323493   -0.17391881034934    0.12575925063844
N         0.57396141386130   -0.77820594932037   -0.38931471090805
C        -0.73909283977891   -0.34689366965466   -0.25655338810458
N        -0.93850910295841    0.76302118862429    0.44591022350921
C        -2.16607004260294    1.21848921816075    0.60558340472469
C        -3.29794965857636    0.60871854676232    0.08066490048666
C        -4.66745294175058    1.17568262911880    0.27337367541489
C        -3.08630599006296   -0.55458117996717   -0.65484727494272
C        -1.80921331910458   -1.04469260204858   -0.83133352504938
C         2.82708581919281   -0.95286938223035   -0.25175426491221
C         2.32660006559943   -2.04877696359244   -1.01313059433912
C         0.98066461849648   -1.90769087566423   -1.07184494982182
C         4.10926945054564   -0.57276571789059    0.13539291547384
C         4.26449635367351    0.56937058449538    0.88846869639740
H         1.01108634721632    1.57396913210822    1.17493898341326
H        -2.24556111185780    2.12517699922069    1.19231836098308
H        -5.41476629191497    0.38513579134995    0.26826628059268
H        -4.73252581453163    1.72128150640253    1.21174756183596
H        -4.90209644944949    1.86719427904958   -0.53675964903243
H        -3.92663818201641   -1.07870654812200   -1.08871973378819
H        -1.65859547403170   -1.94622372257830   -1.40046353098494
H         2.90633969622935   -2.83474172123029   -1.45458472750641
H         0.27561468373656   -2.54832378341668   -1.56195665999971
H         4.96358092629908   -1.16636788037517   -0.15222267178234
H         5.24345433647376    0.89278483623170    1.20547327602413
28
 energy: -46.010250653926 gnorm: 0.002816941223 xtb: 6.3.3 (4ae9cef)
Cl        3.37227188363946    2.75500066427939    2.19748797025276
C         3.13697604521288    1.32386071436172    1.24911241082521
C         1.85202822994322    0.97625106249186    0.88235293895942
C         1.70503744058137   -0.17816392281984    0.12253791387301
N         0.57411056135966   -0.78567842747673   -0.39412575094720
C        -0.73892271422093   -0.35425183048385   -0.25994358786753
N        -0.93483627176238    0.75572877961235    0.44374804451958
C        -2.16035040305944    1.21563158902250    0.60595702350747
C        -3.29422045490686    0.60966731352989    0.08192545288547
C        -4.66080537069658    1.18257546963563    0.27760021734127
C        -3.08732871869672   -0.55387262975616   -0.65469986008988
C        -1.81228827802181   -1.04860407105108   -0.83357409892893
C         2.82762617507146   -0.95362767588616   -0.25241068646170
C         2.33131871096284   -2.05117730387737   -1.01455213622090
C         0.98469081594606   -1.91426544954946   -1.07610958169787
C         4.10813024952289   -0.56887813648655    0.13772964893252
C         4.25786602674706    0.57403337701995    0.89068980704616
H         1.00019460690958    1.56711082206737    1.16874765662760
H        -2.23536853528482    2.12126294548767    1.19481546651780
H        -5.41228082619309    0.39581567360691    0.27750893769873
H        -4.72021270331503    1.73095323034029    1.21502242404254
H        -4.89497086793773    1.87348730420987   -0.53319933769609
H        -3.93100368835047   -1.07392406022716   -1.08732004500871
H        -1.66285478818703   -1.95024779770997   -1.40320914291566
H         2.91516048080615   -2.83539499814961   -1.45439167522095
H         0.28067916853084   -2.55581582873180   -1.56700100988279
H         4.96517302889535   -1.15980070512339   -0.14769186418491
H         5.23418119650420    0.90232189166386    1.21068486409368
28
 energy: -46.010259004592 gnorm: 0.001740180121 xtb: 6.3.3 (4ae9cef)
Cl        3.37007748819379    2.75521294244261    2.19712472663098
C         3.13598496953956    1.32403019163306    1.24916762523523
C         1.85136485662833    0.97586597548711    0.88232354937889
C         1.70450095376435   -0.17821483188988    0.12283871420430
N         0.57396617009880   -0.78584554169691   -0.39431147815237
C        -0.73917819499709   -0.35446591539154   -0.26079643020307
N        -0.93454590522083    0.75466572462462    0.44344635675801
C        -2.15988647500977    1.21381827422186    0.60639416214650
C        -3.29430059190916    0.60884189501637    0.08208318602422
C        -4.66023066604947    1.18355674137120    0.27825205147607
C        -3.08756430523358   -0.55445358874689   -0.65502479591849
C        -1.81225251455275   -1.04877156671568   -0.83417458215805
C         2.82750965003896   -0.95346824220739   -0.25219871077676
C         2.33171360718430   -2.05100988298973   -1.01439008733520
C         0.98527793840663   -1.91441991096434   -1.07582243310489
C         4.10770243534157   -0.56843117411618    0.13792218656402
C         4.25722875789174    0.57431563357146    0.89076021425869
H         0.99975481172227    1.56699564823765    1.16874451472759
H        -2.23415690356206    2.12025613986732    1.19396777624520
H        -5.41257993866798    0.39778003963192    0.27917673165334
H        -4.71793668887625    1.73271473087301    1.21518897030631
H        -4.89418949911961    1.87416132684893   -0.53283455174699
H        -3.93092012392967   -1.07449875483565   -1.08786050771904
H        -1.66386063795775   -1.95049957474476   -1.40392197181746
H         2.91544529761530   -2.83491076904596   -1.45447472963782
H         0.28204913264851   -2.55639237071888   -1.56701308197894
H         4.96511901612054   -1.15871472227790   -0.14717452334381
H         5.23390835989145    0.90187958251468    1.21029911828364
28
 energy: -46.010262278590 gnorm: 0.001284250883 xtb: 6.3.3 (4ae9cef)
Cl        3.36676939485274    2.75545977029430    2.19669205563582
C         3.13449119490017    1.32425589415816    1.24929626071209
C         1.85035448744991    0.97520881524562    0.88240143418562
C         1.70368709141560   -0.17833954565107    0.12336332316934
N         0.57373752847878   -0.78616594402994   -0.39448488102145
C        -0.73957789601922   -0.35488155436401   -0.26193211637334
N        -0.93412346633954    0.75299227148774    0.44311387433676
C        -2.15919596849661    1.21106459248020    0.60710138742143
C        -3.29442178833798    0.60760457232272    0.08231972317714
C        -4.65935007064668    1.18511874878615    0.27909267278842
C        -3.08792493982706   -0.55536399809076   -0.65545214859914
C        -1.81221388906050   -1.04910852431447   -0.83494450713159
C         2.82733906448171   -0.95320310454723   -0.25192136278011
C         2.33231200390524   -2.05072657906726   -1.01419783968207
C         0.98615404392684   -1.91468045031931   -1.07534929476768
C         4.10707404941889   -0.56767717506100    0.13808348017809
C         4.25628059355167    0.57479570826815    0.89078070087297
H         0.99906848655851    1.56667822099690    1.16896282855727
H        -2.23234090585984    2.11872916596826    1.19272152653097
H        -5.41305906202142    0.40086281948013    0.28151408245130
H        -4.71454996831484    1.73549847065985    1.21526805701700
H        -4.89288893216328    1.87523892770916   -0.53247554866697
H        -3.93079826327640   -1.07538214554880   -1.08863911938663
H        -1.66538779519552   -1.95097572129537   -1.40484134428965
H         2.91588759674565   -2.83410102736526   -1.45472948276124
H         0.28409952322989   -2.55729069723015   -1.56698291662636
H         4.96506397351233   -1.15693233850284   -0.14663260052167
H         5.23351491313112    0.90131882753025    1.20956375557378
28
 energy: -46.010265176330 gnorm: 0.000685742858 xtb: 6.3.3 (4ae9cef)
Cl        3.36464505175849    2.75594717425873    2.19659447155757
C         3.13377551593728    1.32492618511769    1.24947811968783
C         1.84983576850074    0.97495657322502    0.88192767893000
C         1.70340467638338   -0.17865982213743    0.12292852284671
N         0.57374236188573   -0.78747627165210   -0.39443995168756
C        -0.73998331994018   -0.35673532461322   -0.26089636876800
N        -0.93400025524083    0.75196782506973    0.44334548274451
C        -2.15887285824079    1.21149805780773    0.60529981627860
C        -3.29430655206606    0.60787297307974    0.08122027922201
C        -4.65864528507569    1.18611642888462    0.27971357416489
C        -3.08819044775693   -0.55534290078989   -0.65618111991908
C        -1.81234274565353   -1.04992087467608   -0.83498937315004
C         2.82744443872858   -0.95324629170111   -0.25209510434485
C         2.33291619064840   -2.05095764526320   -1.01436977197075
C         0.98652371751317   -1.91517851292914   -1.07607572920938
C         4.10685535130114   -0.56704780575104    0.13840952747799
C         4.25567085634448    0.57568405339523    0.89118154500797
H         0.99864282766873    1.56644572998067    1.16907673789009
H        -2.23225660718242    2.11687984797304    1.19473088090110
H        -5.41318958367249    0.40264713250833    0.28462318321308
H        -4.71153183072469    1.73797246593356    1.21515674375942
H        -4.89274298801527    1.87522199715668   -0.53253321899857
H        -3.93089315629223   -1.07553244514013   -1.08957675975072
H        -1.66654638141757   -1.95114476246932   -1.40627440025906
H         2.91651183880603   -2.83457742711713   -1.45458366471943
H         0.28486275737694   -2.55843068861020   -1.56764041430016
H         4.96543563158847   -1.15569245132929   -0.14593079448818
H         5.23323602683728    0.90180477978864    1.20959210788414
