28
 energy: -46.010265177417 gnorm: 0.000686473308 xtb: 6.3.3 (4ae9cef)
Cl        3.36464505175849    2.75594717425873    2.19659447155757
C         3.13377551593728    1.32492618511769    1.24947811968783
C         1.84983576850074    0.97495657322502    0.88192767893000
C         1.70340467638338   -0.17865982213743    0.12292852284671
N         0.57374236188573   -0.78747627165210   -0.39443995168756
C        -0.73998331994018   -0.35673532461322   -0.26089636876800
N        -0.93400025524083    0.75196782506973    0.44334548274451
C        -2.15887285824079    1.21149805780773    0.60529981627860
C        -3.29430655206606    0.60787297307974    0.08122027922201
C        -4.65864528507569    1.18611642888462    0.27971357416489
C        -3.08819044775693   -0.55534290078989   -0.65618111991908
C        -1.81234274565353   -1.04992087467608   -0.83498937315004
C         2.82744443872858   -0.95324629170111   -0.25209510434485
C         2.33291619064840   -2.05095764526320   -1.01436977197075
C         0.98652371751317   -1.91517851292914   -1.07607572920938
C         4.10685535130114   -0.56704780575104    0.13840952747799
C         4.25567085634448    0.57568405339523    0.89118154500797
H         0.99864282766873    1.56644572998067    1.16907673789009
H        -2.23225660718242    2.11687984797304    1.19473088090110
H        -5.41318958367249    0.40264713250833    0.28462318321308
H        -4.71153183072469    1.73797246593356    1.21515674375942
H        -4.89274298801527    1.87522199715668   -0.53253321899857
H        -3.93089315629223   -1.07553244514013   -1.08957675975072
H        -1.66654638141757   -1.95114476246932   -1.40627440025906
H         2.91651183880603   -2.83457742711713   -1.45458366471943
H         0.28486275737694   -2.55843068861020   -1.56764041430016
H         4.96543563158847   -1.15569245132929   -0.14593079448818
H         5.23323602683728    0.90180477978864    1.20959210788414
