      -----------------------------------------------------------      
     |                   =====================                   |     
     |                           x T B                           |     
     |                   =====================                   |     
     |                         S. Grimme                         |     
     |          Mulliken Center for Theoretical Chemistry        |     
     |                    University of Bonn                     |     
      -----------------------------------------------------------      

   * xtb version 6.3.3 (4ae9cef) compiled by 'conda@95abc7406d43' on 2020-10-14

   xtb is free software: you can redistribute it and/or modify it under
   the terms of the GNU Lesser General Public License as published by
   the Free Software Foundation, either version 3 of the License, or
   (at your option) any later version.
   
   xtb is distributed in the hope that it will be useful,
   but WITHOUT ANY WARRANTY; without even the implied warranty of
   MERCHANTABILITY or FITNESS FOR A PARTICULAR PURPOSE.  See the
   GNU Lesser General Public License for more details.
   
   Cite this work as:
   * C. Bannwarth, E. Caldeweyher, S. Ehlert, A. Hansen, P. Pracht,
     J. Seibert, S. Spicher, S. Grimme, WIREs Comput. Mol. Sci., 2020,
     e01493. DOI: 10.1002/wcms.1493
   
   for GFN2-xTB:
   * S. Grimme, C. Bannwarth, P. Shushkov, J. Chem. Theory Comput., 2017,
     13, 1989-2009. DOI: 10.1021/acs.jctc.7b00118
   for GFN1-xTB:
   * C. Bannwarth, S. Ehlert and S. Grimme., J. Chem. Theory Comput., 2019,
     15, 1652-1671. DOI: 10.1021/acs.jctc.8b01176
   for GFN0-xTB:
   * P. Pracht, E. Caldeweyher, S. Ehlert, S. Grimme, ChemRxiv, 2019, preprint.
     DOI: 10.26434/chemrxiv.8326202.v1
   for GFN-FF:
   * S. Spicher and S. Grimme, Angew. Chem. Int. Ed., 2020, 59, 15665-15673.
     DOI: 10.1002/anie.202004239
   
   for DFT-D4:
   * E. Caldeweyher, C. Bannwarth and S. Grimme, J. Chem. Phys., 2017,
     147, 034112. DOI: 10.1063/1.4993215
   * E. Caldeweyher, S. Ehlert, A. Hansen, H. Neugebauer, S. Spicher,
     C. Bannwarth and S. Grimme, J. Chem. Phys., 2019, 150, 154122.
     DOI: 10.1063/1.5090222
   * E. Caldeweyher, J.-M. Mewes, S. Ehlert and S. Grimme, Phys. Chem. Chem. Phys.
     2020, 22, 8499-8512. DOI: 10.1039/D0CP00502A
   
   for sTDA-xTB:
   * S. Grimme and C. Bannwarth, J. Chem. Phys., 2016, 145, 054103.
     DOI: 10.1063/1.4959605
   
   in the mass-spec context:
   * V. Asgeirsson, C. Bauer and S. Grimme, Chem. Sci., 2017, 8, 4879.
     DOI: 10.1039/c7sc00601b
   * J. Koopman and S. Grimme, ACS Omega 2019, 4, 12, 15120-15133.
     DOI: 10.1021/acsomega.9b02011
   
   for metadynamics refer to:
   * S. Grimme, J. Chem. Theory Comput., 2019, 155, 2847-2862
     DOI: 10.1021/acs.jctc.9b00143
   
   with help from (in alphabetical order)
   C. Bannwarth, F. Bohle, G. Brandenburg, E. Caldeweyher, M. Checinski,
   S. Dohm, S. Ehlert, S. Ehrlich, F. März, H. Neugebauer, J. Pisarek,
   P. Pracht, P. Shushkov, and S. Spicher.
   
 * started run on 2022/03/17 at 01:47:56.609     

           -------------------------------------------------
          |                Calculation Setup                |
           -------------------------------------------------

          program call               : xtb acid_53.xyz --opt --chrg 0 --uhf 0 --gfn 2
          coordinate file            : acid_53.xyz
          omp threads                :                    64
          number of atoms            :                    72
          number of electrons        :                   218
          charge                     :                     0
          spin                       :                   0.0
          first test random number   :      0.62128831431658

   ID    Z sym.   atoms
    1    6 C      1-22, 24-29, 32, 33, 37-42
    2    7 N      23, 36
    3    8 O      30, 31, 34, 35, 43, 44
    4    1 H      45-72

           -------------------------------------------------
          |                 G F N 2 - x T B                 |
           -------------------------------------------------

        Reference                      10.1021/acs.jctc.8b01176
      * Hamiltonian:
        H0-scaling (s, p, d)           1.850000    2.230000    2.230000
        zeta-weighting                 0.500000
      * Dispersion:
        s8                             2.700000
        a1                             0.520000
        a2                             5.000000
        s9                             5.000000
      * Repulsion:
        kExp                           1.500000    1.000000
        rExp                           1.000000
      * Coulomb:
        alpha                          2.000000
        third order                    shell-resolved
        anisotropic                    true
        a3                             3.000000
        a5                             4.000000
        cn-shift                       1.200000
        cn-exp                         4.000000
        max-rad                        5.000000


          ...................................................
          :                      SETUP                      :
          :.................................................:
          :  # basis functions                 204          :
          :  # atomic orbitals                 204          :
          :  # shells                          116          :
          :  # electrons                       218          :
          :  max. iterations                   250          :
          :  Hamiltonian                  GFN2-xTB          :
          :  restarted?                      false          :
          :  GBSA solvation                  false          :
          :  PC potential                    false          :
          :  electronic temp.          300.0000000     K    :
          :  accuracy                    1.0000000          :
          :  -> integral cutoff          0.2500000E+02      :
          :  -> integral neglect         0.1000000E-07      :
          :  -> SCF convergence          0.1000000E-05 Eh   :
          :  -> wf. convergence          0.1000000E-03 e    :
          :  Broyden damping             0.4000000          :
          ...................................................

 iter      E             dE          RMSdq      gap      omega  full diag
   1   -123.1995334 -0.123200E+03  0.417E+00    2.32       0.0  T
   2   -123.3364565 -0.136923E+00  0.249E+00    2.68       1.0  T
   3   -123.3238377  0.126188E-01  0.126E+00    2.67       1.0  T
   4   -123.3619109 -0.380732E-01  0.338E-01    2.68       1.0  T
   5   -123.3683355 -0.642458E-02  0.987E-02    2.67       1.0  T
   6   -123.3685940 -0.258536E-03  0.501E-02    2.67       1.0  T
   7   -123.3686665 -0.724775E-04  0.264E-02    2.67       1.0  T
   8   -123.3686792 -0.126967E-04  0.129E-02    2.67       1.0  T
   9   -123.3686865 -0.726529E-05  0.408E-03    2.67       2.9  T
  10   -123.3686868 -0.347617E-06  0.241E-03    2.67       4.9  T
  11   -123.3686871 -0.247248E-06  0.105E-03    2.67      11.2  T
  12   -123.3686871 -0.263651E-07  0.549E-04    2.67      21.5  T
  13   -123.3686871 -0.107900E-07  0.205E-04    2.67      57.4  T

   *** convergence criteria satisfied after 13 iterations ***

         #    Occupation            Energy/Eh            Energy/eV
      -------------------------------------------------------------
         1        2.0000           -0.7516589             -20.4537
       ...           ...                  ...                  ...
       103        2.0000           -0.3996499             -10.8750
       104        2.0000           -0.3985105             -10.8440
       105        2.0000           -0.3942346             -10.7277
       106        2.0000           -0.3913881             -10.6502
       107        2.0000           -0.3852138             -10.4822
       108        2.0000           -0.3768742             -10.2553
       109        2.0000           -0.3707726             -10.0892 (HOMO)
       110                         -0.2725189              -7.4156 (LUMO)
       111                         -0.2669291              -7.2635
       112                         -0.2649552              -7.2098
       113                         -0.2637962              -7.1783
       114                         -0.2620766              -7.1315
       ...                                ...                  ...
       204                          0.6821331              18.5618
      -------------------------------------------------------------
                  HL-Gap            0.0982538 Eh            2.6736 eV
             Fermi-level           -0.3216458 Eh           -8.7524 eV

 SCC (total)                   0 d,  0 h,  0 min,  0.592 sec
 SCC setup                      ...        0 min,  0.019 sec (  3.132%)
 Dispersion                     ...        0 min,  0.022 sec (  3.706%)
 classical contributions        ...        0 min,  0.011 sec (  1.874%)
 integral evaluation            ...        0 min,  0.116 sec ( 19.622%)
 iterations                     ...        0 min,  0.272 sec ( 45.852%)
 molecular gradient             ...        0 min,  0.150 sec ( 25.333%)
 printout                       ...        0 min,  0.003 sec (  0.467%)

         :::::::::::::::::::::::::::::::::::::::::::::::::::::
         ::                     SUMMARY                     ::
         :::::::::::::::::::::::::::::::::::::::::::::::::::::
         :: total energy            -121.652783341054 Eh    ::
         :: gradient norm              0.132625202411 Eh/a0 ::
         :: HOMO-LUMO gap              2.673620961834 eV    ::
         ::.................................................::
         :: SCC energy              -123.368687103424 Eh    ::
         :: -> isotropic ES            0.142326941334 Eh    ::
         :: -> anisotropic ES          0.004803864567 Eh    ::
         :: -> anisotropic XC          0.045140529867 Eh    ::
         :: -> dispersion             -0.101071116997 Eh    ::
         :: repulsion energy           1.712274170751 Eh    ::
         :: add. restraining           0.000000000000 Eh    ::
         :: total charge               0.000000000000 e     ::
         :::::::::::::::::::::::::::::::::::::::::::::::::::::

      ----------------------------------------------------------- 
     |                   =====================                   |
     |                        A N C O P T                        |
     |                   =====================                   |
     |               Approximate Normal Coordinate               |
     |                Rational Function Optimizer                |
      ----------------------------------------------------------- 

          ...................................................
          :                      SETUP                      :
          :.................................................:
          :   optimization level            normal          :
          :   max. optcycles                   216          :
          :   ANC micro-cycles                  20          :
          :   degrees of freedom               210          :
          :.................................................:
          :   RF solver                   davidson          :
          :   write xtbopt.log                true          :
          :   linear?                        false          :
          :   energy convergence         0.5000000E-05 Eh   :
          :   grad. convergence          0.1000000E-02 Eh/α :
          :   maximium RF displ.         1.0000000          :
          :   Hlow (freq-cutoff)         0.1000000E-01      :
          :   Hmax (freq-cutoff)         5.0000000          :
          :   S6 in model hess.         20.0000000          :
          ...................................................

generating ANC from model Hessian ...
Using Lindh-Hessian (1995)
 Shifting diagonal of input Hessian by    9.8559623238635014E-003
 Lowest  eigenvalues of input Hessian
    0.000000    0.000000    0.000000    0.000000    0.000000    0.000000
    0.010000    0.010055    0.010139    0.010201    0.010227    0.010359
    0.010595    0.010710    0.010759    0.011134    0.011512    0.011940
 Highest eigenvalues
    2.010922    2.053107    2.062552    2.212283    2.246977    2.263582


........................................................................
.............................. CYCLE    1 ..............................
........................................................................
   1   -123.3686871 -0.123369E+03  0.896E-05    2.67       0.0  T
   2   -123.3686871 -0.106581E-09  0.609E-05    2.67     193.5  T
   3   -123.3686871 -0.107065E-09  0.379E-05    2.67     311.0  T
     SCC iter.                  ...        0 min,  0.068 sec
     gradient                   ...        0 min,  0.138 sec
 * total energy  :  -121.6527833 Eh     change       -0.1292250E-08 Eh
   gradient norm :     0.1326273 Eh/α   predicted     0.0000000E+00 (-100.00%)
   displ. norm   :     0.3739587 α      lambda       -0.2222228E-01
   maximum displ.:     0.1234973 α      in ANC's #32, #63, #61, ...

........................................................................
.............................. CYCLE    2 ..............................
........................................................................
   1   -123.4474148 -0.123447E+03  0.163E-01    2.85       0.0  T
   2   -123.4475685 -0.153665E-03  0.103E-01    2.86       1.0  T
   3   -123.4474446  0.123893E-03  0.639E-02    2.86       1.0  T
   4   -123.4476562 -0.211624E-03  0.192E-02    2.86       1.0  T
   5   -123.4476829 -0.266725E-04  0.460E-03    2.86       2.6  T
   6   -123.4476837 -0.864997E-06  0.228E-03    2.86       5.2  T
   7   -123.4476838 -0.113939E-06  0.105E-03    2.86      11.3  T
   8   -123.4476839 -0.212896E-07  0.349E-04    2.86      33.7  T
   9   -123.4476839 -0.128196E-08  0.181E-04    2.86      65.2  T
     SCC iter.                  ...        0 min,  0.199 sec
     gradient                   ...        0 min,  0.134 sec
 * total energy  :  -121.6684806 Eh     change       -0.1569730E-01 Eh
   gradient norm :     0.0549193 Eh/α   predicted    -0.1266498E-01 ( -19.32%)
   displ. norm   :     0.3989643 α      lambda       -0.8193868E-02
   maximum displ.:     0.1562542 α      in ANC's #32, #29, #34, ...

........................................................................
.............................. CYCLE    3 ..............................
........................................................................
   1   -123.4917899 -0.123492E+03  0.121E-01    2.98       0.0  T
   2   -123.4918998 -0.109955E-03  0.780E-02    2.98       1.0  T
   3   -123.4918656  0.342006E-04  0.466E-02    2.98       1.0  T
   4   -123.4919672 -0.101544E-03  0.153E-02    2.98       1.0  T
   5   -123.4919830 -0.158225E-04  0.350E-03    2.98       3.4  T
   6   -123.4919835 -0.536188E-06  0.164E-03    2.98       7.2  T
   7   -123.4919836 -0.451708E-07  0.728E-04    2.98      16.2  T
   8   -123.4919836 -0.108579E-07  0.253E-04    2.98      46.6  T
     SCC iter.                  ...        0 min,  0.165 sec
     gradient                   ...        0 min,  0.147 sec
 * total energy  :  -121.6735866 Eh     change       -0.5105921E-02 Eh
   gradient norm :     0.0152099 Eh/α   predicted    -0.4749052E-02 (  -6.99%)
   displ. norm   :     0.3252339 α      lambda       -0.2006110E-02
   maximum displ.:     0.1174948 α      in ANC's #14, #29, #32, ...

........................................................................
.............................. CYCLE    4 ..............................
........................................................................
   1   -123.4990880 -0.123499E+03  0.693E-02    2.99       0.0  T
   2   -123.4991186 -0.305472E-04  0.442E-02    2.99       1.0  T
   3   -123.4991002  0.183859E-04  0.252E-02    2.99       1.0  T
   4   -123.4991329 -0.327524E-04  0.896E-03    2.99       1.3  T
   5   -123.4991387 -0.580530E-05  0.177E-03    2.99       6.7  T
   6   -123.4991388 -0.953583E-07  0.960E-04    2.99      12.3  T
   7   -123.4991388 -0.138411E-07  0.375E-04    2.99      31.4  T
     SCC iter.                  ...        0 min,  0.146 sec
     gradient                   ...        0 min,  0.129 sec
 * total energy  :  -121.6750547 Eh     change       -0.1468176E-02 Eh
   gradient norm :     0.0126553 Eh/α   predicted    -0.1109176E-02 ( -24.45%)
   displ. norm   :     0.3821338 α      lambda       -0.1338452E-02
   maximum displ.:     0.1505824 α      in ANC's #14, #16, #15, ...

........................................................................
.............................. CYCLE    5 ..............................
........................................................................
   1   -123.5008135 -0.123501E+03  0.701E-02    2.98       0.0  T
   2   -123.5008320 -0.184910E-04  0.428E-02    2.98       1.0  T
   3   -123.5008044  0.275829E-04  0.231E-02    2.98       1.0  T
   4   -123.5008388 -0.343988E-04  0.722E-03    2.98       1.6  T
   5   -123.5008426 -0.385658E-05  0.157E-03    2.98       7.5  T
   6   -123.5008427 -0.499816E-07  0.916E-04    2.98      12.9  T
   7   -123.5008427 -0.146626E-07  0.325E-04    2.98      36.3  T
     SCC iter.                  ...        0 min,  0.144 sec
     gradient                   ...        0 min,  0.119 sec
 * total energy  :  -121.6759956 Eh     change       -0.9408465E-03 Eh
   gradient norm :     0.0082821 Eh/α   predicted    -0.7669911E-03 ( -18.48%)
   displ. norm   :     0.3639601 α      lambda       -0.7493963E-03
   maximum displ.:     0.1423769 α      in ANC's #2, #15, #14, ...

........................................................................
.............................. CYCLE    6 ..............................
........................................................................
   1   -123.5014826 -0.123501E+03  0.591E-02    2.96       0.0  T
   2   -123.5014917 -0.909074E-05  0.347E-02    2.96       1.0  T
   3   -123.5014773  0.143509E-04  0.165E-02    2.96       1.0  T
   4   -123.5014942 -0.168246E-04  0.438E-03    2.96       2.7  T
   5   -123.5014954 -0.129567E-05  0.139E-03    2.96       8.5  T
   6   -123.5014955 -0.604510E-07  0.753E-04    2.96      15.7  T
   7   -123.5014955 -0.930504E-08  0.316E-04    2.96      37.3  T
     SCC iter.                  ...        0 min,  0.145 sec
     gradient                   ...        0 min,  0.151 sec
 * total energy  :  -121.6765725 Eh     change       -0.5768609E-03 Eh
   gradient norm :     0.0077161 Eh/α   predicted    -0.4243384E-03 ( -26.44%)
   displ. norm   :     0.4500152 α      lambda       -0.7647797E-03
   maximum displ.:     0.1980071 α      in ANC's #2, #15, #16, ...

........................................................................
.............................. CYCLE    7 ..............................
........................................................................
   1   -123.5016310 -0.123502E+03  0.737E-02    2.95       0.0  T
   2   -123.5016393 -0.836108E-05  0.430E-02    2.95       1.0  T
   3   -123.5016244  0.149432E-04  0.168E-02    2.95       1.0  T
   4   -123.5016421 -0.176874E-04  0.342E-03    2.95       3.5  T
   5   -123.5016426 -0.574137E-06  0.159E-03    2.95       7.4  T
   6   -123.5016427 -0.795891E-07  0.866E-04    2.95      13.6  T
   7   -123.5016427 -0.150479E-07  0.325E-04    2.95      36.3  T
     SCC iter.                  ...        0 min,  0.146 sec
     gradient                   ...        0 min,  0.116 sec
 * total energy  :  -121.6771732 Eh     change       -0.6007703E-03 Eh
   gradient norm :     0.0100322 Eh/α   predicted    -0.4598550E-03 ( -23.46%)
   displ. norm   :     0.4849621 α      lambda       -0.7631290E-03
   maximum displ.:     0.2359691 α      in ANC's #2, #15, #1, ...

........................................................................
.............................. CYCLE    8 ..............................
........................................................................
   1   -123.5018466 -0.123502E+03  0.795E-02    2.95       0.0  T
   2   -123.5018558 -0.924188E-05  0.464E-02    2.95       1.0  T
   3   -123.5018446  0.112026E-04  0.149E-02    2.95       1.0  T
   4   -123.5018581 -0.135031E-04  0.331E-03    2.95       3.6  T
   5   -123.5018586 -0.476665E-06  0.151E-03    2.95       7.8  T
   6   -123.5018587 -0.478965E-07  0.886E-04    2.95      13.3  T
   7   -123.5018587 -0.203916E-07  0.338E-04    2.95      34.8  T
     SCC iter.                  ...        0 min,  0.151 sec
     gradient                   ...        0 min,  0.144 sec
 * total energy  :  -121.6777771 Eh     change       -0.6039217E-03 Eh
   gradient norm :     0.0106334 Eh/α   predicted    -0.4713047E-03 ( -21.96%)
   displ. norm   :     0.4889933 α      lambda       -0.7453214E-03
   maximum displ.:     0.2587659 α      in ANC's #2, #1, #15, ...

........................................................................
.............................. CYCLE    9 ..............................
........................................................................
   1   -123.5024903 -0.123502E+03  0.803E-02    2.96       0.0  T
   2   -123.5024962 -0.588269E-05  0.474E-02    2.95       1.0  T
   3   -123.5024853  0.108415E-04  0.131E-02    2.95       1.0  T
   4   -123.5024980 -0.127004E-04  0.316E-03    2.95       3.7  T
   5   -123.5024985 -0.454258E-06  0.152E-03    2.95       7.7  T
   6   -123.5024985 -0.480485E-07  0.676E-04    2.95      17.4  T
   7   -123.5024985 -0.117829E-07  0.329E-04    2.95      35.8  T
     SCC iter.                  ...        0 min,  0.147 sec
     gradient                   ...        0 min,  0.127 sec
 * total energy  :  -121.6783666 Eh     change       -0.5894471E-03 Eh
   gradient norm :     0.0085576 Eh/α   predicted    -0.4617727E-03 ( -21.66%)
   displ. norm   :     0.5071894 α      lambda       -0.6868344E-03
   maximum displ.:     0.2780998 α      in ANC's #2, #1, #4, ...

........................................................................
.............................. CYCLE   10 ..............................
........................................................................
   1   -123.5035748 -0.123504E+03  0.791E-02    2.96       0.0  T
   2   -123.5035829 -0.804571E-05  0.468E-02    2.96       1.0  T
   3   -123.5035655  0.173970E-04  0.157E-02    2.95       1.0  T
   4   -123.5035852 -0.197401E-04  0.380E-03    2.95       3.1  T
   5   -123.5035860 -0.820519E-06  0.160E-03    2.95       7.3  T
   6   -123.5035861 -0.646966E-07  0.712E-04    2.95      16.6  T
   7   -123.5035861 -0.982557E-08  0.391E-04    2.95      30.1  T
     SCC iter.                  ...        0 min,  0.150 sec
     gradient                   ...        0 min,  0.152 sec
 * total energy  :  -121.6789138 Eh     change       -0.5472179E-03 Eh
   gradient norm :     0.0068032 Eh/α   predicted    -0.4317848E-03 ( -21.09%)
   displ. norm   :     0.5302684 α      lambda       -0.6309089E-03
   maximum displ.:     0.2942075 α      in ANC's #2, #1, #4, ...

........................................................................
.............................. CYCLE   11 ..............................
........................................................................
   1   -123.5037074 -0.123504E+03  0.809E-02    2.96       0.0  T
   2   -123.5037181 -0.106844E-04  0.481E-02    2.95       1.0  T
   3   -123.5036930  0.251196E-04  0.191E-02    2.95       1.0  T
   4   -123.5037215 -0.285296E-04  0.423E-03    2.95       2.8  T
   5   -123.5037226 -0.109334E-05  0.170E-03    2.95       6.9  T
   6   -123.5037227 -0.907567E-07  0.781E-04    2.95      15.1  T
   7   -123.5037227 -0.198728E-07  0.374E-04    2.95      31.5  T
     SCC iter.                  ...        0 min,  0.150 sec
     gradient                   ...        0 min,  0.131 sec
 * total energy  :  -121.6794152 Eh     change       -0.5014084E-03 Eh
   gradient norm :     0.0076406 Eh/α   predicted    -0.4041559E-03 ( -19.40%)
   displ. norm   :     0.4955232 α      lambda       -0.5985431E-03
   maximum displ.:     0.2782562 α      in ANC's #2, #1, #4, ...

........................................................................
.............................. CYCLE   12 ..............................
........................................................................
   1   -123.5058608 -0.123506E+03  0.746E-02    2.95       0.0  T
   2   -123.5058752 -0.143511E-04  0.445E-02    2.94       1.0  T
   3   -123.5058513  0.239253E-04  0.214E-02    2.94       1.0  T
   4   -123.5058804 -0.290970E-04  0.463E-03    2.94       2.5  T
   5   -123.5058818 -0.139960E-05  0.170E-03    2.94       6.9  T
   6   -123.5058818 -0.934540E-07  0.847E-04    2.94      13.9  T
   7   -123.5058819 -0.305041E-07  0.363E-04    2.94      32.4  T
     SCC iter.                  ...        0 min,  0.147 sec
     gradient                   ...        0 min,  0.132 sec
 * total energy  :  -121.6798677 Eh     change       -0.4525178E-03 Eh
   gradient norm :     0.0122894 Eh/α   predicted    -0.3727741E-03 ( -17.62%)
   displ. norm   :     0.5285189 α      lambda       -0.5820584E-03
   maximum displ.:     0.3031881 α      in ANC's #2, #1, #4, ...

........................................................................
.............................. CYCLE   13 ..............................
........................................................................
   1   -123.5032856 -0.123503E+03  0.771E-02    2.92       0.0  T
   2   -123.5032918 -0.622955E-05  0.454E-02    2.91       1.0  T
   3   -123.5032787  0.130961E-04  0.139E-02    2.91       1.0  T
   4   -123.5032935 -0.148247E-04  0.343E-03    2.91       3.4  T
   5   -123.5032942 -0.712832E-06  0.151E-03    2.91       7.8  T
   6   -123.5032943 -0.589641E-07  0.680E-04    2.91      17.3  T
   7   -123.5032943 -0.159714E-07  0.307E-04    2.91      38.3  T
     SCC iter.                  ...        0 min,  0.146 sec
     gradient                   ...        0 min,  0.118 sec
 * total energy  :  -121.6803024 Eh     change       -0.4347027E-03 Eh
   gradient norm :     0.0079595 Eh/α   predicted    -0.3723289E-03 ( -14.35%)
   displ. norm   :     0.4847153 α      lambda       -0.6826523E-03
   maximum displ.:     0.2717595 α      in ANC's #2, #1, #4, ...

........................................................................
.............................. CYCLE   14 ..............................
........................................................................
   1   -123.5050601 -0.123505E+03  0.865E-02    2.91       0.0  T
   2   -123.5050690 -0.890177E-05  0.508E-02    2.91       1.0  T
   3   -123.5050447  0.243142E-04  0.200E-02    2.91       1.0  T
   4   -123.5050731 -0.284140E-04  0.356E-03    2.90       3.3  T
   5   -123.5050738 -0.767546E-06  0.141E-03    2.90       8.3  T
   6   -123.5050739 -0.390322E-07  0.864E-04    2.90      13.6  T
   7   -123.5050739 -0.222016E-07  0.300E-04    2.90      39.3  T
     SCC iter.                  ...        0 min,  0.146 sec
     gradient                   ...        0 min,  0.133 sec
 * total energy  :  -121.6807332 Eh     change       -0.4307726E-03 Eh
   gradient norm :     0.0098187 Eh/α   predicted    -0.4215207E-03 (  -2.15%)
   displ. norm   :     0.4662686 α      lambda       -0.4849021E-03
   maximum displ.:     0.2763145 α      in ANC's #2, #1, #4, ...

........................................................................
.............................. CYCLE   15 ..............................
........................................................................
   1   -123.5033355 -0.123503E+03  0.700E-02    2.88       0.0  T
   2   -123.5033407 -0.520940E-05  0.413E-02    2.88       1.0  T
   3   -123.5033369  0.387390E-05  0.840E-03    2.88       1.4  T
   4   -123.5033418 -0.491305E-05  0.203E-03    2.88       5.8  T
   5   -123.5033419 -0.161536E-06  0.982E-04    2.88      12.0  T
   6   -123.5033420 -0.164356E-07  0.469E-04    2.88      25.1  T
     SCC iter.                  ...        0 min,  0.126 sec
     gradient                   ...        0 min,  0.145 sec
 * total energy  :  -121.6811213 Eh     change       -0.3881339E-03 Eh
   gradient norm :     0.0078026 Eh/α   predicted    -0.2951711E-03 ( -23.95%)
   displ. norm   :     0.5089017 α      lambda       -0.5071170E-03
   maximum displ.:     0.3082266 α      in ANC's #2, #1, #4, ...

........................................................................
.............................. CYCLE   16 ..............................
........................................................................
   1   -123.5024228 -0.123502E+03  0.737E-02    2.87       0.0  T
   2   -123.5024280 -0.519580E-05  0.430E-02    2.87       1.0  T
   3   -123.5024221  0.592903E-05  0.103E-02    2.87       1.1  T
   4   -123.5024290 -0.693467E-05  0.242E-03    2.87       4.9  T
   5   -123.5024294 -0.352581E-06  0.872E-04    2.87      13.5  T
   6   -123.5024294 -0.505098E-08  0.531E-04    2.87      22.2  T
     SCC iter.                  ...        0 min,  0.126 sec
     gradient                   ...        0 min,  0.129 sec
 * total energy  :  -121.6815360 Eh     change       -0.4146930E-03 Eh
   gradient norm :     0.0076829 Eh/α   predicted    -0.3192301E-03 ( -23.02%)
   displ. norm   :     0.5579702 α      lambda       -0.4634677E-03
   maximum displ.:     0.3400981 α      in ANC's #2, #1, #4, ...

........................................................................
.............................. CYCLE   17 ..............................
........................................................................
   1   -123.5025677 -0.123503E+03  0.789E-02    2.87       0.0  T
   2   -123.5025706 -0.296131E-05  0.465E-02    2.87       1.0  T
   3   -123.5025652  0.541537E-05  0.919E-03    2.87       1.3  T
   4   -123.5025717 -0.648036E-05  0.186E-03    2.87       6.3  T
   5   -123.5025718 -0.132204E-06  0.976E-04    2.87      12.1  T
   6   -123.5025719 -0.102774E-07  0.465E-04    2.87      25.4  T
     SCC iter.                  ...        0 min,  0.127 sec
     gradient                   ...        0 min,  0.144 sec
 * total energy  :  -121.6819216 Eh     change       -0.3855906E-03 Eh
   gradient norm :     0.0070403 Eh/α   predicted    -0.3038807E-03 ( -21.19%)
   displ. norm   :     0.5798463 α      lambda       -0.4226570E-03
   maximum displ.:     0.3538803 α      in ANC's #2, #1, #4, ...

........................................................................
.............................. CYCLE   18 ..............................
........................................................................
   1   -123.5031305 -0.123503E+03  0.856E-02    2.87       0.0  T
   2   -123.5031351 -0.455606E-05  0.504E-02    2.87       1.0  T
   3   -123.5031246  0.104907E-04  0.122E-02    2.87       1.0  T
   4   -123.5031360 -0.113814E-04  0.333E-03    2.87       3.5  T
   5   -123.5031368 -0.819350E-06  0.107E-03    2.87      11.0  T
   6   -123.5031368 -0.792043E-08  0.648E-04    2.87      18.2  T
   7   -123.5031368 -0.108781E-07  0.206E-04    2.87      57.1  T
     SCC iter.                  ...        0 min,  0.156 sec
     gradient                   ...        0 min,  0.156 sec
 * total energy  :  -121.6822751 Eh     change       -0.3534650E-03 Eh
   gradient norm :     0.0081633 Eh/α   predicted    -0.2823871E-03 ( -20.11%)
   displ. norm   :     0.6138909 α      lambda       -0.4166561E-03
   maximum displ.:     0.3772131 α      in ANC's #2, #1, #4, ...

........................................................................
.............................. CYCLE   19 ..............................
........................................................................
   1   -123.5041552 -0.123504E+03  0.905E-02    2.87       0.0  T
   2   -123.5041626 -0.739782E-05  0.534E-02    2.87       1.0  T
   3   -123.5041482  0.144276E-04  0.151E-02    2.87       1.0  T
   4   -123.5041647 -0.165135E-04  0.314E-03    2.87       3.8  T
   5   -123.5041653 -0.612190E-06  0.122E-03    2.87       9.7  T
   6   -123.5041653 -0.283637E-07  0.663E-04    2.87      17.8  T
   7   -123.5041653 -0.112777E-07  0.301E-04    2.87      39.1  T
     SCC iter.                  ...        0 min,  0.150 sec
     gradient                   ...        0 min,  0.141 sec
 * total energy  :  -121.6826209 Eh     change       -0.3457912E-03 Eh
   gradient norm :     0.0060981 Eh/α   predicted    -0.2868397E-03 ( -17.05%)
   displ. norm   :     0.6336839 α      lambda       -0.3948913E-03
   maximum displ.:     0.3935253 α      in ANC's #2, #1, #4, ...

........................................................................
.............................. CYCLE   20 ..............................
........................................................................
   1   -123.5049300 -0.123505E+03  0.989E-02    2.87       0.0  T
   2   -123.5049345 -0.455593E-05  0.584E-02    2.87       1.0  T
   3   -123.5049096  0.249208E-04  0.189E-02    2.87       1.0  T
   4   -123.5049375 -0.279139E-04  0.278E-03    2.87       4.2  T
   5   -123.5049379 -0.392326E-06  0.137E-03    2.87       8.6  T
   6   -123.5049379 -0.359829E-07  0.801E-04    2.87      14.7  T
   7   -123.5049380 -0.164570E-07  0.241E-04    2.87      48.9  T
     SCC iter.                  ...        0 min,  0.151 sec
     gradient                   ...        0 min,  0.128 sec
 * total energy  :  -121.6829405 Eh     change       -0.3196626E-03 Eh
   gradient norm :     0.0063669 Eh/α   predicted    -0.2767342E-03 ( -13.43%)
   displ. norm   :     0.6056277 α      lambda       -0.3502495E-03
   maximum displ.:     0.3863060 α      in ANC's #2, #1, #4, ...
 * RMSD in coord.:     0.9652445 α      energy gain  -0.3015720E-01 Eh

generating ANC from model Hessian ...
Using Lindh-Hessian (1995)
 Shifting diagonal of input Hessian by    9.8472743167564783E-003
 Lowest  eigenvalues of input Hessian
    0.000000    0.000000    0.000000    0.000000    0.000000    0.000000
    0.010000    0.010135    0.010193    0.010296    0.010366    0.010438
    0.010845    0.010859    0.011000    0.011240    0.011981    0.012222
 Highest eigenvalues
    2.083173    2.107334    2.110153    2.355029    2.365042    2.380125


........................................................................
.............................. CYCLE   21 ..............................
........................................................................
   1   -123.5068956 -0.123507E+03  0.933E-02    2.87       0.0  T
   2   -123.5069010 -0.538722E-05  0.551E-02    2.86       1.0  T
   3   -123.5068756  0.253986E-04  0.194E-02    2.86       1.0  T
   4   -123.5069044 -0.288038E-04  0.277E-03    2.86       4.3  T
   5   -123.5069049 -0.434273E-06  0.136E-03    2.86       8.7  T
   6   -123.5069049 -0.460256E-07  0.750E-04    2.86      15.7  T
   7   -123.5069049 -0.156058E-07  0.278E-04    2.86      42.4  T
     SCC iter.                  ...        0 min,  0.146 sec
     gradient                   ...        0 min,  0.136 sec
 * total energy  :  -121.6832192 Eh     change       -0.2786329E-03 Eh
   gradient norm :     0.0049687 Eh/α   predicted     0.0000000E+00 (-100.00%)
   displ. norm   :     0.0653395 α      lambda       -0.8656850E-04
   maximum displ.:     0.0330223 α      in ANC's #2, #3, #22, ...

........................................................................
.............................. CYCLE   22 ..............................
........................................................................
   1   -123.5073159 -0.123507E+03  0.138E-02    2.86       0.0  T
   2   -123.5073165 -0.583553E-06  0.813E-03    2.86       1.5  T
   3   -123.5073160  0.517119E-06  0.356E-03    2.86       3.3  T
   4   -123.5073166 -0.682354E-06  0.632E-04    2.86      18.7  T
   5   -123.5073167 -0.239649E-07  0.262E-04    2.86      45.0  T
     SCC iter.                  ...        0 min,  0.112 sec
     gradient                   ...        0 min,  0.129 sec
 * total energy  :  -121.6832921 Eh     change       -0.7290310E-04 Eh
   gradient norm :     0.0020654 Eh/α   predicted    -0.4351251E-04 ( -40.31%)
   displ. norm   :     0.2120278 α      lambda       -0.1821147E-03
   maximum displ.:     0.1077133 α      in ANC's #2, #3, #11, ...

........................................................................
.............................. CYCLE   23 ..............................
........................................................................
   1   -123.5074848 -0.123507E+03  0.413E-02    2.86       0.0  T
   2   -123.5074873 -0.240802E-05  0.243E-02    2.86       1.0  T
   3   -123.5074831  0.413195E-05  0.806E-03    2.86       1.5  T
   4   -123.5074880 -0.488698E-05  0.169E-03    2.86       7.0  T
   5   -123.5074882 -0.178436E-06  0.773E-04    2.86      15.2  T
   6   -123.5074882 -0.158784E-07  0.444E-04    2.86      26.5  T
     SCC iter.                  ...        0 min,  0.171 sec
     gradient                   ...        0 min,  0.152 sec
 * total energy  :  -121.6834188 Eh     change       -0.1266948E-03 Eh
   gradient norm :     0.0036034 Eh/α   predicted    -0.9524860E-04 ( -24.82%)
   displ. norm   :     0.2062322 α      lambda       -0.1032949E-03
   maximum displ.:     0.1108888 α      in ANC's #2, #3, #11, ...

........................................................................
.............................. CYCLE   24 ..............................
........................................................................
   1   -123.5070805 -0.123507E+03  0.391E-02    2.86       0.0  T
   2   -123.5070818 -0.128127E-05  0.230E-02    2.86       1.0  T
   3   -123.5070784  0.341408E-05  0.657E-03    2.86       1.8  T
   4   -123.5070822 -0.382027E-05  0.167E-03    2.86       7.1  T
   5   -123.5070824 -0.190833E-06  0.688E-04    2.86      17.1  T
   6   -123.5070824 -0.790598E-08  0.383E-04    2.86      30.8  T
     SCC iter.                  ...        0 min,  0.128 sec
     gradient                   ...        0 min,  0.154 sec
 * total energy  :  -121.6835021 Eh     change       -0.8329422E-04 Eh
   gradient norm :     0.0049191 Eh/α   predicted    -0.5385323E-04 ( -35.35%)
   displ. norm   :     0.2785988 α      lambda       -0.1301787E-03
   maximum displ.:     0.1519845 α      in ANC's #2, #3, #8, ...

........................................................................
.............................. CYCLE   25 ..............................
........................................................................
   1   -123.5064463 -0.123506E+03  0.526E-02    2.86       0.0  T
   2   -123.5064485 -0.217459E-05  0.310E-02    2.86       1.0  T
   3   -123.5064414  0.711155E-05  0.983E-03    2.86       1.2  T
   4   -123.5064494 -0.797968E-05  0.204E-03    2.86       5.8  T
   5   -123.5064496 -0.250131E-06  0.921E-04    2.86      12.8  T
   6   -123.5064496 -0.171280E-07  0.525E-04    2.86      22.5  T
     SCC iter.                  ...        0 min,  0.129 sec
     gradient                   ...        0 min,  0.143 sec
 * total energy  :  -121.6836085 Eh     change       -0.1063943E-03 Eh
   gradient norm :     0.0043754 Eh/α   predicted    -0.7018746E-04 ( -34.03%)
   displ. norm   :     0.3174167 α      lambda       -0.1395275E-03
   maximum displ.:     0.1776195 α      in ANC's #2, #3, #8, ...

........................................................................
.............................. CYCLE   26 ..............................
........................................................................
   1   -123.5060964 -0.123506E+03  0.584E-02    2.86       0.0  T
   2   -123.5060989 -0.250620E-05  0.345E-02    2.86       1.0  T
   3   -123.5060877  0.111877E-04  0.125E-02    2.86       1.0  T
   4   -123.5061003 -0.126105E-04  0.201E-03    2.86       5.9  T
   5   -123.5061005 -0.195555E-06  0.103E-03    2.86      11.5  T
   6   -123.5061005 -0.272960E-07  0.574E-04    2.86      20.5  T
   7   -123.5061005 -0.604390E-08  0.229E-04    2.86      51.5  T
     SCC iter.                  ...        0 min,  0.149 sec
     gradient                   ...        0 min,  0.142 sec
 * total energy  :  -121.6837184 Eh     change       -0.1099026E-03 Eh
   gradient norm :     0.0031967 Eh/α   predicted    -0.7679347E-04 ( -30.13%)
   displ. norm   :     0.2881826 α      lambda       -0.1165522E-03
   maximum displ.:     0.1663859 α      in ANC's #2, #3, #8, ...

........................................................................
.............................. CYCLE   27 ..............................
........................................................................
   1   -123.5066087 -0.123507E+03  0.502E-02    2.86       0.0  T
   2   -123.5066102 -0.153766E-05  0.296E-02    2.86       1.0  T
   3   -123.5066005  0.971011E-05  0.116E-02    2.86       1.0  T
   4   -123.5066114 -0.109577E-04  0.151E-03    2.86       7.8  T
   5   -123.5066115 -0.876844E-07  0.855E-04    2.86      13.8  T
   6   -123.5066115 -0.212905E-07  0.453E-04    2.86      26.0  T
     SCC iter.                  ...        0 min,  0.126 sec
     gradient                   ...        0 min,  0.145 sec
 * total energy  :  -121.6838102 Eh     change       -0.9187205E-04 Eh
   gradient norm :     0.0030082 Eh/α   predicted    -0.6316655E-04 ( -31.25%)
   displ. norm   :     0.2732278 α      lambda       -0.1034101E-03
   maximum displ.:     0.1608274 α      in ANC's #2, #3, #8, ...

........................................................................
.............................. CYCLE   28 ..............................
........................................................................
   1   -123.5075206 -0.123508E+03  0.453E-02    2.86       0.0  T
   2   -123.5075217 -0.115123E-05  0.267E-02    2.86       1.0  T
   3   -123.5075142  0.754478E-05  0.101E-02    2.86       1.2  T
   4   -123.5075227 -0.848324E-05  0.142E-03    2.86       8.3  T
   5   -123.5075227 -0.965900E-07  0.736E-04    2.86      16.0  T
   6   -123.5075228 -0.132171E-07  0.392E-04    2.86      30.1  T
     SCC iter.                  ...        0 min,  0.130 sec
     gradient                   ...        0 min,  0.127 sec
 * total energy  :  -121.6838932 Eh     change       -0.8291831E-04 Eh
   gradient norm :     0.0033853 Eh/α   predicted    -0.5556645E-04 ( -32.99%)
   displ. norm   :     0.3016459 α      lambda       -0.1030894E-03
   maximum displ.:     0.1784869 α      in ANC's #2, #3, #8, ...

........................................................................
.............................. CYCLE   29 ..............................
........................................................................
   1   -123.5079936 -0.123508E+03  0.490E-02    2.86       0.0  T
   2   -123.5079950 -0.146557E-05  0.288E-02    2.87       1.0  T
   3   -123.5079884  0.663161E-05  0.943E-03    2.87       1.3  T
   4   -123.5079958 -0.738896E-05  0.177E-03    2.87       6.7  T
   5   -123.5079960 -0.197507E-06  0.742E-04    2.87      15.9  T
   6   -123.5079960 -0.991385E-08  0.411E-04    2.87      28.6  T
     SCC iter.                  ...        0 min,  0.133 sec
     gradient                   ...        0 min,  0.129 sec
 * total energy  :  -121.6839772 Eh     change       -0.8407654E-04 Eh
   gradient norm :     0.0033362 Eh/α   predicted    -0.5623785E-04 ( -33.11%)
   displ. norm   :     0.3427634 α      lambda       -0.1095554E-03
   maximum displ.:     0.2023924 α      in ANC's #2, #3, #8, ...

........................................................................
.............................. CYCLE   30 ..............................
........................................................................
   1   -123.5081211 -0.123508E+03  0.553E-02    2.87       0.0  T
   2   -123.5081229 -0.182274E-05  0.325E-02    2.87       1.0  T
   3   -123.5081165  0.638640E-05  0.915E-03    2.87       1.3  T
   4   -123.5081235 -0.701235E-05  0.208E-03    2.87       5.7  T
   5   -123.5081238 -0.303966E-06  0.775E-04    2.87      15.2  T
   6   -123.5081238 -0.974455E-08  0.431E-04    2.87      27.3  T
     SCC iter.                  ...        0 min,  0.125 sec
     gradient                   ...        0 min,  0.128 sec
 * total energy  :  -121.6840672 Eh     change       -0.8995751E-04 Eh
   gradient norm :     0.0027484 Eh/α   predicted    -0.6121815E-04 ( -31.95%)
   displ. norm   :     0.3899157 α      lambda       -0.1166944E-03
   maximum displ.:     0.2283607 α      in ANC's #2, #8, #3, ...

........................................................................
.............................. CYCLE   31 ..............................
........................................................................
   1   -123.5079003 -0.123508E+03  0.628E-02    2.87       0.0  T
   2   -123.5079019 -0.169016E-05  0.369E-02    2.87       1.0  T
   3   -123.5078950  0.697671E-05  0.931E-03    2.87       1.3  T
   4   -123.5079026 -0.763651E-05  0.205E-03    2.87       5.8  T
   5   -123.5079029 -0.282817E-06  0.797E-04    2.87      14.8  T
   6   -123.5079029 -0.810442E-08  0.451E-04    2.87      26.2  T
     SCC iter.                  ...        0 min,  0.126 sec
     gradient                   ...        0 min,  0.135 sec
 * total energy  :  -121.6841623 Eh     change       -0.9514125E-04 Eh
   gradient norm :     0.0022214 Eh/α   predicted    -0.6721922E-04 ( -29.35%)
   displ. norm   :     0.4170098 α      lambda       -0.1156158E-03
   maximum displ.:     0.2413947 α      in ANC's #2, #8, #3, ...

........................................................................
.............................. CYCLE   32 ..............................
........................................................................
   1   -123.5076840 -0.123508E+03  0.669E-02    2.86       0.0  T
   2   -123.5076852 -0.121939E-05  0.393E-02    2.86       1.0  T
   3   -123.5076775  0.772498E-05  0.956E-03    2.86       1.2  T
   4   -123.5076860 -0.851171E-05  0.170E-03    2.86       7.0  T
   5   -123.5076862 -0.156397E-06  0.784E-04    2.86      15.0  T
   6   -123.5076862 -0.620933E-08  0.443E-04    2.86      26.6  T
     SCC iter.                  ...        0 min,  0.126 sec
     gradient                   ...        0 min,  0.132 sec
 * total energy  :  -121.6842539 Eh     change       -0.9158902E-04 Eh
   gradient norm :     0.0024136 Eh/α   predicted    -0.6787583E-04 ( -25.89%)
   displ. norm   :     0.4012244 α      lambda       -0.9790328E-04
   maximum displ.:     0.2305845 α      in ANC's #2, #8, #3, ...

........................................................................
.............................. CYCLE   33 ..............................
........................................................................
   1   -123.5074769 -0.123507E+03  0.634E-02    2.86       0.0  T
   2   -123.5074781 -0.114471E-05  0.374E-02    2.86       1.0  T
   3   -123.5074702  0.787167E-05  0.971E-03    2.86       1.2  T
   4   -123.5074789 -0.867014E-05  0.161E-03    2.86       7.3  T
   5   -123.5074790 -0.141071E-06  0.760E-04    2.86      15.5  T
   6   -123.5074790 -0.907792E-08  0.411E-04    2.86      28.6  T
     SCC iter.                  ...        0 min,  0.126 sec
     gradient                   ...        0 min,  0.119 sec
 * total energy  :  -121.6843287 Eh     change       -0.7478435E-04 Eh
   gradient norm :     0.0026752 Eh/α   predicted    -0.5683227E-04 ( -24.01%)
   displ. norm   :     0.3336397 α      lambda       -0.7402542E-04
   maximum displ.:     0.1903109 α      in ANC's #2, #8, #3, ...

........................................................................
.............................. CYCLE   34 ..............................
........................................................................
   1   -123.5081062 -0.123508E+03  0.515E-02    2.86       0.0  T
   2   -123.5081080 -0.180120E-05  0.304E-02    2.86       1.0  T
   3   -123.5081016  0.637654E-05  0.920E-03    2.86       1.3  T
   4   -123.5081086 -0.699680E-05  0.195E-03    2.85       6.0  T
   5   -123.5081089 -0.279810E-06  0.745E-04    2.85      15.8  T
   6   -123.5081089 -0.169655E-07  0.375E-04    2.86      31.4  T
     SCC iter.                  ...        0 min,  0.126 sec
     gradient                   ...        0 min,  0.133 sec
 * total energy  :  -121.6843832 Eh     change       -0.5447087E-04 Eh
   gradient norm :     0.0022576 Eh/α   predicted    -0.4113247E-04 ( -24.49%)
   displ. norm   :     0.2799241 α      lambda       -0.5200813E-04
   maximum displ.:     0.1635536 α      in ANC's #2, #3, #8, ...

........................................................................
.............................. CYCLE   35 ..............................
........................................................................
   1   -123.5074461 -0.123507E+03  0.424E-02    2.85       0.0  T
   2   -123.5074485 -0.242267E-05  0.250E-02    2.85       1.0  T
   3   -123.5074433  0.521226E-05  0.916E-03    2.85       1.3  T
   4   -123.5074492 -0.585985E-05  0.206E-03    2.85       5.7  T
   5   -123.5074495 -0.303630E-06  0.812E-04    2.85      14.5  T
   6   -123.5074495 -0.273976E-07  0.386E-04    2.85      30.5  T
     SCC iter.                  ...        0 min,  0.126 sec
     gradient                   ...        0 min,  0.133 sec
 * total energy  :  -121.6844190 Eh     change       -0.3577998E-04 Eh
   gradient norm :     0.0020464 Eh/α   predicted    -0.2804387E-04 ( -21.62%)
   displ. norm   :     0.1816937 α      lambda       -0.4812211E-04
   maximum displ.:     0.0942807 α      in ANC's #2, #3, #8, ...

........................................................................
.............................. CYCLE   36 ..............................
........................................................................
   1   -123.5105184 -0.123511E+03  0.299E-02    2.85       0.0  T
   2   -123.5105219 -0.357694E-05  0.176E-02    2.85       1.0  T
   3   -123.5105200  0.189815E-05  0.727E-03    2.85       1.6  T
   4   -123.5105225 -0.245094E-05  0.209E-03    2.85       5.6  T
   5   -123.5105228 -0.302771E-06  0.881E-04    2.85      13.4  T
   6   -123.5105228 -0.415016E-07  0.350E-04    2.85      33.7  T
     SCC iter.                  ...        0 min,  0.126 sec
     gradient                   ...        0 min,  0.124 sec
 * total energy  :  -121.6844356 Eh     change       -0.1664265E-04 Eh
   gradient norm :     0.0027254 Eh/α   predicted    -0.2485802E-04 (  49.36%)
   displ. norm   :     0.1166303 α      lambda       -0.2906179E-04
   maximum displ.:     0.0705932 α      in ANC's #2, #3, #8, ...

........................................................................
.............................. CYCLE   37 ..............................
........................................................................
   1   -123.5081803 -0.123508E+03  0.196E-02    2.84       0.0  T
   2   -123.5081807 -0.388082E-06  0.115E-02    2.84       1.0  T
   3   -123.5081797  0.105533E-05  0.415E-03    2.84       2.8  T
   4   -123.5081809 -0.121004E-05  0.759E-04    2.84      15.5  T
   5   -123.5081809 -0.258845E-07  0.398E-04    2.84      29.6  T
   6   -123.5081809 -0.609901E-08  0.199E-04    2.84      59.1  T
     SCC iter.                  ...        0 min,  0.126 sec
     gradient                   ...        0 min,  0.135 sec
 * total energy  :  -121.6844531 Eh     change       -0.1747777E-04 Eh
   gradient norm :     0.0016106 Eh/α   predicted    -0.1472897E-04 ( -15.73%)
   displ. norm   :     0.1748118 α      lambda        0.1286810E-04
   maximum displ.:     0.1058914 α      in ANC's #2, #3, #8, ...

........................................................................
.............................. CYCLE   38 ..............................
........................................................................
   1   -123.5043958 -0.123504E+03  0.296E-02    2.84       0.0  T
   2   -123.5043967 -0.943022E-06  0.174E-02    2.84       1.0  T
   3   -123.5043943  0.238962E-05  0.635E-03    2.84       1.9  T
   4   -123.5043971 -0.275323E-05  0.116E-03    2.84      10.2  T
   5   -123.5043971 -0.598451E-07  0.604E-04    2.84      19.5  T
   6   -123.5043971 -0.137935E-07  0.308E-04    2.84      38.2  T
     SCC iter.                  ...        0 min,  0.127 sec
     gradient                   ...        0 min,  0.112 sec
 * total energy  :  -121.6844313 Eh     change        0.2173998E-04 Eh
   gradient norm :     0.0048827 Eh/α   predicted     0.6520870E-05 ( -70.01%)
   displ. norm   :     0.1277279 α      lambda       -0.4264508E-04
   maximum displ.:     0.0737058 α      in ANC's #2, #8, #3, ...

........................................................................
.............................. CYCLE   39 ..............................
........................................................................
   1   -123.5068079 -0.123507E+03  0.217E-02    2.84       0.0  T
   2   -123.5068085 -0.580713E-06  0.128E-02    2.84       1.0  T
   3   -123.5068071  0.136233E-05  0.496E-03    2.84       2.4  T
   4   -123.5068087 -0.157672E-05  0.887E-04    2.84      13.3  T
   5   -123.5068087 -0.451361E-07  0.405E-04    2.84      29.1  T
   6   -123.5068088 -0.589372E-08  0.216E-04    2.84      54.5  T
     SCC iter.                  ...        0 min,  0.125 sec
     gradient                   ...        0 min,  0.143 sec
 * total energy  :  -121.6844608 Eh     change       -0.2945750E-04 Eh
   gradient norm :     0.0021741 Eh/α   predicted    -0.2167115E-04 ( -26.43%)
   displ. norm   :     0.0419837 α      lambda       -0.1637858E-04
   maximum displ.:     0.0163437 α      in ANC's #11, #7, #8, ...

........................................................................
.............................. CYCLE   40 ..............................
........................................................................
   1   -123.5083404 -0.123508E+03  0.101E-02    2.84       0.0  T
   2   -123.5083405 -0.157464E-06  0.589E-03    2.84       2.0  T
   3   -123.5083402  0.315297E-06  0.267E-03    2.84       4.4  T
   4   -123.5083406 -0.383892E-06  0.425E-04    2.84      27.7  T
   5   -123.5083406 -0.830607E-08  0.206E-04    2.84      57.3  T
     SCC iter.                  ...        0 min,  0.110 sec
     gradient                   ...        0 min,  0.131 sec
 * total energy  :  -121.6844710 Eh     change       -0.1017991E-04 Eh
   gradient norm :     0.0006053 Eh/α   predicted    -0.8205140E-05 ( -19.40%)
   displ. norm   :     0.0516099 α      lambda       -0.5447652E-05
   maximum displ.:     0.0222799 α      in ANC's #9, #5, #8, ...

........................................................................
.............................. CYCLE   41 ..............................
........................................................................
   1   -123.5091717 -0.123509E+03  0.109E-02    2.84       0.0  T
   2   -123.5091718 -0.113755E-06  0.641E-03    2.84       1.8  T
   3   -123.5091714  0.362587E-06  0.256E-03    2.84       4.6  T
   4   -123.5091719 -0.424807E-06  0.335E-04    2.84      35.2  T
   5   -123.5091719 -0.509444E-08  0.170E-04    2.84      69.5  T
     SCC iter.                  ...        0 min,  0.109 sec
     gradient                   ...        0 min,  0.119 sec
 * total energy  :  -121.6844766 Eh     change       -0.5663147E-05 Eh
   gradient norm :     0.0010742 Eh/α   predicted    -0.2729809E-05 ( -51.80%)
   displ. norm   :     0.0517530 α      lambda       -0.4257636E-06
   maximum displ.:     0.0222798 α      in ANC's #9, #5, #8, ...

........................................................................
.............................. CYCLE   42 ..............................
........................................................................
   1   -123.5099715 -0.123510E+03  0.109E-02    2.84       0.0  T
   2   -123.5099717 -0.112711E-06  0.641E-03    2.84       1.8  T
   3   -123.5099713  0.369269E-06  0.257E-03    2.84       4.6  T
   4   -123.5099717 -0.431855E-06  0.337E-04    2.84      35.0  T
   5   -123.5099717 -0.522871E-08  0.172E-04    2.84      68.6  T
     SCC iter.                  ...        0 min,  0.107 sec
     gradient                   ...        0 min,  0.131 sec
 * total energy  :  -121.6844771 Eh     change       -0.5014975E-06 Eh
   gradient norm :     0.0020538 Eh/α   predicted    -0.2146878E-06 ( -57.19%)
   displ. norm   :     0.0562989 α      lambda       -0.7801075E-05
   maximum displ.:     0.0350647 α      in ANC's #2, #3, #8, ...
 * RMSD in coord.:     0.4797984 α      energy gain  -0.1536594E-02 Eh

generating ANC from model Hessian ...
Using Lindh-Hessian (1995)
 Shifting diagonal of input Hessian by    9.8574555120756260E-003
 Lowest  eigenvalues of input Hessian
    0.000000    0.000000    0.000000    0.000000    0.000000    0.000000
    0.010000    0.010166    0.010224    0.010321    0.010426    0.010455
    0.010901    0.010967    0.011250    0.011358    0.012009    0.012221
 Highest eigenvalues
    2.089750    2.107654    2.109855    2.343419    2.360705    2.367574


........................................................................
.............................. CYCLE   43 ..............................
........................................................................
   1   -123.5093657 -0.123509E+03  0.841E-03    2.84       0.0  T
   2   -123.5093658 -0.571146E-07  0.494E-03    2.84       2.4  T
   3   -123.5093657  0.934724E-07  0.123E-03    2.84       9.6  T
   4   -123.5093658 -0.107352E-06  0.308E-04    2.84      38.3  T
   5   -123.5093658 -0.552966E-08  0.144E-04    2.84      82.0  T
     SCC iter.                  ...        0 min,  0.125 sec
     gradient                   ...        0 min,  0.134 sec
 * total energy  :  -121.6844838 Eh     change       -0.6705300E-05 Eh
   gradient norm :     0.0014978 Eh/α   predicted     0.0000000E+00 (-100.00%)
   displ. norm   :     0.0026012 α      lambda       -0.2090164E-05
   maximum displ.:     0.0013091 α      in ANC's #1, #128, #197, ...

........................................................................
.............................. CYCLE   44 ..............................
........................................................................
   1   -123.5088640 -0.123509E+03  0.226E-03    2.84       0.0  T
   2   -123.5088641 -0.997569E-07  0.135E-03    2.84       8.7  T
   3   -123.5088642 -0.501718E-07  0.795E-04    2.84      14.8  T
   4   -123.5088642 -0.649477E-08  0.253E-04    2.84      46.5  T
     SCC iter.                  ...        0 min,  0.089 sec
     gradient                   ...        0 min,  0.129 sec
 * total energy  :  -121.6844856 Eh     change       -0.1748613E-05 Eh
   gradient norm :     0.0008438 Eh/α   predicted    -0.1048829E-05 ( -40.02%)
   displ. norm   :     0.0031373 α      lambda        0.2005665E-05
   maximum displ.:     0.0021889 α      in ANC's #1, #128, #197, ...

   *** GEOMETRY OPTIMIZATION CONVERGED AFTER 44 ITERATIONS ***

------------------------------------------------------------------------
 total energy gain   :        -0.0317023 Eh      -19.8935 kcal/mol
 total RMSD          :         1.3439720 a0        0.7112 Å
 total power (kW/mol):        -1.8916876 (step)   -4.3701 (real)
------------------------------------------------------------------------

 ANCopt (total)                0 d,  0 h,  0 min, 19.047 sec
 optimizer setup                ...        0 min,  0.000 sec (  0.001%)
 model hessian                  ...        0 min,  0.125 sec (  0.658%)
 ANC generation                 ...        0 min,  0.041 sec (  0.214%)
 coordinate transformation      ...        0 min,  0.004 sec (  0.021%)
 single point calculation       ...        0 min, 18.283 sec ( 95.990%)
 optimization log               ...        0 min,  0.029 sec (  0.153%)
 hessian update                 ...        0 min,  0.527 sec (  2.767%)
 rational function              ...        0 min,  0.012 sec (  0.060%)

================
 final structure:
================
72
 xtb: 6.3.3 (4ae9cef)
C         1.33373226947553   -5.39772809586588    0.15800037847666
C         0.15369933107188   -5.60194726161578   -0.49715490327710
C        -0.54585820999089   -4.50818693717976   -1.02577322031174
C        -0.06378530768299   -3.23707743774599   -0.88464838803604
C         1.14423677098339   -2.98300641043608   -0.19770991007725
C         1.85683470946165   -4.09802248597522    0.32586179628171
C         3.07059151868359   -3.89373135704567    1.01320201450037
C         3.56136818475695   -2.63309258368515    1.19441875822487
C         2.85327017217336   -1.52966482815196    0.70374338628887
C         1.67899655395759   -1.68327701217954    0.01073915033808
C         0.92256770401134   -0.45792972967291   -0.43308736708059
C         0.00162002188873    0.04489713543001    0.70304892156940
C        -1.31833009343672   -0.67569597040627    0.70175130299840
C        -1.49894659646271   -1.64096590307522    1.66240779897965
C        -2.68399701006213   -2.38070700355002    1.74626435214055
C        -3.70761620222335   -2.12337959940734    0.88090803754132
C        -3.56153638155619   -1.15625953195489   -0.13372844812902
C        -2.33587988598659   -0.44337635342506   -0.26421520984675
C        -2.20585637090409    0.45145634018917   -1.35071664328640
C        -3.24332446341919    0.66851644239491   -2.21471795208588
C        -4.46620744981039    0.00441289323149   -2.05003129973238
C        -4.61430481527111   -0.89842872537942   -1.03657630818603
N         0.00108320725883    1.48379573450788    0.50829500219963
C        -0.99184234073641    2.39558741984508    0.61680773172323
C        -2.17052564271951    2.05619416437599    1.40899490056898
C        -3.45151763754971    2.53020972447350    1.28741537978530
C        -4.19842007498430    1.90154742417648    2.30332736748094
C        -3.32482646418943    1.10286904711190    2.98883686645441
C        -3.51818757303243    0.20549428192211    4.15557420574680
O        -2.09580652780342    1.19386847620103    2.45088948921256
O        -0.87055812964459    3.49157767523212    0.07947502206985
C         1.21277931070076    1.90731609925204   -0.17299412917814
C         0.84606631405547    2.89070657182060   -1.31049473626734
O         1.44116289951980    4.07188033282818   -1.17177928043638
O         0.23702046392399    2.55044621027840   -2.28965378776276
N         1.78899889293701    0.68514186940383   -0.68460507062292
C         2.69036230259069    0.58632631864107   -1.71109374787460
C         3.56164182150197    1.74363339185786   -1.93064233715859
C         4.29737199405791    2.05919223086865   -3.04405602343662
C         4.98091414708433    3.25429111761799   -2.73939901420502
C         4.63183270940701    3.58314538826074   -1.45875943746280
C         5.01928031228150    4.72357976194284   -0.59024021840344
O         3.77677313925780    2.67007980941115   -0.96386126100566
O         2.79812002573060   -0.43452221754640   -2.36285381723034
H         1.88992037091965   -6.23171821118731    0.56240482576822
H        -0.24254047421771   -6.59937471118371   -0.61882412330025
H        -1.47400468063483   -4.67490849556539   -1.55254391844547
H        -0.62660298402012   -2.42352997378819   -1.31264254561439
H         3.60153709898869   -4.75369628791749    1.39563649081634
H         4.49073221205410   -2.47369099366104    1.72099271408630
H         3.24945661050414   -0.53812081068201    0.86843494241402
H         0.35118866011112   -0.67280946035888   -1.34238173595912
H         0.50268162818567   -0.16120935917790    1.66166827048324
H        -0.71332743617483   -1.83223063439241    2.37902767911252
H        -2.78082011624669   -3.14082444809657    2.50744875186676
H        -4.64156076083450   -2.66192543093298    0.95248740138159
H        -1.28271396886275    0.97437824931805   -1.53299790909950
H        -3.11284335094355    1.35881553169003   -3.03384066227227
H        -5.27790479459205    0.19920568758015   -2.73515448512483
H        -5.54163493315160   -1.43911519541349   -0.91067398311573
H        -3.79650581469522    3.22531818157843    0.55119642323403
H        -5.24184217429681    2.02673976991753    2.50497914200592
H        -2.67796163574812    0.29710529926781    4.84011920651746
H        -3.57222508486036   -0.83169205999417    3.82435729906080
H        -4.43822870374215    0.45941778922086    4.67261051847450
H         1.88834471115178    2.42043291674596    0.52871668190554
H         1.14535731816198    4.67298444483538   -1.87318006017948
H         4.32412217494615    1.49908649259376   -3.95511598500425
H         5.64430290332382    3.79757690008288   -3.38022452008077
H         5.60643194911653    4.37536193441242    0.25894238862547
H         5.60770211264869    5.43731599830263   -1.15804447322742
H         4.12593956360331    5.21193945984839   -0.20457368583483

 Bond Distances (Angstroems)
 ---------------------------
C1-C2=1.3651         C1-C6=1.4110         C1-H45=1.0809        C2-C1=1.3651         C2-C3=1.4018         C2-H46=1.0801        
C3-C2=1.4018         C3-C4=1.3668         C3-H47=1.0802        C4-C3=1.3668         C4-C5=1.4127         C4-H48=1.0779        
C5-C4=1.4127         C5-C6=1.4231         C5-C10=1.4208        C6-C1=1.4110         C6-C5=1.4231         C6-C7=1.4097         
C7-C6=1.4097         C7-C8=1.3649         C7-H49=1.0806        C8-C7=1.3649         C8-C9=1.3999         C8-H50=1.0800        
C9-C8=1.3999         C9-C10=1.3721        C9-H51=1.0804        C10-C5=1.4208        C10-C9=1.3721        C10-C11=1.5069       
C11-C10=1.5069       C11-C12=1.5465       C11-N36=1.4562       C11-H52=1.0952       C12-C11=1.5465       C12-C13=1.5038       
C12-N23=1.4520       C12-H53=1.1011       C13-C12=1.5038       C13-C14=1.3738       C13-C18=1.4221       C14-C13=1.3738       
C14-C15=1.3995       C14-H54=1.0804       C15-C14=1.3995       C15-C16=1.3649       C15-H55=1.0801       C16-C15=1.3649       
C16-C17=1.4093       C16-H56=1.0805       C17-C16=1.4093       C17-C18=1.4239       C17-C22=1.4106       C18-C13=1.4221       
C18-C17=1.4239       C18-C19=1.4135       C19-C18=1.4135       C19-C20=1.3675       C19-H57=1.0765       C20-C19=1.3675       
C20-C21=1.4013       C20-H58=1.0791       C21-C20=1.4013       C21-C22=1.3653       C21-H59=1.0799       C22-C17=1.4106       
C22-C21=1.3653       C22-H60=1.0808       N23-C12=1.4520       N23-C24=1.3524       N23-C32=1.4532       C24-N23=1.3524       
C24-C25=1.4602       C24-O31=1.2266       C25-C24=1.4602       C25-C26=1.3713       C25-O30=1.3545       C26-C25=1.3713       
C26-C27=1.4090       C26-H61=1.0697       C27-C26=1.4090       C27-C28=1.3678       C27-H62=1.0701       C28-C27=1.3678       
C28-C29=1.4846       C28-O30=1.3447       C29-C28=1.4846       C29-H63=1.0876       C29-H64=1.0901       C29-H65=1.0855       
O30-C25=1.3545       O30-C28=1.3447       O31-C24=1.2266       C32-N23=1.4532       C32-C33=1.5477       C32-N36=1.4448       
C32-H66=1.1009       C33-C32=1.5477       C33-O34=1.3299       C33-O35=1.2023       O34-C33=1.3299       O34-H67=0.9699       
O35-C33=1.2023       N36-C11=1.4562       N36-C32=1.4448       N36-C37=1.3696       C37-N36=1.3696       C37-C38=1.4652       
C37-O44=1.2160       C38-C37=1.4652       C38-C39=1.3713       C38-O43=1.3562       C39-C38=1.3713       C39-C40=1.4101       
C39-H68=1.0698       C40-C39=1.4101       C40-C41=1.3675       C40-H69=1.0705       C41-C40=1.3675       C41-C42=1.4849       
C41-O43=1.3453       C42-C41=1.4849       C42-H70=1.0895       C42-H71=1.0854       C42-H72=1.0887       O43-C38=1.3562       
O43-C41=1.3453       O44-C37=1.2160       H45-C1=1.0809        H46-C2=1.0801        H47-C3=1.0802        H48-C4=1.0779        
H49-C7=1.0806        H50-C8=1.0800        H51-C9=1.0804        H52-C11=1.0952       H53-C12=1.1011       H54-C14=1.0804       
H55-C15=1.0801       H56-C16=1.0805       H57-C19=1.0765       H58-C20=1.0791       H59-C21=1.0799       H60-C22=1.0808       
H61-C26=1.0697       H62-C27=1.0701       H63-C29=1.0876       H64-C29=1.0901       H65-C29=1.0855       H66-C32=1.1009       
H67-O34=0.9699       H68-C39=1.0698       H69-C40=1.0705       H70-C42=1.0895       H71-C42=1.0854       H72-C42=1.0887       
 C  H  Rav=1.0823 sigma=0.0081  Rmin=1.0697  Rmax=1.1011    27
 C  C  Rav=1.4166 sigma=0.0508  Rmin=1.3649  Rmax=1.5477    36
 N  C  Rav=1.4214 sigma=0.0431  Rmin=1.3524  Rmax=1.4562     6
 O  H  Rav=0.9699 sigma=0.0000  Rmin=0.9699  Rmax=0.9699     1
 O  C  Rav=1.2969 sigma=0.0642  Rmin=1.2023  Rmax=1.3562     8

 selected bond angles (degree)
 --------------------
C6-C1-C2=121.02                H45-C1-C2=120.59               H45-C1-C6=118.39               C3-C2-C1=119.71                
H46-C2-C1=120.62               H46-C2-C3=119.67               C4-C3-C2=120.71                H47-C3-C2=119.49               
H47-C3-C4=119.80               C5-C4-C3=121.27                H48-C4-C3=118.48               H48-C4-C5=120.25               
C6-C5-C4=117.79                C10-C5-C4=123.90               C10-C5-C6=118.31               C5-C6-C1=119.49                
C7-C6-C1=120.71                C7-C6-C5=119.80                C8-C7-C6=120.54                H49-C7-C6=118.70               
H49-C7-C8=120.76               C9-C8-C7=119.97                H50-C8-C7=120.70               H50-C8-C9=119.33               
C10-C9-C8=121.44               H51-C9-C8=118.98               H51-C9-C10=119.57              C9-C10-C5=119.91               
C11-C10-C5=120.78              C11-C10-C9=119.16              

 selected dihedral angles (degree)
 ---------------------------------
C3-C2-C1-C6=  0.70            C3-C2-C1-H45=180.62           H46-C2-C1-C6=180.22           H46-C2-C1-H45=  0.15          
C4-C3-C2-C1=359.56            C4-C3-C2-H46=180.02           H47-C3-C2-C1=179.36           H47-C3-C2-H46=359.83          
C5-C4-C3-C2=359.58            C5-C4-C3-H47=179.78           H48-C4-C3-C2=179.48           H48-C4-C3-H47=359.67          
C6-C5-C4-C3=  0.99            C6-C5-C4-H48=181.10           C10-C5-C4-C3=181.64           C10-C5-C4-H48=  1.74          
C5-C6-C1-C2=359.90            C5-C6-C1-H45=179.97           C7-C6-C1-C2=179.47            C7-C6-C1-H45=359.54           
C1-C6-C5-C4=359.27            C1-C6-C5-C10=178.66           C7-C6-C5-C4=179.69            C7-C6-C5-C10=359.08           
C8-C7-C6-C1=181.18            C8-C7-C6-C5=  0.75            H49-C7-C6-C1=  0.98           H49-C7-C6-C5=180.55           
C9-C8-C7-C6=  0.44            C9-C8-C7-H49=180.64           H50-C8-C7-C6=179.97           H50-C8-C7-H49=  0.18          
C10-C9-C8-C7=358.52           C10-C9-C8-H50=178.98          H51-C9-C8-C7=179.14           H51-C9-C8-H50=359.60          
C9-C10-C5-C4=179.26           C9-C10-C5-C6=359.91           C11-C10-C5-C4=  3.73          C11-C10-C5-C6=184.38          
C5-C10-C9-C8=  1.29           C5-C10-C9-H51=180.66          C11-C10-C9-C8=176.89          C11-C10-C9-H51=356.27         
           -------------------------------------------------
          |                Final Singlepoint                |
           -------------------------------------------------

          ...................................................
          :                      SETUP                      :
          :.................................................:
          :  # basis functions                 204          :
          :  # atomic orbitals                 204          :
          :  # shells                          116          :
          :  # electrons                       218          :
          :  max. iterations                   250          :
          :  Hamiltonian                  GFN2-xTB          :
          :  restarted?                      false          :
          :  GBSA solvation                  false          :
          :  PC potential                    false          :
          :  electronic temp.          300.0000000     K    :
          :  accuracy                    1.0000000          :
          :  -> integral cutoff          0.2500000E+02      :
          :  -> integral neglect         0.1000000E-07      :
          :  -> SCF convergence          0.1000000E-05 Eh   :
          :  -> wf. convergence          0.1000000E-03 e    :
          :  Broyden damping             0.4000000          :
          ...................................................

 iter      E             dE          RMSdq      gap      omega  full diag
   1   -123.5088642 -0.123509E+03  0.790E-05    2.84       0.0  T
   2   -123.5088642 -0.680842E-10  0.610E-05    2.84     193.2  T
   3   -123.5088642 -0.230173E-09  0.284E-05    2.84     414.8  T

   *** convergence criteria satisfied after 3 iterations ***

         #    Occupation            Energy/Eh            Energy/eV
      -------------------------------------------------------------
         1        2.0000           -0.7520915             -20.4655
       ...           ...                  ...                  ...
       103        2.0000           -0.3998013             -10.8791
       104        2.0000           -0.3989257             -10.8553
       105        2.0000           -0.3960543             -10.7772
       106        2.0000           -0.3895637             -10.6006
       107        2.0000           -0.3850050             -10.4765
       108        2.0000           -0.3839831             -10.4487
       109        2.0000           -0.3742701             -10.1844 (HOMO)
       110                         -0.2699344              -7.3453 (LUMO)
       111                         -0.2622515              -7.1362
       112                         -0.2578651              -7.0169
       113                         -0.2531233              -6.8878
       114                         -0.2347553              -6.3880
       ...                                ...                  ...
       204                          0.7092944              19.3009
      -------------------------------------------------------------
                  HL-Gap            0.1043358 Eh            2.8391 eV
             Fermi-level           -0.3221022 Eh           -8.7648 eV

 SCC (total)                   0 d,  0 h,  0 min,  0.347 sec
 SCC setup                      ...        0 min,  0.014 sec (  4.002%)
 Dispersion                     ...        0 min,  0.013 sec (  3.782%)
 classical contributions        ...        0 min,  0.016 sec (  4.595%)
 integral evaluation            ...        0 min,  0.120 sec ( 34.588%)
 iterations                     ...        0 min,  0.061 sec ( 17.725%)
 molecular gradient             ...        0 min,  0.120 sec ( 34.461%)
 printout                       ...        0 min,  0.003 sec (  0.822%)

         :::::::::::::::::::::::::::::::::::::::::::::::::::::
         ::                     SUMMARY                     ::
         :::::::::::::::::::::::::::::::::::::::::::::::::::::
         :: total energy            -121.684485595972 Eh    ::
         :: gradient norm              0.000844518504 Eh/a0 ::
         :: HOMO-LUMO gap              2.839120731602 eV    ::
         ::.................................................::
         :: SCC energy              -123.508864198465 Eh    ::
         :: -> isotropic ES            0.143722513176 Eh    ::
         :: -> anisotropic ES          0.001374587773 Eh    ::
         :: -> anisotropic XC          0.040372739514 Eh    ::
         :: -> dispersion             -0.110287226910 Eh    ::
         :: repulsion energy           1.820681745879 Eh    ::
         :: add. restraining           0.000000000000 Eh    ::
         :: total charge               0.000000000000 e     ::
         :::::::::::::::::::::::::::::::::::::::::::::::::::::

           -------------------------------------------------
          |                Property Printout                |
           -------------------------------------------------

    * Orbital Energies and Occupations

         #    Occupation            Energy/Eh            Energy/eV
      -------------------------------------------------------------
         1        2.0000           -0.7520915             -20.4655
       ...           ...                  ...                  ...
        97        2.0000           -0.4208493             -11.4519
        98        2.0000           -0.4180056             -11.3745
        99        2.0000           -0.4173776             -11.3574
       100        2.0000           -0.4127105             -11.2304
       101        2.0000           -0.4065494             -11.0628
       102        2.0000           -0.4029980             -10.9661
       103        2.0000           -0.3998013             -10.8791
       104        2.0000           -0.3989257             -10.8553
       105        2.0000           -0.3960543             -10.7772
       106        2.0000           -0.3895637             -10.6006
       107        2.0000           -0.3850050             -10.4765
       108        2.0000           -0.3839831             -10.4487
       109        2.0000           -0.3742701             -10.1844 (HOMO)
       110                         -0.2699344              -7.3453 (LUMO)
       111                         -0.2622515              -7.1362
       112                         -0.2578651              -7.0169
       113                         -0.2531233              -6.8878
       114                         -0.2347553              -6.3880
       115                         -0.2317597              -6.3065
       116                         -0.2275134              -6.1910
       117                         -0.1985982              -5.4041
       118                         -0.1928714              -5.2483
       119                         -0.1892666              -5.1502
       120                         -0.1834175              -4.9910
       ...                                ...                  ...
       204                          0.7092944              19.3009
      -------------------------------------------------------------
                  HL-Gap            0.1043358 Eh            2.8391 eV
             Fermi-level           -0.3221022 Eh           -8.7648 eV

     #   Z          covCN         q      C6AA      α(0)
     1   6 C        2.921    -0.034    28.856     8.809
     2   6 C        2.915    -0.029    28.732     8.790
     3   6 C        2.917    -0.029    28.716     8.787
     4   6 C        2.917    -0.033    28.818     8.803
     5   6 C        2.984     0.012    27.748     8.641
     6   6 C        2.989     0.016    27.649     8.625
     7   6 C        2.920    -0.036    28.899     8.816
     8   6 C        2.914    -0.029    28.731     8.790
     9   6 C        2.922    -0.032    28.799     8.800
    10   6 C        2.969     0.006    27.888     8.662
    11   6 C        3.834     0.051    19.705     6.316
    12   6 C        3.826     0.044    19.820     6.335
    13   6 C        2.966    -0.000    28.035     8.685
    14   6 C        2.926    -0.034    28.836     8.806
    15   6 C        2.913    -0.032    28.800     8.800
    16   6 C        2.921    -0.037    28.918     8.819
    17   6 C        2.988     0.013    27.719     8.636
    18   6 C        2.983     0.007    27.847     8.656
    19   6 C        2.916    -0.041    29.007     8.832
    20   6 C        2.917    -0.025    28.631     8.774
    21   6 C        2.915    -0.028    28.689     8.783
    22   6 C        2.921    -0.035    28.878     8.812
    23   7 N        2.762    -0.106    23.321     7.172
    24   6 C        2.766     0.267    22.488     7.766
    25   6 C        3.107     0.082    26.036     8.360
    26   6 C        3.014    -0.048    29.159     8.858
    27   6 C        3.017    -0.074    29.823     8.958
    28   6 C        3.098     0.126    25.136     8.216
    29   6 C        3.753    -0.120    22.864     6.818
    30   8 O        1.730    -0.192    17.208     5.601
    31   8 O        0.865    -0.433    22.353     6.339
    32   6 C        3.770     0.096    19.021     6.215
    33   6 C        2.691     0.374    20.666     7.440
    34   8 O        1.659    -0.364    20.159     6.061
    35   8 O        0.856    -0.413    21.944     6.281
    36   7 N        2.761    -0.124    23.688     7.229
    37   6 C        2.762     0.266    22.514     7.770
    38   6 C        3.100     0.073    26.254     8.397
    39   6 C        3.014    -0.047    29.153     8.857
    40   6 C        3.013    -0.075    29.850     8.962
    41   6 C        3.094     0.127    25.117     8.214
    42   6 C        3.753    -0.121    22.876     6.820
    43   8 O        1.730    -0.199    17.316     5.619
    44   8 O        0.859    -0.420    22.081     6.300
    45   1 H        0.926     0.034     2.528     2.486
    46   1 H        0.926     0.032     2.551     2.498
    47   1 H        0.926     0.031     2.566     2.505
    48   1 H        0.926     0.030     2.589     2.516
    49   1 H        0.926     0.036     2.507     2.476
    50   1 H        0.926     0.035     2.521     2.483
    51   1 H        0.926     0.033     2.550     2.497
    52   1 H        0.924     0.066     2.131     2.283
    53   1 H        0.923     0.051     2.308     2.376
    54   1 H        0.926     0.030     2.590     2.517
    55   1 H        0.926     0.032     2.554     2.499
    56   1 H        0.926     0.036     2.507     2.476
    57   1 H        0.926     0.054     2.266     2.354
    58   1 H        0.926     0.044     2.392     2.418
    59   1 H        0.926     0.035     2.518     2.482
    60   1 H        0.926     0.033     2.541     2.493
    61   1 H        0.927     0.059     2.208     2.324
    62   1 H        0.927     0.047     2.358     2.401
    63   1 H        0.925     0.068     2.111     2.272
    64   1 H        0.925     0.068     2.112     2.273
    65   1 H        0.925     0.062     2.171     2.304
    66   1 H        0.923     0.072     2.069     2.249
    67   1 H        0.804     0.342     0.607     1.224
    68   1 H        0.927     0.060     2.196     2.317
    69   1 H        0.926     0.044     2.393     2.419
    70   1 H        0.925     0.066     2.135     2.285
    71   1 H        0.925     0.060     2.204     2.321
    72   1 H        0.925     0.072     2.063     2.246

 Mol. C6AA /au·bohr⁶  :      69648.623466
 Mol. C8AA /au·bohr⁸  :    1713536.419662
 Mol. α(0) /au        :        416.026107


Wiberg/Mayer (AO) data.
largest (>0.10) Wiberg bond orders for each atom

 ---------------------------------------------------------------------------
     #   Z sym  total        # sym  WBO       # sym  WBO       # sym  WBO
 ---------------------------------------------------------------------------
     1   6 C    3.991 --     2 C    1.557     6 C    1.279    45 H    0.968
                             4 C    0.119
     2   6 C    3.992 --     1 C    1.557     3 C    1.322    46 H    0.971
     3   6 C    3.992 --     4 C    1.555     2 C    1.322    47 H    0.971
     4   6 C    3.992 --     3 C    1.555     5 C    1.283    48 H    0.961
                             1 C    0.119
     5   6 C    3.989 --     4 C    1.283    10 C    1.254     6 C    1.252
     6   6 C    3.990 --     7 C    1.280     1 C    1.279     5 C    1.252
     7   6 C    3.990 --     8 C    1.552     6 C    1.280    49 H    0.968
                            10 C    0.115
     8   6 C    3.992 --     7 C    1.552     9 C    1.328    50 H    0.970
     9   6 C    3.990 --    10 C    1.522     8 C    1.328    51 H    0.967
    10   6 C    3.983 --     9 C    1.522     5 C    1.254    11 C    0.992
                             7 C    0.115
    11   6 C    3.962 --    10 C    0.992    36 N    0.961    52 H    0.944
                            12 C    0.941
    12   6 C    3.961 --    13 C    0.997    23 N    0.959    53 H    0.951
                            11 C    0.941
    13   6 C    3.984 --    14 C    1.516    18 C    1.252    12 C    0.997
                            16 C    0.114
    14   6 C    3.989 --    13 C    1.516    15 C    1.328    54 H    0.967
    15   6 C    3.992 --    16 C    1.549    14 C    1.328    55 H    0.970
    16   6 C    3.990 --    15 C    1.549    17 C    1.281    56 H    0.968
                            13 C    0.114
    17   6 C    3.990 --    16 C    1.281    22 C    1.279    18 C    1.250
    18   6 C    3.989 --    19 C    1.283    13 C    1.252    17 C    1.250
    19   6 C    3.990 --    20 C    1.551    18 C    1.283    57 H    0.958
                            22 C    0.119
    20   6 C    3.991 --    19 C    1.551    21 C    1.324    58 H    0.970
    21   6 C    3.992 --    22 C    1.556    20 C    1.324    59 H    0.970
    22   6 C    3.991 --    21 C    1.556    17 C    1.279    60 H    0.968
                            19 C    0.119
    23   7 N    3.475 --    24 C    1.226    32 C    0.972    12 C    0.959
                            31 O    0.180
    24   6 C    3.956 --    31 O    1.592    23 N    1.226    25 C    1.032
    25   6 C    3.906 --    26 C    1.522    30 O    1.093    24 C    1.032
                            28 C    0.128
    26   6 C    3.984 --    25 C    1.522    27 C    1.322    61 H    0.973
    27   6 C    3.979 --    28 C    1.543    26 C    1.322    62 H    0.974
    28   6 C    3.910 --    27 C    1.543    30 O    1.131    29 C    1.032
                            25 C    0.128
    29   6 C    3.991 --    28 C    1.032    65 H    0.981    63 H    0.973
                            64 H    0.959
    30   8 O    2.433 --    28 C    1.131    25 C    1.093
    31   8 O    2.041 --    24 C    1.592    23 N    0.180
    32   6 C    3.962 --    36 N    0.985    23 N    0.972    66 H    0.945
                            33 C    0.908
    33   6 C    3.923 --    35 O    1.738    34 O    1.144    32 C    0.908
    34   8 O    2.204 --    33 C    1.144    67 H    0.858    35 O    0.163
    35   8 O    2.039 --    33 C    1.738    34 O    0.163
    36   7 N    3.430 --    37 C    1.171    32 C    0.985    11 C    0.961
                            44 O    0.178
    37   6 C    3.958 --    44 O    1.666    36 N    1.171    38 C    1.028
    38   6 C    3.904 --    39 C    1.527    43 O    1.091    37 C    1.028
                            41 C    0.128
    39   6 C    3.985 --    38 C    1.527    40 C    1.319    68 H    0.972
    40   6 C    3.980 --    41 C    1.546    39 C    1.319    69 H    0.974
    41   6 C    3.911 --    40 C    1.546    43 O    1.129    42 C    1.031
                            38 C    0.128
    42   6 C    3.992 --    41 C    1.031    71 H    0.983    72 H    0.968
                            70 H    0.966
    43   8 O    2.427 --    41 C    1.129    38 C    1.091
    44   8 O    2.009 --    37 C    1.666    36 N    0.178
    45   1 H    0.998 --     1 C    0.968
    46   1 H    0.998 --     2 C    0.971
    47   1 H    0.999 --     3 C    0.971
    48   1 H    0.999 --     4 C    0.961
    49   1 H    0.998 --     7 C    0.968
    50   1 H    0.998 --     8 C    0.970
    51   1 H    0.998 --     9 C    0.967
    52   1 H    0.995 --    11 C    0.944
    53   1 H    0.997 --    12 C    0.951
    54   1 H    0.999 --    14 C    0.967
    55   1 H    0.998 --    15 C    0.970
    56   1 H    0.998 --    16 C    0.968
    57   1 H    0.997 --    19 C    0.958
    58   1 H    0.998 --    20 C    0.970
    59   1 H    0.998 --    21 C    0.970
    60   1 H    0.998 --    22 C    0.968
    61   1 H    0.996 --    26 C    0.973
    62   1 H    0.997 --    27 C    0.974
    63   1 H    0.995 --    29 C    0.973
    64   1 H    0.994 --    29 C    0.959
    65   1 H    0.996 --    29 C    0.981
    66   1 H    0.993 --    32 C    0.945
    67   1 H    0.882 --    34 O    0.858
    68   1 H    0.996 --    39 C    0.972
    69   1 H    0.998 --    40 C    0.974
    70   1 H    0.994 --    42 C    0.966
    71   1 H    0.996 --    42 C    0.983
    72   1 H    0.994 --    42 C    0.968
 ---------------------------------------------------------------------------

Topologies differ in total number of bonds
Writing topology from bond orders to xtbtopo.mol

molecular dipole:
                 x           y           z       tot (Debye)
 q only:       -0.513      -0.119       1.961
   full:       -0.544       0.153       2.008       5.302
molecular quadrupole (traceless):
                xx          xy          yy          xz          yz          zz
 q only:       10.950      22.093      -0.232      -2.422      -8.543     -10.717
  q+dip:       14.066      25.118      -1.478       4.691     -14.735     -12.588
   full:       12.163      23.157      -1.448       0.830     -11.081     -10.715

           -------------------------------------------------
          |                Geometry Summary                 |
           -------------------------------------------------

      molecular mass/u    :      584.6186693
   center of mass at/Å    :        0.0985108       0.1464660      -0.1354005
  moments of inertia/u·Å² :        0.4753493E+04   0.6475313E+04   0.9037945E+04
rotational constants/cm⁻¹ :        0.3546367E-02   0.2603369E-02   0.1865206E-02

 * 72 selected distances

     #   Z          #   Z                                           value/Å
     1   6 C        2   6 C                                       1.3650684
     2   6 C        3   6 C                                       1.4018308
     3   6 C        4   6 C                                       1.3667589
     4   6 C        5   6 C                                       1.4127115
     1   6 C        6   6 C                                       1.4110451
     5   6 C        6   6 C                                       1.4230896
     6   6 C        7   6 C                                       1.4097436
     7   6 C        8   6 C                                       1.3648851
     8   6 C        9   6 C                                       1.3998993
     5   6 C       10   6 C                                       1.4208151
     9   6 C       10   6 C                                       1.3721407
    13   6 C       14   6 C                                       1.3737646
    14   6 C       15   6 C                                       1.3994975
    15   6 C       16   6 C                                       1.3648645
    16   6 C       17   6 C                                       1.4093075
    13   6 C       18   6 C                                       1.4221362
    17   6 C       18   6 C                                       1.4238901
    18   6 C       19   6 C                                       1.4135477
    19   6 C       20   6 C                                       1.3674624
    20   6 C       21   6 C                                       1.4012844
    17   6 C       22   6 C                                       1.4106496
    21   6 C       22   6 C                                       1.3653376
    12   6 C       23   7 N                                       1.4520188
    23   7 N       24   6 C                                       1.3524201
    25   6 C       26   6 C                                       1.3712815
    26   6 C       27   6 C                                       1.4089559
    27   6 C       28   6 C                                       1.3678363
    28   6 C       29   6 C                                       1.4845693
    25   6 C       30   8 O                                       1.3545231
    28   6 C       30   8 O                                       1.3446778
    24   6 C       31   8 O                                       1.2266340
    23   7 N       32   6 C                                       1.4531799
    33   6 C       34   8 O                                       1.3298697
    33   6 C       35   8 O                                       1.2022755
    11   6 C       36   7 N                                       1.4562201
    32   6 C       36   7 N                                       1.4448130
    36   7 N       37   6 C                                       1.3696348
    38   6 C       39   6 C                                       1.3713374
    39   6 C       40   6 C                                       1.4100734
    40   6 C       41   6 C                                       1.3674943
    41   6 C       42   6 C                                       1.4849350 (max)
    38   6 C       43   8 O                                       1.3561896
    41   6 C       43   8 O                                       1.3452657
    37   6 C       44   8 O                                       1.2159501
     1   6 C       45   1 H                                       1.0809383
     2   6 C       46   1 H                                       1.0801254
     3   6 C       47   1 H                                       1.0801571
     4   6 C       48   1 H                                       1.0778693
     7   6 C       49   1 H                                       1.0806012
     8   6 C       50   1 H                                       1.0800030
     9   6 C       51   1 H                                       1.0803918
    11   6 C       52   1 H                                       1.0952002
    12   6 C       53   1 H                                       1.1011329
    14   6 C       54   1 H                                       1.0804276
    15   6 C       55   1 H                                       1.0800717
    16   6 C       56   1 H                                       1.0804664
    19   6 C       57   1 H                                       1.0765062
    20   6 C       58   1 H                                       1.0791201
    21   6 C       59   1 H                                       1.0799030
    22   6 C       60   1 H                                       1.0808027
    26   6 C       61   1 H                                       1.0696780
    27   6 C       62   1 H                                       1.0700777
    29   6 C       63   1 H                                       1.0876461
    29   6 C       64   1 H                                       1.0901285
    29   6 C       65   1 H                                       1.0854858
    32   6 C       66   1 H                                       1.1009430
    34   8 O       67   1 H                                       0.9699434 (min)
    39   6 C       68   1 H                                       1.0697964
    40   6 C       69   1 H                                       1.0704678
    42   6 C       70   1 H                                       1.0895475
    42   6 C       71   1 H                                       1.0853853
    42   6 C       72   1 H                                       1.0887110

 * 5 distinct bonds (by element types)

   Z      Z             #   av. dist./Å        max./Å        min./Å
   1 H    6 C          27     1.0822809     1.1011329     1.0696780
   6 C    6 C          30     1.3988738     1.4849350     1.3648645
   6 C    7 N           6     1.4213811     1.4562201     1.3524201
   1 H    8 O           1     0.9699434     0.9699434     0.9699434
   6 C    8 O           8     1.2969232     1.3561896     1.2022755


optimized geometry written to: xtbopt.xyz


           -------------------------------------------------
          | TOTAL ENERGY             -121.684485595972 Eh   |
          | GRADIENT NORM               0.000844518504 Eh/α |
          | HOMO-LUMO GAP               2.839120731602 eV   |
           -------------------------------------------------

------------------------------------------------------------------------
 * finished run on 2022/03/17 at 01:48:16.750     
------------------------------------------------------------------------
 total:
 * wall-time:     0 d,  0 h,  0 min, 20.141 sec
 *  cpu-time:     0 d,  0 h,  7 min, 14.625 sec
 * ratio c/w:    21.580 speedup
 SCF:
 * wall-time:     0 d,  0 h,  0 min,  0.593 sec
 *  cpu-time:     0 d,  0 h,  0 min,  9.746 sec
 * ratio c/w:    16.433 speedup
 ANC optimizer:
 * wall-time:     0 d,  0 h,  0 min, 19.395 sec
 *  cpu-time:     0 d,  0 h,  7 min,  0.629 sec
 * ratio c/w:    21.687 speedup

