72
 energy: -121.652783342346 gnorm: 0.132627341940 xtb: 6.3.3 (4ae9cef)
C         1.45860100000000   -5.38370500000000    0.26463800000000
C         0.47174100000000   -5.73634200000000   -0.65191000000000
C        -0.20505000000000   -4.74348100000000   -1.34308200000000
C         0.10759100000000   -3.39951400000000   -1.11960200000000
C         1.10399400000000   -3.00174100000000   -0.19434600000000
C         1.78094400000000   -4.03726700000000    0.50335800000000
C         2.77360000000000   -3.72404600000000    1.44161500000000
C         3.10827600000000   -2.40317500000000    1.71420600000000
C         2.45489500000000   -1.37507400000000    1.04670900000000
C         1.45854200000000   -1.64493000000000    0.08246300000000
C         0.74320600000000   -0.46707400000000   -0.58690600000000
C        -0.32899700000000    0.12189300000000    0.37076100000000
C        -1.67033200000000   -0.60502300000000    0.29210200000000
C        -1.92132000000000   -1.53063400000000    1.33194300000000
C        -3.09414400000000   -2.27287900000000    1.38519800000000
C        -4.04928300000000   -2.11596700000000    0.39199500000000
C        -3.83816300000000   -1.23042600000000   -0.67098600000000
C        -2.63992400000000   -0.46697900000000   -0.74390800000000
C        -2.49836800000000    0.37362100000000   -1.86742300000000
C        -3.48075000000000    0.47719900000000   -2.85650900000000
C        -4.64554600000000   -0.26542500000000   -2.75548700000000
C        -4.82087500000000   -1.11587200000000   -1.66830300000000
N        -0.30507600000000    1.56245900000000    0.10233800000000
C        -1.00340000000000    2.56556700000000    0.76258600000000
C        -1.89775200000000    2.23234700000000    1.85251500000000
C        -3.07956100000000    2.83186300000000    2.24909900000000
C        -3.50802900000000    2.16410300000000    3.42015100000000
C        -2.54659000000000    1.21844600000000    3.69606900000000
C        -2.39400300000000    0.21019300000000    4.76342600000000
O        -1.55968600000000    1.26370500000000    2.75821700000000
O        -0.86036400000000    3.73574900000000    0.40255500000000
C         0.93924900000000    1.94523900000000   -0.56773700000000
C         0.64016200000000    2.73053200000000   -1.87853100000000
O         1.06573600000000    4.01264600000000   -1.84654200000000
O         0.09621500000000    2.30012700000000   -2.88562000000000
N         1.61236500000000    0.67965200000000   -0.87252300000000
C         2.73447200000000    0.54900000000000   -1.68451200000000
C         3.65971600000000    1.66323100000000   -1.79821900000000
C         4.69303400000000    1.87298900000000   -2.69443800000000
C         5.29927100000000    3.10325800000000   -2.34734400000000
C         4.61333300000000    3.57153300000000   -1.24940800000000
C         4.73095200000000    4.78310000000000   -0.41417300000000
O         3.63233700000000    2.69498600000000   -0.90113700000000
O         2.94085100000000   -0.50104500000000   -2.29300700000000
H         1.98019800000000   -6.17665800000000    0.79664200000000
H         0.23449100000000   -6.78219400000000   -0.82420200000000
H        -0.97778700000000   -5.00536800000000   -2.06148100000000
H        -0.45670900000000   -2.66966500000000   -1.69350100000000
H         3.29867300000000   -4.51518400000000    1.97270600000000
H         3.88019400000000   -2.17607800000000    2.44483700000000
H         2.73411600000000   -0.35004600000000    1.28255800000000
H         0.32368400000000   -0.74743900000000   -1.55778800000000
H         0.04469900000000    0.04742400000000    1.40127800000000
H        -1.18723700000000   -1.67869600000000    2.12386900000000
H        -3.26002100000000   -2.97332900000000    2.19883000000000
H        -4.96287500000000   -2.70366700000000    0.44896500000000
H        -1.60733700000000    0.96783900000000   -2.00702000000000
H        -3.32375900000000    1.14030700000000   -3.70380700000000
H        -5.41257800000000   -0.18838700000000   -3.52083500000000
H        -5.73781500000000   -1.69832300000000   -1.60749900000000
H        -3.56632600000000    3.65238900000000    1.73985500000000
H        -4.40117500000000    2.35717500000000    3.99844300000000
H        -1.33846000000000    0.05125000000000    5.00445400000000
H        -2.82351500000000   -0.74530100000000    4.44765500000000
H        -2.90466400000000    0.53029800000000    5.67674100000000
H         1.54486500000000    2.53955600000000    0.12228600000000
H         0.76969600000000    4.38919900000000   -2.69998300000000
H         4.96274700000000    1.20565600000000   -3.50200700000000
H         6.13356500000000    3.58769400000000   -2.83541400000000
H         4.99516100000000    4.51494400000000    0.61343200000000
H         5.50342400000000    5.45410300000000   -0.80218900000000
H         3.78287300000000    5.32966100000000   -0.39712200000000
72
 energy: -121.668480646421 gnorm: 0.054919308693 xtb: 6.3.3 (4ae9cef)
C         1.45373668839015   -5.37991653553603    0.26037149472497
C         0.47815004947032   -5.72127417771951   -0.64502825835016
C        -0.19825046361677   -4.71699392380383   -1.33548431458581
C         0.10365612430118   -3.38833336034027   -1.11878804251245
C         1.09995639205187   -2.99186798344336   -0.19946325940335
C         1.78064743822523   -4.03218329813948    0.50245922421946
C         2.77535568237417   -3.71212640345560    1.44083436667927
C         3.09577587171567   -2.40148078484694    1.69743400205082
C         2.43460310505823   -1.37560107537300    1.02112716581868
C         1.45647171155743   -1.63859061283723    0.07222669427901
C         0.73968367055968   -0.46735512203943   -0.58616478447336
C        -0.32690882292317    0.11732558739380    0.37711544639762
C        -1.66531152532067   -0.60132718369191    0.29695352956528
C        -1.91398284347998   -1.51126536053260    1.31781867763991
C        -3.08621839892792   -2.26371787529132    1.37448893326400
C        -4.04074849358775   -2.11723773214964    0.39938416940917
C        -3.83452443778841   -1.22921145096476   -0.66776502704251
C        -2.63080942035401   -0.46069989927265   -0.74139473624011
C        -2.48437868529204    0.38227138927255   -1.86270652864702
C        -3.45901511598678    0.47657057616384   -2.83609443010127
C        -4.63398127822192   -0.26701909205454   -2.74136473146996
C        -4.81450559109558   -1.10954678262268   -1.67072981134849
N        -0.30395284679603    1.55519932305076    0.09617903987291
C        -1.00391788948705    2.55277876502764    0.73838943282556
C        -1.90341659862829    2.21316263040382    1.83804664752025
C        -3.07144197383319    2.81963287366819    2.23673158994181
C        -3.49025852963665    2.16082216172744    3.41187357498437
C        -2.54033457837083    1.21366075607012    3.68470094342820
C        -2.39784669333386    0.20955579743500    4.76506910268906
O        -1.57924687775389    1.23601402666680    2.73127992467174
O        -0.85510744807271    3.71432730885330    0.38542841653600
C         0.93777251372459    1.93617144447235   -0.57026474946501
C         0.64073008651735    2.72097080646831   -1.86417292350454
O         1.07824509273302    3.98620260966622   -1.84020740047077
O         0.09427373743122    2.27294538182415   -2.83908764926728
N         1.61444364297000    0.67952715190995   -0.85564642106984
C         2.71442873152644    0.54404547749086   -1.68099131819060
C         3.64241269757748    1.66701601465140   -1.79266678186105
C         4.67310495231215    1.86756599219845   -2.68451427500442
C         5.27982749408940    3.09318854424668   -2.33720852980612
C         4.60047950850590    3.56595370989294   -1.24591775256568
C         4.73385246992045    4.78534259395375   -0.41572820790510
O         3.61107375888546    2.70620040358481   -0.91113959206975
O         2.93370412499758   -0.51171848731771   -2.25525204283448
H         1.97811409229198   -6.16263811201797    0.79398194874584
H         0.23978453493002   -6.76285594581701   -0.82022281723607
H        -0.96658510616380   -4.97956148228384   -2.05112600232335
H        -0.45335055702983   -2.65546788709811   -1.68443493009902
H         3.29354286951797   -4.50356361598273    1.96812325532751
H         3.86183049624512   -2.16723022019515    2.42604186950731
H         2.70760868599621   -0.35218376763452    1.24821099925162
H         0.29663596399558   -0.77199820470090   -1.54068835832646
H         0.04799656601069   -0.00368750896243    1.40453045650502
H        -1.17868575290126   -1.65223629479941    2.10089646766397
H        -3.24549149430796   -2.95969544161490    2.18791995816519
H        -4.95372609636127   -2.69715403024995    0.45095157987723
H        -1.59238333844514    0.97288502864567   -1.99471319255035
H        -3.30307452511462    1.13407705118825   -3.68084201516526
H        -5.39683586828911   -0.18860154356515   -3.50594751755656
H        -5.72365171310458   -1.69366524748227   -1.60269796123944
H        -3.55635684509729    3.63516293685822    1.73442342160456
H        -4.37517652529497    2.35876143621279    3.98753905160662
H        -1.34424906506597    0.05035094704366    4.99364202902869
H        -2.82588395760323   -0.74457521811950    4.45258202202578
H        -2.90879820517984    0.53611434046946    5.67010399691577
H         1.53763236494125    2.57135482352086    0.09415833141311
H         0.78446498853188    4.39380016913539   -2.67653566511344
H         4.94320180266762    1.20666615060970   -3.48665911473478
H         6.11056329064228    3.56953823246634   -2.82422893012095
H         4.99054102997420    4.51892303885225    0.61061696242767
H         5.50735806047760    5.44233218139005   -0.81012703468849
H         3.78674527134901    5.32616299947059   -0.39563561924076
72
 energy: -121.673586567315 gnorm: 0.015209916204 xtb: 6.3.3 (4ae9cef)
C         1.44794203976970   -5.36997399662486    0.25433958732332
C         0.47824244971756   -5.70519085377895   -0.64372907846948
C        -0.20042651388963   -4.69273203977168   -1.33389089911536
C         0.09617577799779   -3.37544969908508   -1.12130121663778
C         1.09571374494635   -2.98207333811466   -0.20609807051567
C         1.77938093556374   -4.02080836446193    0.49796187754243
C         2.77629604773482   -3.69332649035325    1.43712417558771
C         3.08856076109003   -2.38880636297921    1.68217625373028
C         2.42039839151916   -1.36585936408490    0.99733362203264
C         1.45338741539870   -1.63081100319495    0.06187665479940
C         0.73267171837931   -0.46843171760393   -0.58943688470383
C        -0.32239272064283    0.11208628579822    0.38384347889690
C        -1.65789309806159   -0.59945447202823    0.30741352473900
C        -1.90222142445628   -1.49900599238077    1.31576285030977
C        -3.07538536928271   -2.25814768902671    1.37473153561456
C        -4.02746964375582   -2.11591208926831    0.40964088254951
C        -3.82349021854628   -1.22441370740901   -0.66050622556887
C        -2.61936235268081   -0.45443187173658   -0.73380511798507
C        -2.46436754087076    0.39189462648375   -1.85309744870619
C        -3.43047935190198    0.48255883712244   -2.81821819447178
C        -4.61413153945151   -0.26162589256319   -2.72987487920893
C        -4.80024977519773   -1.09960537087398   -1.66991067404976
N        -0.29842171698602    1.54286582032019    0.09765291531548
C        -1.00401412740973    2.53597131655836    0.71578016733084
C        -1.91306410106911    2.18355562026431    1.81552624031591
C        -3.06817166401895    2.80260208694192    2.21642453440549
C        -3.47783439074227    2.15433471202889    3.39949029423212
C        -2.53926538142775    1.19727762403070    3.66151668331577
C        -2.40225677483390    0.20394029467358    4.75868800521285
O        -1.59259780163155    1.20735847067529    2.70321149592454
O        -0.86247432897016    3.69320650116609    0.36089019016545
C         0.93932099437956    1.92441347271286   -0.56537530794424
C         0.64083536537317    2.70103574799108   -1.85651626962921
O         1.09511074351195    3.94938285395436   -1.82988470767024
O         0.07478001006103    2.23672836444824   -2.80670963879274
N         1.61397884446243    0.67459019810911   -0.83543875611894
C         2.69997154219274    0.52798087546090   -1.66366597914468
C         3.61642698637653    1.66928414089424   -1.78457473856364
C         4.64284653263863    1.86038796077649   -2.67734519885062
C         5.25518884620467    3.08136988475186   -2.32881359723436
C         4.57599341250731    3.55995184666943   -1.24387577557344
C         4.73010193019934    4.78534825088326   -0.41843125198945
O         3.58551916392808    2.71071334799425   -0.91186494837495
O         2.92814114428673   -0.52911250434681   -2.22024611859197
H         1.97927140158485   -6.14090980919912    0.79383014214045
H         0.23617099348605   -6.74264071541356   -0.82346697993448
H        -0.96708344455212   -4.95865885973461   -2.04614648691333
H        -0.45613734606196   -2.63450355345342   -1.67583480079157
H         3.28617280875190   -4.48915877735617    1.96057632049639
H         3.85019916364983   -2.14267308729569    2.40775517207207
H         2.68812734560742   -0.34160540171466    1.21459349327157
H         0.27480738322043   -0.77954942000362   -1.53478229062631
H         0.05677642110093   -0.03636131778661    1.40691023930833
H        -1.16674859533245   -1.63330247480437    2.09506952146888
H        -3.22520928517545   -2.95256347315342    2.18798980817714
H        -4.94234369595106   -2.68884540633284    0.44942210792167
H        -1.56820599958630    0.97683034064280   -1.97226644234967
H        -3.27572315945425    1.13578364853908   -3.66298822822467
H        -5.37069135054303   -0.17835519015900   -3.49694650055823
H        -5.70339687691442   -1.68791967180124   -1.59195395341852
H        -3.54872577136648    3.62015041983829    1.72198207799581
H        -4.34950064074347    2.36861258685148    3.98303390173958
H        -1.34985040777795    0.04802245259972    4.98382511938572
H        -2.83031839114160   -0.75146217830021    4.45524531732179
H        -2.91590863713540    0.54665731522088    5.65236425182373
H         1.53069783538230    2.58775804082998    0.08652022074262
H         0.80843689487359    4.40097159973362   -2.64479497302785
H         4.91637067406420    1.19957905530043   -3.47269356527051
H         6.08929060425116    3.54678658372848   -2.81304332902300
H         4.98838068477342    4.52031048171784    0.60616882378923
H         5.50717517910258    5.42449083179554   -0.82551151911944
H         3.78694924947530    5.32888865868776   -0.39363743983047
72
 energy: -121.675054743545 gnorm: 0.012655301182 xtb: 6.3.3 (4ae9cef)
C         1.44399532744023   -5.35951488895596    0.24913325890521
C         0.47265223376205   -5.69343400687353   -0.64709921316730
C        -0.20982867107666   -4.67971055210868   -1.33605272908988
C         0.08690621085023   -3.36428745498392   -1.12324785100499
C         1.09172310641557   -2.97593997209354   -0.21093465160448
C         1.77750252619333   -4.01003841543426    0.49233857568476
C         2.77662605164651   -3.67870189227291    1.43050779135574
C         3.09001625120206   -2.37440073856744    1.67141415662890
C         2.41957786108627   -1.35404028912209    0.98345838523294
C         1.45103132109128   -1.62624821280398    0.05359768511824
C         0.72642779479153   -0.46827601942196   -0.59109799279140
C        -0.31646961239236    0.10862177561285    0.39277860196758
C        -1.64970619755395   -0.60036551002945    0.32216118260762
C        -1.89256660094580   -1.50019676341432    1.32878797604200
C        -3.06652135344059   -2.26025515883769    1.38471478577809
C        -4.01583933238072   -2.11423579146163    0.41864977025194
C        -3.80984361233247   -1.21924962254048   -0.65036458918106
C        -2.60760228706759   -0.45134189033768   -0.72071736760416
C        -2.44329544100581    0.39822245178507   -1.83714141764018
C        -3.40378230082100    0.49164870947165   -2.80505303803154
C        -4.59097347606239   -0.25130667022310   -2.72150783006179
C        -4.78324407624141   -1.09013599128039   -1.66401156361771
N        -0.29454870244972    1.53383871178994    0.10303107851713
C        -1.01543526939027    2.52432767507808    0.69736179597789
C        -1.92721035656047    2.16278205210741    1.79364418416874
C        -3.07314690271632    2.79240803172060    2.20138553844577
C        -3.47738401593730    2.14788634256686    3.38882754303428
C        -2.54420347662023    1.18249115642046    3.64119237369178
C        -2.40793222340086    0.19687716368943    4.74692109257758
O        -1.60771859226170    1.18283246296069    2.67515184273323
O        -0.88073753486920    3.68170285225323    0.33908584993900
C         0.94012575957569    1.91771856647500   -0.55904364473485
C         0.63568764388137    2.69118150086040   -1.85188717817143
O         1.11442926371072    3.92649498899119   -1.82740880834293
O         0.05426804529190    2.22111137021840   -2.79117905299159
N         1.61063024652274    0.66999845782343   -0.82651342077692
C         2.69148966905221    0.51550117460235   -1.65414491875024
C         3.59846675869745    1.66563413089977   -1.77933906536936
C         4.62570098011391    1.84937161371636   -2.67058902184965
C         5.23694506783932    3.07241822987652   -2.32663474971045
C         4.55686472613591    3.55369539297159   -1.24320001012775
C         4.72294453842581    4.78217566421047   -0.42265958118096
O         3.56542783260394    2.70857478802413   -0.91062190030329
O         2.93122067170172   -0.54721258001841   -2.19461878537984
H         1.98012576232015   -6.12522362179709    0.79163888854910
H         0.22726450128818   -6.72899110040842   -0.82979718296778
H        -0.97821807649734   -4.94808129911269   -2.04533198764021
H        -0.46430973003713   -2.61668865740658   -1.67054299736980
H         3.28271925064444   -4.47733428978467    1.95299117902848
H         3.85071444739114   -2.11942220740338    2.39425097250230
H         2.68453689838420   -0.32773445615586    1.19422410615078
H         0.26194731703838   -0.77212929545439   -1.53455662151873
H         0.07170876813915   -0.04593013303073    1.41113712152150
H        -1.15710493784359   -1.63340139912628    2.10818108353123
H        -3.21200626638361   -2.95569472543261    2.19730002764613
H        -4.93317376838997   -2.68371578777819    0.44910128638288
H        -1.54327422645588    0.97874881864835   -1.94588374419363
H        -3.24671017700604    1.14391671778575   -3.65020904428369
H        -5.34176430053997   -0.16285300783711   -3.49307268136240
H        -5.68525599372564   -1.68012046248775   -1.58369671708617
H        -3.55182497860641    3.61227621327129    1.70955123935956
H        -4.33918983105707    2.37449987257236    3.98203803358807
H        -1.35583635135685    0.04224828102324    4.97366458517113
H        -2.83808218460880   -0.76070030676962    4.45367140343309
H        -2.92225444298090    0.55298073294790    5.63455016144682
H         1.52689768366953    2.58713534196638    0.09099388797093
H         0.83586413367663    4.40431606550779   -2.62932829655510
H         4.89749932939511    1.18673055606466   -3.46457708938310
H         6.07237040663868    3.53340097057117   -2.81169978883943
H         4.98699894229051    4.51977042968612    0.60110309170166
H         5.50312601505893    5.40989092003671   -0.84076160789940
H         3.78455995704919    5.33348198655943   -0.39402039605932
72
 energy: -121.675995590064 gnorm: 0.008282108032 xtb: 6.3.3 (4ae9cef)
C         1.43939904038732   -5.34966286989896    0.24289446722103
C         0.46344725285984   -5.68160112749420   -0.65096718558929
C        -0.22402188409546   -4.66847160355660   -1.33692036412441
C         0.07495647613962   -3.35292711257220   -1.12357443603661
C         1.08701347170169   -2.97096246008690   -0.21526333564975
C         1.77528135714480   -4.00053802611085    0.48533278016890
C         2.77780268790819   -3.66704093181586    1.42009144959560
C         3.09567035843062   -2.36209933345683    1.65804125838150
C         2.42362197654303   -1.34419794207437    0.97019196270256
C         1.44921280589081   -1.62343389556051    0.04521600339288
C         0.72103604984217   -0.46683723446117   -0.59048710116236
C        -0.30860818141122    0.10545783339927    0.40618114832478
C        -1.63887853920552   -0.60426085338793    0.34423868697637
C        -1.88179647727217   -1.50793831812333    1.35004157066883
C        -3.05721147229870   -2.26610375225944    1.40018342716550
C        -4.00335956817777   -2.11329786710780    0.43044074361587
C        -3.79341069889539   -1.21460235001664   -0.63530243608528
C        -2.59273538155420   -0.45057211629912   -0.69988386859216
C        -2.41733529730260    0.40254655531274   -1.81222753830612
C        -3.37132479705951    0.50190859115522   -2.78646824710200
C        -4.56088134104036   -0.23829339488552   -2.70909984635981
C        -4.76195975980006   -1.07959483925481   -1.65362188933928
N        -0.29125330001481    1.52597019326524    0.11285153945716
C        -1.03792068789056    2.51343703876974    0.67548514754643
C        -1.95049593442311    2.14521537916844    1.76697183708217
C        -3.08741796726954    2.78457272795607    2.18549934393963
C        -3.48525019197764    2.14175325786050    3.37660155314303
C        -2.55663620223948    1.16795750864160    3.61784724841773
C        -2.41902564007467    0.18813571658758    4.72831187866636
O        -1.62868789579553    1.16346296343586    2.64470331379299
O        -0.91981675377730    3.66947556441703    0.30253821853040
C         0.93981424663097    1.91331155689609   -0.55138436823249
C         0.63536916410870    2.68898473255033   -1.84680474927935
O         1.13888488377380    3.91185926478137   -1.82392316233705
O         0.03659060288363    2.22195055652489   -2.77714055389890
N         1.60675117244166    0.66654499775724   -0.82146582908678
C         2.68838463341056    0.50313058345522   -1.64277905777108
C         3.58554823032712    1.65876330908701   -1.77500336621616
C         4.61102975327334    1.83847693714138   -2.66802197442550
C         5.22180667000129    3.06363124401565   -2.32839962181686
C         4.54067903868410    3.54735236341798   -1.24580436628817
C         4.71513166453934    4.77845126383388   -0.43147514684695
O         3.55218689287547    2.70186037875864   -0.90805433084523
O         2.93526395093860   -0.56293919260906   -2.17255708378111
H         1.97907919563363   -6.11363941290555    0.78491803211773
H         0.21475123617570   -6.71581012012990   -0.83654734075569
H        -0.99624441088528   -4.93833697135656   -2.04206278428515
H        -0.47697689105087   -2.59984180438084   -1.66364854171717
H         3.28244429944550   -4.46711423692185    1.94224740366042
H         3.85816228829703   -2.09993083068677    2.37645054050745
H         2.68769392370617   -0.31592195102402    1.17376436451244
H         0.24936970606212   -0.75877804729520   -1.53342890033692
H         0.09365331709306   -0.04866188463311    1.41866875518444
H        -1.14639746013455   -1.64235473435342    2.12998552535033
H        -3.20115447347126   -2.96409030060208    2.21098810820608
H        -4.92282759267819   -2.68046091965567    0.45231786449211
H        -1.51416098773136    0.97869787799782   -1.91076956109986
H        -3.20848857088073    1.15496235922954   -3.63062749120342
H        -5.30491766834950   -0.14326587190880   -3.48651312535172
H        -5.66534198368639   -1.66838588012079   -1.57618864345162
H        -3.56467456304625    3.60684789029714    1.69539735788380
H        -4.33693269211786    2.37843451052322    3.98078055462739
H        -1.36710958198972    0.03532621439367    4.95895065107905
H        -2.84918979476294   -0.77239739469565    4.44459223410368
H        -2.93431662646935    0.55423688477599    5.61142505861909
H         1.52401833863020    2.58087516786139    0.10009368511948
H         0.87186138682434    4.41167318628298   -2.61450697933697
H         4.87893793490142    1.17187544783509   -3.46067276430239
H         6.05731298957063    3.52218681226453   -2.81559392620390
H         4.98723251099805    4.51993956896777    0.59151161480580
H         5.49623387807987    5.39776866133079   -0.86071487848496
H         3.78112588267530    5.33732948175390   -0.39785653335730
72
 energy: -121.676572450916 gnorm: 0.007716071097 xtb: 6.3.3 (4ae9cef)
C         1.43473686949113   -5.34519688577498    0.23685995975577
C         0.45309966342459   -5.67370264204355   -0.65322926297537
C        -0.23852652216217   -4.66064320677016   -1.33440950467754
C         0.06395192659508   -3.34506615730660   -1.12103654049081
C         1.08334331445016   -2.96835482906270   -0.21776756479580
C         1.77391461929722   -3.99691474056821    0.47891359965362
C         2.78101897648505   -3.66406616845066    1.40839942172929
C         3.10434784272123   -2.35899337630559    1.64436888866878
C         2.43119991792725   -1.34180018786733    0.95952162388125
C         1.44996276059872   -1.62293279403858    0.03953813196647
C         0.71899602140257   -0.46474606642389   -0.58688196116336
C        -0.30020272419396    0.10379098443146    0.42120388126283
C        -1.62740078935843   -0.60955528762797    0.36674820771387
C        -1.87124791306201   -1.51718772903546    1.37071813795206
C        -3.04832154311371   -2.27261426609082    1.41501208224322
C        -3.99250814106114   -2.11390542312307    0.44264499001794
C        -3.77918560648427   -1.21247658569467   -0.61965330286738
C        -2.57826784948283   -0.45192440992568   -0.67807672986434
C        -2.39418594294053    0.40392412025257   -1.78663443089796
C        -3.34266756739281    0.50944231382267   -2.76621678842233
C        -4.53377698379135   -0.22753727356553   -2.69469004761999
C        -4.74309636466081   -1.07140567376070   -1.64168109785435
N        -0.28915860358022    1.52229752047001    0.12471779587932
C        -1.06522885568950    2.50627364761307    0.65423811472686
C        -1.97637165502359    2.13733412114063    1.74363674922638
C        -3.10785665335792    2.78140548400860    2.17169662309754
C        -3.50000777466774    2.13848962988696    3.36452528465132
C        -2.57345891483336    1.16009040876197    3.59788548051413
C        -2.43385179546051    0.18142440992055    4.70806537035021
O        -1.65175423362126    1.15435824367226    2.61937457421772
O        -0.96758939069088    3.65801823969319    0.25841298929147
C         0.93869578184783    1.91354047627496   -0.54263569436270
C         0.63350351018083    2.69713828620526   -1.83661142143799
O         1.16325857475910    3.90855767672450   -1.81538503253539
O         0.02615497627012    2.23871103929077   -2.76487258482447
N         1.60310314518302    0.66700771358903   -0.82124007523186
C         2.68755015774178    0.49738464788843   -1.63682663824818
C         3.58203792959558    1.65213685537663   -1.77328297046326
C         4.60520789671213    1.83043167815457   -2.66913018160535
C         5.21343766538668    3.05871400685896   -2.33519340563041
C         4.53434102962632    3.54294638956788   -1.25101272036198
C         4.71140647189949    4.77633846546783   -0.44242181650043
O         3.54968731701760    2.69530406094546   -0.90709417588762
O         2.93748254269079   -0.57211394105325   -2.15846938635733
H         1.97577037084000   -6.11116840607985    0.77475715482168
H         0.20148611206968   -6.70714625100607   -0.84041700893628
H        -1.01565000381075   -4.92974356712773   -2.03491040239557
H        -0.48958335726755   -2.58917248366126   -1.65571421868857
H         3.28668788697539   -4.46423341561570    1.92977603527700
H         3.87070428365275   -2.09475396445458    2.35805755995843
H         2.69624897622123   -0.31280566108830    1.15849738704886
H         0.23872358578597   -0.74789910915101   -1.52833180141774
H         0.11456658244379   -0.04716278367411    1.42921129392068
H        -1.13595807947820   -1.65419588015284    2.15082730783035
H        -3.19396906164597   -2.97343809414883    2.22344823973428
H        -4.91297791911934   -2.67993599613336    0.46048835682975
H        -1.48975026730284    0.97760076969121   -1.87873328925450
H        -3.17263136097644    1.16444249796132   -3.60780939835024
H        -5.27255453782633   -0.12698035965244   -3.47661319114445
H        -5.64922617143228   -1.65694016123155   -1.57056907860716
H        -3.58506251334120    3.60460411997709    1.68240125751452
H        -4.34530376500249    2.37863587069073    3.97593940820263
H        -1.38190914138796    0.03063336853576    4.94185342440225
H        -2.86136458594897   -0.78107215816759    4.42730114706627
H        -2.95082030284985    0.54899603689048    5.58955459651544
H         1.52442132619808    2.57522656863221    0.11145110355332
H         0.90948372729306    4.42125562379271   -2.60029067682835
H         4.86805968224290    1.16039851002395   -3.46112379914796
H         6.04597219759591    3.51815918418654   -2.82670918481848
H         4.99028816805444    4.52213982999966    0.58009955627668
H         5.48994013172044    5.39340660627675   -0.87949172362399
H         3.77863294962091    5.33722552915877   -0.40498462746390
72
 energy: -121.677173221254 gnorm: 0.010032256198 xtb: 6.3.3 (4ae9cef)
C         1.42847647898720   -5.34471674097208    0.22942060341299
C         0.43870861722436   -5.66793993147184   -0.65415083807751
C        -0.25671820861819   -4.65337116789401   -1.32789646353279
C         0.05154070291617   -3.33841503267763   -1.11507791400371
C         1.08002782958623   -2.96695090056606   -0.21932006960842
C         1.77327142265623   -3.99787142844079    0.47119483262455
C         2.78769139462539   -3.66853534905179    1.39262610912557
C         3.11821365191571   -2.36405844804458    1.62710048171226