60
 energy: -133.341630599853 gnorm: 0.000697228354 xtb: 6.3.3 (4ae9cef)
C        -2.19795725667286    0.70357275106173    1.83364237691725
C        -2.83924893450170   -0.58627493165625    1.39926845594091
F        -1.96027129631890   -1.49538076416519    0.93179084054263
F        -3.76381880383616   -0.43187934959431    0.43774994517070
F        -3.46954296318032   -1.20647247110217    2.40820816443661
C        -2.69848988424390    1.27173171139122    3.00169448148625
C        -2.17410357933609    2.44666697975384    3.50179368986634
C        -1.14094107334521    3.07009813683968    2.82644920159774
C        -0.66102947359550    2.52194166256806    1.65376907686106
C        -1.17574187802681    1.34017973869066    1.12541688452898
C        -0.51189233998920    0.85222974804421   -0.13987337192356
C         0.58764229742214   -0.20519142512947    0.11969179113378
C         1.91030542427201    0.48281203072473    0.35887115911065
C         2.49647297817115    0.65402307803582    1.61299211279439
C         1.92428280071512    0.22148549093396    2.93966430523319
F         1.97879613490984    1.22935872946695    3.82972599296145
F         0.65083803340675   -0.19107198026832    2.94818968938288
F         2.64296835127487   -0.78480899120620    3.47551113881746
C         3.74298236227497    1.27183388722001    1.72586245301792
C         4.40032448796271    1.75257255622963    0.61245170854432
C         3.79736575506400    1.64275743207398   -0.62989334061175
C         2.57118466095814    1.01990369421172   -0.74588982208476
N         0.56847122419199   -0.97145954473951   -1.11372937228596
C         1.52757164373939   -1.80044143765817   -1.60751997668385
C         2.67390413305876   -2.04215091016414   -0.69811438558654
C         3.98997272332024   -1.79770688965960   -0.94965281096183
C         4.80584426297542   -2.14151195124214    0.14987142546723
Br        6.66439109417517   -1.83118050438687    0.17483736153376
C         4.12044571163967   -2.67600365093752    1.19539951809165
S         2.44069217768490   -2.75638192853655    0.86352148278598
O         1.45197440250072   -2.28193852697200   -2.71633293627252
C        -0.71311442655042   -0.88817216787388   -1.76893338020221
C        -1.53101767173218   -2.19470824355114   -1.60381852990210
O        -0.83667426269061   -3.14347462245721   -0.99977949794432
O        -2.65208721633518   -2.32045907047283   -2.00346328823369
N        -1.36648114062021    0.24122866771532   -1.14753494766042
C        -2.46494280019834    0.93816276739543   -1.56072391586006
C        -3.27271318713783    0.38505401124794   -2.66223280350033
C        -4.63251976274595    0.29208242881499   -2.62597747295178
C        -5.16020567354228   -0.20960897913805   -3.83364472893812
Br       -7.00096513378853   -0.49119423080598   -4.11224614713331
C        -4.21899828792084   -0.45768614814725   -4.78242487827178
S        -2.64689664798301   -0.10389651834804   -4.20330457179164
O        -2.78475449720926    1.96375037809572   -0.99371290446844
H        -3.50186911499903    0.77851031952906    3.52615537025493
H        -2.57065337003113    2.86822347283740    4.41163307945965
H        -0.71220930277716    3.98471378735946    3.20535586343175
H         0.13553142301035    3.02508875775617    1.12509776488072
H        -0.04563688248406    1.73705979858081   -0.60174893050640
H         0.30526553213822   -0.85306669117733    0.95207061356656
H         4.18931068810416    1.37168074937759    2.70359164414495
H         5.36897306991438    2.21438354503610    0.71501733621948
H         4.28554233742091    2.03541345558476   -1.50819481179186
H         2.11644980648867    0.92166837651847   -1.72025187841234
H         4.36147492706762   -1.37307194316239   -1.86378722078986
H         4.50361910389301   -3.02192884389125    2.13408969395234
H        -0.56589589112845   -0.74715708034412   -2.85234329155588
H        -1.36357632784760   -3.95508686933279   -0.91212700287872
H        -5.21918576450011    0.54595723220678   -1.76281983776737
H        -4.35916370248848   -0.82477670918135   -5.77930756516469
