74
 energy: -126.817158027403 gnorm: 0.156945321131 xtb: 6.3.3 (4ae9cef)
C        -3.49468400000000   -0.78958500000000   -1.15953700000000
C        -4.29708800000000   -1.64647000000000   -1.92117800000000
C        -3.89248800000000   -2.96043100000000   -2.19201300000000
C        -4.68235500000000   -3.82494300000000   -2.96937500000000
C        -4.27317200000000   -5.13747700000000   -3.22090200000000
C        -3.06844100000000   -5.59968500000000   -2.69689000000000
C        -2.27340300000000   -4.75045400000000   -1.92190900000000
C        -2.67051900000000   -3.42410900000000   -1.66261000000000
C        -1.87999200000000   -2.54819500000000   -0.89070300000000
C        -2.25377500000000   -1.20713100000000   -0.66198400000000
C        -1.36675800000000   -0.29752400000000    0.18642600000000
C         0.13241600000000   -0.31256700000000   -0.24142000000000
C         1.05407600000000   -0.34608200000000    0.97637200000000
C         1.79351900000000   -1.51199300000000    1.25234300000000
C         2.62427600000000   -1.60790400000000    2.38261500000000
C         3.35995100000000   -2.77439600000000    2.65927700000000
C         4.16550700000000   -2.85260800000000    3.79779000000000
C         4.24610600000000   -1.76858800000000    4.66837800000000
C         3.52820100000000   -0.60115400000000    4.40231900000000
C         2.71472200000000   -0.50624200000000    3.26287700000000
C         1.98424200000000    0.65713600000000    2.98558800000000
C         1.16560700000000    0.73675500000000    1.85797600000000
N         0.30851200000000    0.91263700000000   -1.03751300000000
C         1.46495200000000    1.35200000000000   -1.63739100000000
C         2.62743500000000    0.45023400000000   -1.76314200000000
C         2.52271900000000   -0.76279700000000   -2.45919500000000
C         3.64359100000000   -1.58230000000000   -2.58487100000000
C         4.87132200000000   -1.16132200000000   -2.06148200000000
C         4.98612700000000    0.07588000000000   -1.40851200000000
C         6.26991800000000    0.54493400000000   -0.95854000000000
N         7.30993300000000    0.95269000000000   -0.63805300000000
C         3.85592300000000    0.87990700000000   -1.25184000000000
O         1.53826200000000    2.48534200000000   -2.11531100000000
C        -0.82722500000000    1.81223500000000   -0.85932400000000
C        -1.56229000000000    2.14514300000000   -2.20728900000000
O        -0.77130000000000    2.66626400000000   -3.17963600000000
O        -2.77412700000000    2.06010000000000   -2.37808600000000
N        -1.70247100000000    1.12937500000000    0.09201000000000
C        -2.46638400000000    1.72393200000000    1.07927200000000
C        -2.51076100000000    3.19617000000000    1.16788900000000
C        -1.93712300000000    3.79513700000000    2.29436100000000
C        -1.93219500000000    5.18690300000000    2.41563900000000
C        -1.34836300000000    5.80272300000000    3.57277100000000
N        -0.86640300000000    6.28581900000000    4.51350900000000
C        -2.49568700000000    5.97482600000000    1.40491900000000
C        -3.09546200000000    5.36928100000000    0.29667600000000
C        -3.12518500000000    3.97822900000000    0.18815300000000
O        -3.03591500000000    1.09308800000000    1.96509400000000
H        -3.87663700000000    0.21156300000000   -0.96329300000000
H        -5.24535300000000   -1.26730600000000   -2.29935600000000
H        -5.62910100000000   -3.47795100000000   -3.38473000000000
H        -4.89549300000000   -5.79036900000000   -3.82625800000000
H        -2.74317500000000   -6.61847800000000   -2.89606800000000
H        -1.33769600000000   -5.13047200000000   -1.52208000000000
H        -0.96560200000000   -2.94048000000000   -0.45194600000000
H        -1.49249400000000   -0.63975600000000    1.22245200000000
H         0.36987300000000   -1.16128100000000   -0.88780200000000
H         1.72295400000000   -2.36811300000000    0.58243700000000
H         3.30840200000000   -3.63413400000000    1.99492200000000
H         4.72415200000000   -3.76027400000000    4.00684100000000
H         4.87164900000000   -1.83257200000000    5.55723000000000
H         3.61220100000000    0.23628100000000    5.09137200000000
H         2.03296100000000    1.50899800000000    3.65892100000000
H         0.61162700000000    1.65559100000000    1.69372800000000
H         1.58812700000000   -1.06751700000000   -2.92439700000000
H         3.57228500000000   -2.52470600000000   -3.12267500000000
H         5.75004000000000   -1.78992100000000   -2.19127100000000
H         3.93398700000000    1.84499200000000   -0.75591500000000
H        -0.47678700000000    2.75939800000000   -0.43438300000000
H         0.18235900000000    2.75513700000000   -2.92337100000000
H        -1.50601800000000    3.16996800000000    3.07718600000000
H        -2.48463900000000    7.05984600000000    1.48144200000000
H        -3.54836100000000    5.99043400000000   -0.47582800000000
H        -3.64301500000000    3.51833600000000   -0.65070800000000
74
 energy: -126.835355235156 gnorm: 0.059452697191 xtb: 6.3.3 (4ae9cef)
C        -3.49049517861100   -0.79134143401026   -1.16964666537188
C        -4.28879390380789   -1.63461996429915   -1.91456769538045
C        -3.89394848193382   -2.95386563647309   -2.19315190625883
C        -4.68128037925882   -3.82687726830005   -2.96870990542827
C        -4.27045941927780   -5.11882805489033   -3.21334526001228
C        -3.06149144360605   -5.58011964691877   -2.68677253702213
C        -2.27386171603294   -4.74806460371145   -1.92022976875147
C        -2.66489141872165   -3.41899943963519   -1.65829488335518
C        -1.87543381707648   -2.53599323160461   -0.89308237886127
C        -2.24990865336461   -1.21679670177910   -0.67526135854797
C        -1.36127284932236   -0.29870306284240    0.16188963319549
C         0.14153107396560   -0.31600579742311   -0.23788136106516
C         1.06212668526604   -0.35695564705930    0.97448047813266
C         1.78968893683395   -1.50501235578515    1.24343407512703
C         2.62095413003529   -1.60838353178331    2.37542234902943
C         3.35975410456095   -2.77311569633862    2.66081058436777
C         4.15272930604169   -2.84526065026622    3.78583292129138
C         4.23749446300346   -1.75854403659876    4.65948558869859
C         3.53214123285260   -0.60391713746246    4.40186006690597
C         2.71281592232451   -0.50305464184079    3.26216853430303
C         1.97320286251232    0.65701853457536    2.97394857401279
C         1.16780016728949    0.72872202563479    1.85774613953594
N         0.30443229828451    0.91015301080647   -1.02912250073732
C         1.45151127162407    1.34435115069248   -1.61816801343277
C         2.61640176576612    0.43128038877695   -1.72887052957620
C         2.52612544056460   -0.76878715833136   -2.43371916667265
C         3.65147500572390   -1.56711538020758   -2.58428294102598
C         4.87139964008686   -1.15832127345520   -2.06572836683448
C         4.97900540912237    0.07337994044179   -1.41667527635258
C         6.24819857320463    0.53799976776199   -0.96434149880460
N         7.27176359155167    0.93175621941439   -0.64372388072643
C         3.84646437353772    0.86852909783411   -1.24601281841900
O         1.52756086186702    2.47633755315847   -2.09587609616375
C        -0.83415240682334    1.81130578944407   -0.85521503826924
C        -1.56503813809581    2.15769810722768   -2.19242154593768
O        -0.79691531643981    2.65038275634323   -3.16447185554444
O        -2.74922400988745    2.03225140866810   -2.34310344558631
N        -1.69405379452531    1.12448200336116    0.08986164150391
C        -2.43797671674742    1.71012707638909    1.08341216443715
C        -2.48391278904409    3.19792893991749    1.15211374864440
C        -1.93109028720798    3.79562255131132    2.28243795484889
C        -1.93710729087504    5.18419977788296    2.40960769913654
C        -1.35824569034927    5.79253748931621    3.55867945390229
N        -0.87939905290156    6.27015662545965    4.48039799974992
C        -2.50070926916463    5.97181889030920    1.40419510804179
C        -3.09859382003639    5.36710977645399    0.30839897647934
C        -3.10697804176728    3.98351355731623    0.18489078044929
O        -3.01258106692581    1.05668810039885    1.93502964609064
H        -3.85090389485694    0.20954504473452   -0.97349672558448
H        -5.23417250515045   -1.26513392134327   -2.28896303578547
H        -5.62040084831876   -3.47861344781989   -3.38020989407419
H        -4.88687209043688   -5.77513282665860   -3.81433839737168
H        -2.74174082305981   -6.59614492355597   -2.88368367403516
H        -1.34086024836778   -5.12335502293462   -1.52064702958799
H        -0.96135938747910   -2.92200488160613   -0.45821284366930
H        -1.48075250955452   -0.61670096970746    1.20711756224599
H         0.36275945525541   -1.17234637622028   -0.87893984477101
H         1.71833038653317   -2.35563340563664    0.57662270168193
H         3.30499221116912   -3.62487807590112    1.99552799576858
H         4.71179677124518   -3.74794252568945    3.99492951092375
H         4.86016825259675   -1.82550806438206    5.54289964305953
H         3.60915958687600    0.23105722540644    5.08558899055615
H         2.02921064655431    1.50546385826028    3.64294796111663
H         0.61302904335888    1.64151898677371    1.68237819122886
H         1.59494219166002   -1.06544691884625   -2.89981141609947
H         3.57882324683445   -2.50750323601476   -3.11387128794353
H         5.74640004291523   -1.78377698138214   -2.18699810412642
H         3.92417886947487    1.82977466981025   -0.75487210275948
H        -0.49144443668939    2.77246772312083   -0.44049471885730
H         0.15653030830487    2.76373574783513   -2.90070432633666
H        -1.50380785227996    3.17611815816886    3.06227446775666
H        -2.48480046332020    7.05090138215350    1.48498306048467
H        -3.54912771817333    5.98158502487110   -0.45995774132585
H        -3.61084339930588    3.52128256868428   -0.65349836624065
74
 energy: -126.839849480474 gnorm: 0.017795418769 xtb: 6.3.3 (4ae9cef)
C        -3.47662240319756   -0.78001787076882   -1.17985016277529
C        -4.27521575789106   -1.61663081149303   -1.90919875284330
C        -3.88871601720803   -2.94142532552406   -2.18960968648641
C        -4.67664342026441   -3.81975531771581   -2.96304556684205
C        -4.26640667164775   -5.10008449170617   -3.20267271014266
C        -3.05317137657480   -5.56249489238672   -2.67335291481956
C        -2.26893175870425   -4.73953088923273   -1.91559267865090
C        -2.65558300896971   -3.40731708661856   -1.65528427699274
C        -1.86221630955396   -2.52083954810710   -0.89765710387053
C        -2.23610527182396   -1.21666625451212   -0.68541767860374
C        -1.35410974355465   -0.29990579675754    0.15352508473675
C         0.14527739338508   -0.32152572133923   -0.24205918525847
C         1.06289779756484   -0.36733049863447    0.96470875573197
C         1.78515607280651   -1.50192299397114    1.22972395036551
C         2.61590915415002   -1.60619691681351    2.36399385984000
C         3.35690076580328   -2.77042646350344    2.65502866571332
C         4.14192476754842   -2.83876701177882    3.77134154666739
C         4.22785923260611   -1.74829952482479    4.64827233937039
C         3.52842520760768   -0.60257560766722    4.39443253243207
C         2.70670700077402   -0.49920067490605    3.25279171129051
C         1.96144615817047    0.65947292033936    2.95561918559720
C         1.16381078926039    0.72471532134377    1.84754410100484
N         0.30377040822821    0.90735795279916   -1.02064344404295
C         1.44107464325965    1.34074309608797   -1.59764367614267
C         2.60469316524925    0.41790772992553   -1.69936360900853
C         2.52094454299814   -0.77690782987543   -2.40686231673565
C         3.64869064952314   -1.56400663280883   -2.57336645858467
C         4.86720608536215   -1.15981376470369   -2.06476597243110
C         4.96695726008850    0.06667690114549   -1.41114425241054
C         6.22787555737217    0.52995998840935   -0.96196044023996
N         7.25513011507853    0.91804126844417   -0.63619739178888
C         3.83444716555585    0.85686918427994   -1.22978069124215
O         1.51899412922148    2.47181759970752   -2.07720042885102
C        -0.83799252403886    1.80584388533623   -0.85056076363769
C        -1.57232908641658    2.12776449082304   -2.18947670658059
O        -0.82686819039228    2.66107965137015   -3.13314347843580
O        -2.75316363482562    2.00339738879324   -2.30168160735669
N        -1.68705033663290    1.11754923534117    0.08658818895752
C        -2.42432504148468    1.69322612640714    1.08040713827026
C        -2.46016565162248    3.19137317170932    1.13532176578648
C        -1.91686205720673    3.78922772621933    2.26614656563773
C        -1.93467080248828    5.17609702173004    2.39801940645754
C        -1.36067156954895    5.78052409731171    3.54253427058417
N        -0.88459794277549    6.26127357318826    4.46725824527134
C        -2.50622338373006    5.96506078101011    1.40054272404351
C        -3.09440839251232    5.35903537082373    0.30758180391635
C        -3.08477845430028    3.97896138315581    0.17330282367559
O        -2.98571285677925    1.02267992887408    1.91887654383096
H        -3.81355266610065    0.22460126460986   -0.98385164221569
H        -5.22279911254333   -1.25874373572788   -2.28081886352449
H        -5.61166088357057   -3.46534519732072   -3.36969085729151
H        -4.87665359931710   -5.76133368587209   -3.80070564404053
H        -2.73937619189689   -6.57746402384778   -2.87011283021973
H        -1.33660918568010   -5.10759829970116   -1.51205952804031
H        -0.94678674678101   -2.90563174308057   -0.46899355931773
H        -1.47686037452932   -0.60316884737110    1.20365177496194
H         0.35591979225793   -1.18193585934076   -0.88156811315374
H         1.71937913374660   -2.35090837484799    0.56443608021874
H         3.29524754856572   -3.61574997322586    1.98599322708668
H         4.70106327842160   -3.73788134322266    3.98399074453026
H         4.85038540323548   -1.81859689736246    5.52756132071094
H         3.59760511766683    0.23550198329683    5.07133281426594
H         2.02330398303882    1.50429306741180    3.62519792641840
H         0.60503379720166    1.63042121189309    1.65896381837559
H         1.58690141327031   -1.07455403403549   -2.86004622091208
H         3.57787788091120   -2.49477141059106   -3.11409042017734
H         5.74510602705852   -1.77484027436011   -2.19137328855773
H         3.91334174276723    1.81507867564185   -0.73975576369480
H        -0.50134339303066    2.77864155227153   -0.44441838644059
H         0.12879618791347    2.77653853216569   -2.86760864116625
H        -1.48920376628701    3.17604646943169    3.04557854647698
H        -2.49620061647185    7.04063705458865    1.49325239943135
H        -3.56144051284586    5.96762224195178   -0.45039879979888
H        -3.57003365447001    3.51412477771850   -0.67049734833218
74
 energy: -126.840918427672 gnorm: 0.013815556419 xtb: 6.3.3 (4ae9cef)
C        -3.46454132843086   -0.76588196613721   -1.18378074425661
C        -4.26447755774256   -1.60139901388202   -1.90883075800629
C        -3.88044642720556   -2.92897803867927   -2.18605207886640
C        -4.67134269168237   -3.80820300310261   -2.95637080893360
C        -4.26242668683469   -5.08823614447379   -3.19402872621134
C        -3.04728477641430   -5.55265698888858   -2.66443414608209
C        -2.26115361963671   -4.72958809541346   -1.91180234015658
C        -2.64697152626822   -3.39596493476534   -1.65597206680412
C        -1.84984198011476   -2.51136580822729   -0.90128763918644
C        -2.22552507891701   -1.21088819286039   -0.68779509212305
C        -1.34846588066305   -0.30041540033169    0.15461872198920
C         0.14479723646911   -0.32360729020123   -0.25073552621485
C         1.06275113462182   -0.37219677103425    0.95027124954039
C         1.78554623500705   -1.50371772914257    1.21512320846901
C         2.61311438817773   -1.60387771063122    2.35206280312214
C         3.35376368226005   -2.76846621428888    2.64500057543576
C         4.13648455148093   -2.83501052337860    3.76102374810704
C         4.22085045368551   -1.74131608701101    4.63788979746783
C         3.52071869719255   -0.59761069836364    4.38234820692174
C         2.70028083354488   -0.49631941470130    3.23874510489119
C         1.95365763529453    0.66244352606349    2.93862531295409
C         1.15853218134706    0.72437254682768    1.83140058237167
N         0.30234905579651    0.90877529240239   -1.01811789327203
C         1.43601612356181    1.34255833577182   -1.58926749887897
C         2.59713354560334    0.41403659677907   -1.68193609308099
C         2.51124696460537   -0.78373049760501   -2.38441582727057
C         3.64023388135120   -1.56650995530247   -2.56210357900996
C         4.86150517168704   -1.16127973899937   -2.06081990781917
C         4.95772730827150    0.06080650423911   -1.39666341764472
C         6.21738642275564    0.52247417806439   -0.94884776060721
N         7.24529814872359    0.90618945813422   -0.61812763941476
C         3.82607023293883    0.85055666549477   -1.21076231359798
O         1.51505348406892    2.47221158665965   -2.07378504735662
C        -0.83994425553393    1.80532166139087   -0.84286744168672
C        -1.58529006377375    2.14321991223694   -2.17328308053525
O        -0.84115333836962    2.64784701172249   -3.12645089501002
O        -2.76450074134536    1.95922212029876   -2.28646550714599
N        -1.68159380809837    1.11383788765413    0.09043155793557
C        -2.41666293639784    1.68181459969314    1.08746442346180
C        -2.44960911328843    3.18175413435903    1.13273577703165
C        -1.90433388699861    3.78200293928948    2.25993230897089
C        -1.92707124284288    5.16874975250740    2.38972797497465
C        -1.35707298036835    5.77358455335985    3.53360196507568
N        -0.88434722050183    6.25773871278779    4.45895306106665
C        -2.51159297217820    5.95639644017676    1.39771182510806
C        -3.09178878336234    5.34659051071078    0.30263481960294
C        -3.06847571733036    3.96672386500757    0.16501332495927
O        -2.97180698835590    1.00384804901930    1.92323124562181
H        -3.78538286912038    0.24409920333148   -0.99074351225109
H        -5.21402607125848   -1.24874236479962   -2.28154627340671
H        -5.60624720374431   -3.44791691460116   -3.35899699982568
H        -4.87050296454600   -5.75318670668205   -3.78941155487279
H        -2.73889113589659   -6.56916130476461   -2.85949751307348
H        -1.32804043954147   -5.09181025248864   -1.50379764975424
H        -0.93238447314381   -2.89754655277986   -0.47754457152962
H        -1.47223418165208   -0.60426887906491    1.20417623229304
H         0.34971041916266   -1.18314525497061   -0.89330569371366
H         1.72533703693272   -2.35417136265462    0.55043631178672
H         3.28745454989874   -3.61105533742690    1.97244176381996
H         4.69642841170740   -3.73223173388156    3.97806886298587
H         4.84368812102014   -1.81300022100639    5.51642414172127
H         3.58333570430687    0.24479780191513    5.05507608497869
H         2.01764359955418    1.50630042511939    3.60956254335107
H         0.59468908684648    1.62473780599199    1.63371198720607
H         1.57282777882446   -1.08618372672594   -2.82508782326371
H         3.56886370478075   -2.49255052601364   -3.11108862861514
H         5.74353665865186   -1.76808594370032   -2.19732568097815
H         3.90579451984428    1.80631421046298   -0.71662710845298
H        -0.50447773445878    2.77907327875603   -0.43779877067629
H         0.11079502200577    2.78758663376725   -2.85009490720827
H        -1.46934795625488    3.17323528453266    3.03853313435711
H        -2.51437500136503    7.03122187572296    1.50004685289607
H        -3.56978873111992    5.95071094172056   -0.45245492158754
H        -3.53720461722381    3.49911999701047   -0.68670207209291
74
 energy: -126.841488348701 gnorm: 0.007519731216 xtb: 6.3.3 (4ae9cef)
C        -3.45762996014486   -0.75641051787897   -1.18291979156105
C        -4.25714304342945   -1.59080272141309   -1.91049761507948
C        -3.87281867349553   -2.91931837118254   -2.18402476093639
C        -4.66656068990844   -3.79805425786507   -2.95126102229731
C        -4.25927344611731   -5.08058712573736   -3.18702766396414
C        -3.04354004729456   -5.54681842072544   -2.65845274109197
C        -2.25406824618115   -4.72154676246766   -1.90959158312180
C        -2.64050805754948   -3.38767969552822   -1.65764121607993
C        -1.84161107369064   -2.50644634720755   -0.90264958739763
C        -2.22058629675577   -1.20649400645692   -0.68548423581154
C        -1.34461544215102   -0.30160129446452    0.15762544117830
C         0.14315741495150   -0.32487444010437   -0.25935752437065
C         1.06461393801150   -0.37471058427927    0.93543998864461
C         1.78912688808562   -1.50636066854892    1.20073523929171
C         2.61313480409984   -1.60163325163612    2.34002129573695
C         3.35262739996117   -2.76649923675429    2.63426821621896
C         4.13401662158885   -2.83135045326033    3.75273972054315
C         4.21558137005174   -1.73520503500899    4.62792357432975
C         3.51366883285719   -0.59164321786147    4.36917589239720
C         2.69604845963795   -0.49358030273015    3.22371093927805
C         1.94953478860350    0.66545145098639    2.92298832697949
C         1.15562232134517    0.72474589775463    1.81436476734110
N         0.29869420906622    0.90938017165202   -1.02030015907673
C         1.43195738878979    1.34483219902984   -1.58796709001070
C         2.59173617762636    0.41406330424766   -1.67082524429160
C         2.50235564065994   -0.78758293915917   -2.36782070539960
C         3.63098757300558   -1.56961548783714   -2.55097813685394
C         4.85483512072036   -1.16237914557242   -2.05430090164062
C         4.95013704509044    0.05584992443284   -1.38036862998836
C         6.21044270120319    0.51411731097335   -0.92943830682945
N         7.23734835304217    0.89209634960039   -0.59193246251232
C         3.81948633642926    0.84665145009955   -1.19263274545210
O         1.51245592220393    2.47453841769568   -2.07313376190383
C        -0.84336197657387    1.80287611368392   -0.84024405073784
C        -1.58990152708398    2.12645709749366   -2.17625014231480
O        -0.85168588699338    2.66810928062299   -3.11357292424771
O        -2.77066729873446    1.94681768908654   -2.27871132585184
N        -1.67804768086299    1.11111013701306    0.09627562825491
C        -2.41132518376257    1.67445564219626    1.09745835073937
C        -2.44417322535408    3.17290582466009    1.13636361674059
C        -1.89379074264898    3.77669856371316    2.25881897775633
C        -1.92092370103138    5.16374082537221    2.38462269001990
C        -1.34797887568556    5.77211424756597    3.52531190881720
N        -0.88269021697609    6.25683335841668    4.45307059613595
C        -2.51751619181397    5.94746570828320    1.39540804705422
C        -3.09114776249354    5.33322482605190    0.29800264826879
C        -3.05807611063495    3.95315400206176    0.16147303337556
O        -2.96085023226073    0.99458325599303    1.93594769827292
H        -3.76909841459656    0.25671744433941   -0.99135614160876
H        -5.20613426210421   -1.23884471014503   -2.28734534004365
H        -5.60236949514637   -3.43398651385965   -3.35065561089304
H        -4.86759075309797   -5.74808778637449   -3.77931465304833
H        -2.73973994864283   -6.56540057523228   -2.85095650041618
H        -1.31975069982862   -5.07929568093702   -1.49892126787302
H        -0.92269172854315   -2.89367357125484   -0.48178723190889
H        -1.46475387205466   -0.60994875407584    1.20580021803354
H         0.34325646735694   -1.18202458775220   -0.90620427285477
H         1.73263762158083   -2.35824461094893    0.53628685365752
H         3.28406963178752   -3.60815610991772    1.95974429540073
H         4.69468993578950   -3.72728935861037    3.97416089015069
H         4.83791274524849   -1.80686097738440    5.50721114031123
H         3.57110295450664    0.25401025817851    5.03938553554735
H         2.01304320504388    1.50938488388532    3.59472564490350
H         0.58727474731328    1.62090605384810    1.61019139546864
H         1.56098361129128   -1.09409985891047   -2.80046467700711
H         3.55750694900642   -2.49485971525290   -3.10219826877336
H         5.73984386977356   -1.76362332761659   -2.19977479512157
H         3.89959531641582    1.79981168672730   -0.69245544070292
H        -0.50505078241694    2.77684941021084   -0.43850141647869
H         0.10166563949226    2.79637867149245   -2.83810538195020
H        -1.45015690881659    3.17158088907153    3.03640489506847
H        -2.53269375393447    7.02213262870607    1.50293218401380
H        -3.57333700119858    5.93298911184398   -0.45893565780978
H        -3.51729579162810    3.48255333496197   -0.69423066461636
74
 energy: -126.841728995666 gnorm: 0.005347601525 xtb: 6.3.3 (4ae9cef)
C        -3.45585123368126   -0.75339256959460   -1.18062224279019
C        -4.25346800986808   -1.58565779757363   -1.91364311175956
C        -3.86804008310293   -2.91397202370491   -2.18465700544357
C        -4.66353961797243   -3.79234579538268   -2.94937396630894
C        -4.25803239046651   -5.07684156451706   -3.18215223845116
C        -3.04241494305513   -5.54401040683734   -2.65516514234572
C        -2.25019115642481   -4.71731648071498   -1.90925307759063
C        -2.63741971157076   -3.38376742150783   -1.65925919110821
C        -1.83866711131703   -2.50490606009747   -0.90263274765113
C        -2.22030707994588   -1.20502152979164   -0.68286994638389
C        -1.34201159342051   -0.30282129646999    0.15809718705601
C         0.14247192486143   -0.32498155500596   -0.26801453065984
C         1.06838438741229   -0.37606903266445    0.92204963234842
C         1.79427240557336   -1.50787138825501    1.18704383766014
C         2.61625919581107   -1.59943740180768    2.32762929085082
C         3.35485516527106   -2.76403828901675    2.62385001140536
C         4.13398280456489   -2.82700010847037    3.74514532084143
C         4.21219336385229   -1.72958556583461    4.61834148357760
C         3.50965610359824   -0.58621263319796    4.35654926244029
C         2.69545118676334   -0.49077911076825    3.20921700172877
C         1.94939376388206    0.66814738979784    2.90864555125814
C         1.15633501049111    0.72475410927172    1.79882566955582
N         0.29415759105099    0.91099357362928   -1.02582499844211
C         1.42975244068883    1.34858413222788   -1.58937289748309
C         2.58843783557249    0.41691588840043   -1.66484980179055
C         2.49670088708251   -0.78675703018972   -2.35890165376252
C         3.62292379360552   -1.57188947202379   -2.53954071032070
C         4.84743835610032   -1.16425613558282   -2.04368467722525
C         4.94386272885697    0.05120246593124   -1.36462717847546
C         6.20455254159781    0.50311376219269   -0.90444101970768
N         7.23155765490522    0.87322519160778   -0.55600276831425
C         3.81476737023570    0.84446529097077   -1.17805145829679
O         1.51140028050389    2.47804115571544   -2.07444240832627
C        -0.84765487197116    1.80260487509412   -0.83999831201693
C        -1.59378544556649    2.12746325565623   -2.17810942029691
O        -0.85426626555376    2.68179656824615   -3.10804375057267
O        -2.77154458090592    1.94204409075414   -2.28731898282141
N        -1.67657015476682    1.10962225675682    0.10107187130482
C        -2.40634173926469    1.67011819423599    1.10758229645187
C        -2.44101506872612    3.16601983855824    1.14385964568014
C        -1.88615573534670    3.77388977787151    2.26189661486499
C        -1.91933242651824    5.16110649446574    2.38427689785961
C        -1.35146691927229    5.77206972049519    3.52734595051256
N        -0.86569332105821    6.26946460049678    4.43873698491001
C        -2.52247638917651    5.93929526074489    1.39459442237646
C        -3.09135617966735    5.32096930213317    0.29640040343237
C        -3.05445497737932    3.94096352775004    0.16463846921651
O        -2.94758842722410    0.99051661659779    1.95174381789365
H        -3.76597592943417    0.25883098251843   -0.98530587542546
H        -5.19984246182691   -1.23142705339643   -2.29530814434093
H        -5.59983730311656   -3.42733596252551   -3.34727340390508
H        -4.86820717083532   -5.74562752898629   -3.77110464293064
H        -2.74131906832095   -6.56392041428062   -2.84547461581485
H        -1.31471021986769   -5.07240419867762   -1.49877967316095
H        -0.91963747264066   -2.89179614541770   -0.48170120067859
H        -1.45482813805562   -0.61556786850239    1.20572018650620
H         0.33780631333744   -1.17980391454164   -0.91887417815157
H         1.73920585727148   -2.35980133698149    0.52234788286225
H         3.28671504668264   -3.60602580539926    1.94951451678375
H         4.69462955710550   -3.72216768110516    3.97030867080356
H         4.83270528378941   -1.80010057469860    5.49925540648943
H         3.56388993421856    0.26067893545853    5.02563050818354
H         2.01050295986117    1.51249219054174    3.58026960829312
H         0.58547051137341    1.61824547876608    1.59078662973775
H         1.55512722742482   -1.09391452842423   -2.79066722112559
H         3.54699785934365   -2.49862187196767   -3.08830089857429
H         5.73304321865088   -1.76359078470184   -2.19371771241406
H         3.89500501147388    1.79474648080662   -0.67163939371851
H        -0.50637908357713    2.77542260283888   -0.43972524375222
H         0.09889971404695    2.80386666285382   -2.82998375360649
H        -1.43695879747359    3.17191200230839    3.03930359478936