72
 energy: -136.617472375478 gnorm: 0.109396044270 xtb: 6.3.3 (4ae9cef)
C        -1.71095000000000   -3.98596500000000   -1.16315100000000
C        -2.12325900000000   -4.34570500000000    0.25383400000000
F        -2.63670600000000   -5.60419600000000    0.36618600000000
F        -1.06613600000000   -4.31267900000000    1.11439200000000
F        -3.05998100000000   -3.51922000000000    0.78164500000000
C        -2.08848900000000   -4.86772600000000   -2.19943300000000
C        -1.67509100000000   -4.65780900000000   -3.51278400000000
C        -0.85914800000000   -3.57479500000000   -3.81216500000000
C        -0.48316000000000   -2.68237300000000   -2.80535900000000
C        -0.93064300000000   -2.83864700000000   -1.47666200000000
C        -0.56200000000000   -1.80305000000000   -0.41601800000000
C         0.97336500000000   -1.64197700000000   -0.17267100000000
C         1.39335300000000   -2.26268000000000    1.16167900000000
C         2.26575600000000   -3.37721500000000    1.23224500000000
C         2.81017000000000   -4.05762600000000   -0.00604500000000
F         3.59257600000000   -3.25238000000000   -0.77323800000000
F         3.56258600000000   -5.16348900000000    0.25657600000000
F         1.80487700000000   -4.48880700000000   -0.82408000000000
C         2.62599200000000   -3.88625100000000    2.49625600000000
C         2.13503100000000   -3.31955800000000    3.67101400000000
C         1.26746600000000   -2.23730700000000    3.60522000000000
C         0.90265500000000   -1.71261200000000    2.36572500000000
N         1.19086200000000   -0.19205800000000   -0.19405200000000
C         2.43794800000000    0.36365200000000    0.04058700000000
C         2.52993400000000    1.82510300000000    0.25555300000000
C         1.79176600000000    2.43544700000000    1.27530000000000
C         1.87409200000000    3.81638500000000    1.45961800000000
C         2.71061700000000    4.58790200000000    0.64260800000000
C         2.79913000000000    6.07585000000000    0.81782300000000
C         3.47297100000000    3.95995900000000   -0.35197900000000
C         3.39141200000000    2.57961000000000   -0.54080900000000
O         3.46401700000000   -0.30493300000000    0.12727000000000
C         0.05871200000000    0.51374400000000   -0.75931200000000
C         0.30807600000000    0.94389200000000   -2.24484200000000
O        -0.63034400000000    0.49019100000000   -3.11953000000000
O         1.23753500000000    1.63868200000000   -2.62787700000000
N        -1.05250100000000   -0.43886200000000   -0.72733700000000
C        -2.36928400000000   -0.11372800000000   -0.41191200000000
C        -2.72985900000000    1.29372200000000   -0.14122600000000
C        -2.64825500000000    2.29000200000000   -1.11744600000000
C        -2.95602100000000    3.60917600000000   -0.78003800000000
C        -3.37088900000000    3.93724100000000    0.51940100000000
C        -3.74018800000000    5.35069400000000    0.86491300000000
C        -3.50090800000000    2.92026100000000    1.47297900000000
C        -3.17924700000000    1.60394300000000    1.14695500000000
O        -3.24389500000000   -0.96182300000000   -0.28240700000000
H        -2.70222500000000   -5.74368000000000   -1.98152300000000
H        -1.97307500000000   -5.35418400000000   -4.29411100000000
H        -0.50378400000000   -3.42770900000000   -4.83132500000000
H         0.18679400000000   -1.87229300000000   -3.08686000000000
H        -1.06070400000000   -2.06672000000000    0.52133700000000
H         1.55998300000000   -2.04188200000000   -1.00264700000000
H         3.30191200000000   -4.73680700000000    2.57223900000000
H         2.42557400000000   -3.72798600000000    4.63587300000000
H         0.87697300000000   -1.79988300000000    4.51920500000000
H         0.22511800000000   -0.86150500000000    2.34826200000000
H         1.16361600000000    1.84187900000000    1.93403200000000
H         1.27840200000000    4.28520000000000    2.23856200000000
H         2.42773100000000    6.58112600000000   -0.07793300000000
H         3.83756400000000    6.37413300000000    0.99476000000000
H         2.20438800000000    6.41573800000000    1.67170700000000
H         4.12619600000000    4.54778100000000   -0.99443100000000
H         3.97965100000000    2.09961300000000   -1.31884200000000
H        -0.17172800000000    1.40915000000000   -0.18296800000000
H        -1.27145500000000   -0.11327600000000   -2.68234300000000
H        -2.36461100000000    2.06528200000000   -2.14137500000000
H        -2.88383000000000    4.38443200000000   -1.54270500000000
H        -3.15180400000000    6.06404000000000    0.27773700000000
H        -3.53923500000000    5.55970800000000    1.92158400000000
H        -4.80237100000000    5.52013800000000    0.66443400000000
H        -3.86669100000000    3.14640300000000    2.47345900000000
H        -3.28633000000000    0.81931500000000    1.89646600000000
72
 energy: -136.632913437020 gnorm: 0.038335887331 xtb: 6.3.3 (4ae9cef)
C        -1.70069610943775   -3.97858424538867   -1.17143429081481
C        -2.10999167581962   -4.33263962368618    0.23976111049017
F        -2.62077072623785   -5.58084319323756    0.33734964097491
F        -1.06104327595553   -4.31051251918521    1.10122581911229
F        -3.04188446759119   -3.51987609554197    0.77445336504371
C        -2.07719527169513   -4.85729557197157   -2.18928052733989
C        -1.67068759492687   -4.64827854882856   -3.49572475749604
C        -0.85657337905727   -3.56964463425397   -3.79070243669869
C        -0.48968470101159   -2.68236162661159   -2.78869489547544
C        -0.92424263518911   -2.84329650183534   -1.47106068271419
C        -0.56245955448468   -1.81366553952040   -0.40930329423499
C         0.96694207995022   -1.64499340001547   -0.17367613768804
C         1.39931506248171   -2.25720800186638    1.15319640903561
C         2.25979933465991   -3.36324151133162    1.23559820826484
C         2.79470307908684   -4.04300903063176    0.00107570049362
F         3.57675550789549   -3.25548225221784   -0.76647773703379
F         3.53739975555563   -5.13797964121462    0.27453054806161
F         1.79843110759560   -4.47827963795958   -0.81520197805625
C         2.62075130427985   -3.87694369116299    2.48242418905896
C         2.13234559912689   -3.31566961822046    3.64931111329427
C         1.27081041590512   -2.23502070912984    3.57904911761144
C         0.91355993467689   -1.71439427116513    2.34469262219379
N         1.17711089305120   -0.19235885082048   -0.17794202536680
C         2.42344220856854    0.35391263032102    0.04398269495486
C         2.49945251388573    1.82671218596616    0.23728416562037
C         1.77425667656538    2.44327316386497    1.25328141909727
C         1.87893852263748    3.81168587588106    1.45083177478101
C         2.70864911655619    4.58239889584977    0.64253127831725
C         2.79827256774046    6.06927726706113    0.81968181303513
C         3.46191600327794    3.95065624859944   -0.34445171026155
C         3.37073948066035    2.58187928071878   -0.54079834141052
O         3.41967572568050   -0.33588470923698    0.14583590211383
C         0.05018068684616    0.50528282136008   -0.75707149925284
C         0.30977193733547    0.93501674211360   -2.23686058938247
O        -0.60989923135813    0.49687939575050   -3.11329838697813
O         1.22731053605439    1.61808870224807   -2.58607340115385
N        -1.04640324330188   -0.44856857676851   -0.71185107804759
C        -2.35536619848394   -0.12620169987295   -0.39050923339209
C        -2.69816221123413    1.29969070658792   -0.13683238322426
C        -2.62694843803739    2.29852764631607   -1.10434640559522
C        -2.96231306158951    3.60348677558961   -0.77433064798541
C        -3.37914500418492    3.93318371438827    0.51310956242709
C        -3.73396984831455    5.34683916175536    0.86373151937231
C        -3.49995829280617    2.91775457078809    1.45751150988005
C        -3.16865261040648    1.61171486606697    1.13742774496828
O        -3.20763326102789   -0.98547163039805   -0.29116232101110
H        -2.68744160052062   -5.72272298772943   -1.96215258439998
H        -1.97162168335571   -5.33879781366491   -4.27269654075975
H        -0.50410397099622   -3.41775508824330   -4.80315276700505
H         0.16718956966214   -1.86634747448720   -3.05931865909672
H        -1.05018059850442   -2.09187407847483    0.52967112679670
H         1.54171251627245   -2.07294478651944   -1.00082690695274
H         3.29024082580591   -4.72496254178108    2.54785889705096
H         2.42199627859486   -3.72319022457023    4.60892110107498
H         0.87828237155995   -1.79785915560441    4.48799046479318
H         0.23939240406994   -0.86789333882653    2.31747913951162
H         1.15388309953601    1.85106044872537    1.91442101609794
H         1.29664516973549    4.28108160379609    2.23333852327316
H         2.43707212406056    6.57771849678517   -0.07435786085082
H         3.83259115969180    6.37102492581176    0.98597750230681
H         2.20384024989526    6.40575385855004    1.66869879576723
H         4.11863719295823    4.53647181707953   -0.97499995945706
H         3.96101415933450    2.10038885319448   -1.30741518566363
H        -0.17969587436215    1.41709586904669   -0.19270701010639
H        -1.25516484214804   -0.10192916811381   -2.68314587138458
H        -2.34664375761914    2.07068317963398   -2.12333098648264
H        -2.88913947640522    4.37567209886835   -1.52942665502024
H        -3.15690257735714    6.05586229771521    0.27020695522393
H        -3.54644945473842    5.54955569869141    1.91832939322148
H        -4.79213615566404    5.52039675510900    0.66694732583686
H        -3.85476526955962    3.14605995864629    2.45472624370617
H        -3.27509711786873    0.82889347720865    1.87817203492986
72
 energy: -136.636901829191 gnorm: 0.011969293032 xtb: 6.3.3 (4ae9cef)
C        -1.68997942269236   -3.96979922561806   -1.16868718346898
C        -2.09351031887957   -4.32583854936291    0.23873230016632
F        -2.60320174871743   -5.56532919531885    0.32485061793329
F        -1.04456328754521   -4.31327270076054    1.09393057231938
F        -3.01619702461040   -3.51996987033454    0.78138102548358
C        -2.06609976550685   -4.84681142472336   -2.17731803521736
C        -1.66222584526142   -4.63510512294982   -3.48128802816772
C        -0.85132557035915   -3.55460299129327   -3.77236070590696
C        -0.49136760563771   -2.66958522343966   -2.77125400722501
C        -0.92119227093495   -2.83718681610649   -1.46004920509686
C        -0.56448987578626   -1.81656330799283   -0.39674080133706
C         0.96095043055803   -1.64593766301206   -0.17874615696981
C         1.40008885700918   -2.25214638360982    1.13974647205449
C         2.25304776668199   -3.35343833760230    1.22854124772947
C         2.77951277784697   -4.03469087903189   -0.00391009723281
F         3.55654493054202   -3.25897585171272   -0.77382932415439
F         3.51267062705945   -5.12282993947103    0.27514714449043
F         1.78256522713871   -4.46908727352598   -0.81248986920031
C         2.61629692094991   -3.86870470070347    2.46605153958901
C         2.12971707372673   -3.30591311988947    3.62934774946702
C         1.27261212299587   -2.22320244109213    3.55521119739420
C         0.91902885850915   -1.70608344401878    2.32280386478440
N         1.16177486004991   -0.19454701185531   -0.15973930696089
C         2.40987044146104    0.33961398900969    0.05664499860448
C         2.47365788291519    1.82057085991515    0.22669137177696
C         1.75124499828548    2.44426109876076    1.23666546171124
C         1.86787672265175    3.80732071808973    1.43864814642976
C         2.69989724275582    4.57676687962620    0.63792120750190
C         2.79904204592707    6.06120606763932    0.82107559800615
C         3.44780546150302    3.93924357326024   -0.34542887021279
C         3.35074047096730    2.57590144738666   -0.54319272223294
O         3.38146763964754   -0.37229961666787    0.18219307422310
C         0.03886137030237    0.49412325348180   -0.75145127780088
C         0.31843851839825    0.92732660211259   -2.22628794019678
O        -0.58770640189708    0.49945277980002   -3.10602569479349
O         1.24519398957821    1.60305615147855   -2.54391328614029
N        -1.04780777008110   -0.45640216851115   -0.69849788238211
C        -2.35578987084617   -0.13945610230009   -0.38512725925353
C        -2.67958745042723    1.29814576867791   -0.13751963465227
C        -2.60946489637963    2.29998502358670   -1.09892111124442
C        -2.95294275329210    3.59893201453485   -0.77073778550755
C        -3.37462689659565    3.93071824764470    0.51032514827062
C        -3.73288141726593    5.34180710925541    0.85991826358561
C        -3.48740039108382    2.91528314224235    1.45158191861947
C        -3.15358647584415    1.61379486254480    1.13293606112361
O        -3.18687071877068   -1.01158348854824   -0.28846972196946
H        -2.67256270462251   -5.70706441479436   -1.94194563733586
H        -1.96414305645662   -5.32181716808395   -4.25645587995931
H        -0.49845440568719   -3.39763209830591   -4.77979487173149
H         0.15567250512932   -1.84564702104550   -3.03001949152145
H        -1.04346622390612   -2.10600445541809    0.54320462768194
H         1.52490485658583   -2.08354326043779   -1.00929570521786
H         3.28031679239902   -4.71711286937623    2.52143282768303
H         2.41510887825330   -3.71525523260028    4.58595299433936
H         0.87729888583965   -1.78488357971201    4.45931032357514
H         0.25096190676997   -0.85810222037433    2.28337063499386
H         1.12061263798632    1.85644500311429    1.88938291451460
H         1.30290009278553    4.27737772019431    2.23120508129992
H         2.44429651696420    6.57253473025481   -0.07280822875572
H         3.83327681797242    6.35978555913777    0.98230327521154
H         2.20445404128417    6.39356013953716    1.66806810770214
H         4.11638009623387    4.52205030219544   -0.96199826920185
H         3.94005540067293    2.09106792949828   -1.30415526639823
H        -0.19241667823280    1.41784333394700   -0.19853712339761
H        -1.24320624028237   -0.09055783818345   -2.68392057187258
H        -2.30993164200822    2.07365240227668   -2.11077285820439
H        -2.89099613189217    4.36770747750593   -1.52576815434781
H        -3.16066963175807    6.04729186150012    0.26291777821685
H        -3.55140781138427    5.53928107928555    1.91347188132944
H        -4.79071954343510    5.51593973143980    0.66419592823346
H        -3.84589452533549    3.14421913818868    2.44407811236142
H        -3.25845629292174    0.83071501066124    1.86821849686154
72
 energy: -136.637955459757 gnorm: 0.006860411836 xtb: 6.3.3 (4ae9cef)
C        -1.68297676115286   -3.96697202220965   -1.16006410997069
C        -2.07664899280457   -4.32852851937105    0.24865528686760
F        -2.58834475358523   -5.56432021044703    0.33117195215408
F        -1.01924651434590   -4.32397895375855    1.09290520177656
F        -2.98902554004395   -3.52230776117368    0.80327910105179
C        -2.05728527750790   -4.84220630410110   -2.17033093391600
C        -1.65443049919935   -4.62358453953843   -3.47405965756806
C        -0.84819514573066   -3.53841966944647   -3.76245025002540
C        -0.49320287341584   -2.65423510434104   -2.75982471559569
C        -0.92205016026292   -2.83060092275304   -1.44998139090887
C        -0.56740876192663   -1.81387977182511   -0.38836066226561
C         0.95588691335523   -1.64285921331809   -0.18258719581970
C         1.40012655338319   -2.24847760166783    1.12907040443046
C         2.24818273142621   -3.35110634020014    1.21747034087785
C         2.76465784866815   -4.03553495749478   -0.01746771519278
F         3.53676217877095   -3.26498780932234   -0.79337678458530
F         3.49219395440883   -5.12443027897429    0.25914330075919
F         1.75901086357267   -4.46563388743346   -0.81700476267007
C         2.61232792586554   -3.86488211348231    2.45472991225250
C         2.12723337447852   -3.29695090806237    3.61686046722668
C         1.27481382709315   -2.21007658743917    3.54149339477544
C         0.92284879088104   -1.69402647068716    2.30931674430681
N         1.15081909566129   -0.19392864307733   -0.14746759515102
C         2.40019576897025    0.33099405548321    0.07440513803668
C         2.46053109149061    1.81335449423753    0.22840371363058
C         1.72857955656056    2.44250035874096    1.22794410856052
C         1.85131095499432    3.80466120388848    1.42994747269574
C         2.69233344907186    4.57022525452669    0.63448484818502
C         2.80040703846175    6.05295040151781    0.82073258173489
C         3.43934930433360    3.92821407103747   -0.34741855805394
C         3.34034368127683    2.56534898726815   -0.54159616106163
O         3.35906204271795   -0.39358076403770    0.22274791871091
C         0.03165043252822    0.49182031491501   -0.74491428598661
C         0.32913281397638    0.92258378079116   -2.21773620813203
O        -0.57065551047729    0.50603775777511   -3.10545119786856
O         1.27078537372433    1.59121134629613   -2.51431583481244
N        -1.05079990817637   -0.45715786201917   -0.69090864082054
C        -2.36062111916353   -0.14656820411726   -0.38197786266089
C        -2.67616489294889    1.29367375359839   -0.13924012093029
C        -2.59352249002902    2.29724336938913   -1.09770784018362
C        -2.94155938323504    3.59515841911719   -0.77161317211628
C        -3.37021287948349    3.92742179967394    0.50733221237760
C        -3.73363648044407    5.33701111745819    0.85465719674503
C        -3.47839192995037    2.91274809010852    1.45060486528204
C        -3.14783000538788    1.61118109736630    1.13172403620539
O        -3.18502638502073   -1.02514559255253   -0.29056278745259
H        -2.65941943833440   -5.70414118474886   -1.93286993195407
H        -1.95395208285991   -5.30887603742331   -4.25048668316507
H        -0.49419180889784   -3.37598553342076   -4.76807446019569
H         0.14875859395168   -1.82406589630673   -3.01073846134544
H        -1.03989391263699   -2.10553275829883    0.55399054221783
H         1.51323366771267   -2.07556601914264   -1.01959744898009
H         3.27373025451610   -4.71480533132486    2.50639692834154
H         2.41140644452024   -3.70563942134165    4.57335851100474
H         0.88157172351980   -1.76674190472327    4.44328077615429
H         0.26043587602827   -0.84193651320754    2.26146506671574
H         1.08523946008697    1.85934492567807    1.87280531180291
H         1.28832276896101    4.27738552322599    2.22189097726651
H         2.44951355525480    6.56774373288317   -0.07302044292109
H         3.83639862358324    6.34488813603964    0.98251736018502
H         2.20663020265139    6.38528956723522    1.66782048846840
H         4.11288576929725    4.50834029574357   -0.96073710672547
H         3.92815940689847    2.07617204618651   -1.30081243011391
H        -0.20173397026534    1.41895949735238   -0.19707870671945
H        -1.23693254198312   -0.07718059056104   -2.69106549053452
H        -2.28098278355475    2.07257617714021   -2.10623739447507
H        -2.87908790348911    4.36360888553262   -1.52700232045567
H        -3.16294585846764    6.04264946006291    0.25686612652864
H        -3.55465264480950    5.53413663001109    1.90846400880039
H        -4.79204248877334    5.50813686957076    0.65754933355090
H        -3.83311897530033    3.14371315740213    2.44386728696593
H        -3.24863723898861    0.82756562609688    1.86678640468774
72
 energy: -136.638645924308 gnorm: 0.006349784483 xtb: 6.3.3 (4ae9cef)
C        -1.67534094972824   -3.96688500793392   -1.14950535347134
C        -2.05250082561557   -4.33602482741907    0.26289127056330
F        -2.56971743326942   -5.56838446449642    0.34475796094795
F        -0.97958084447075   -4.34249234005107    1.08938731213907
F        -2.94910782173009   -3.52605306805649    0.83770419180863
C        -2.04527515603240   -4.84082723534836   -2.16399657515675
C        -1.64556310936451   -4.61198919122593   -3.46770824179933
C        -0.84754061796554   -3.51979178706203   -3.75422227069018
C        -0.49820803741212   -2.63672770872223   -2.74926873832521
C        -0.92553667238584   -2.82374824545393   -1.43966967405387
C        -0.57141208958019   -1.80863987172292   -0.38126492280692
C         0.95064984417477   -1.63710191817185   -0.18532863624899
C         1.40014097226938   -2.24595725176158    1.11914722232015
C         2.24085311598134   -3.35317917134709    1.20434143414066
C         2.74190666932746   -4.04134842063389   -0.03599350730855
F         3.50765893231788   -3.27513615605154   -0.82183480626462
F         3.46437467119772   -5.13435571443904    0.23276627389200
F         1.72201290322642   -4.46423715263443   -0.82357092312179
C         2.60695437765463   -3.86423277276912    2.44313395161242
C         2.12793037927783   -3.28779483588488    3.60450094046452
C         1.28246919733669   -2.19484754134271    3.53006738352911
C         0.92968585923520   -1.68046786554212    2.29829945317304
N         1.14065972946788   -0.19097971548422   -0.13570110746494
C         2.39007650077163    0.32478645910775    0.10153790582282
C         2.45105977422290    1.80592172343196    0.23958242551780
C         1.70326282676425    2.44150174958193    1.22376904070562
C         1.82680713095238    3.80440486080078    1.41961532616761
C         2.68155553355711    4.56281323588171    0.63045438537710
C         2.80161589908706    6.04363517181120    0.81947752396565
C         3.43143667947691    3.91565576650070   -0.34707161802954
C         3.33357677321829    2.55170831902066   -0.53285026687411
O         3.33763569916475   -0.40934446479946    0.27452658770661
C         0.02603006038569    0.49344367776057   -0.73922382535504
C         0.33981393948075    0.91962322538837   -2.21053019991559
O        -0.55498197100891    0.51509570987767   -3.10696981656885
O         1.30009024627400    1.57070613497597   -2.49173358984605
N        -1.05477881464494   -0.45464571205412   -0.68721123928890
C        -2.36800965353395   -0.15059774054606   -0.38466634169207
C        -2.67820841262683    1.28863643411855   -0.14265471172581
C        -2.57977820082843    2.29340114946936   -1.09847826872034
C        -2.92527999599421    3.59208141115933   -0.77299289696245
C        -3.36141114589153    3.92398226105406    0.50431727535938
C        -3.73414513594262    5.33177459834694    0.84727587929161
C        -3.46767281316742    2.91073780186849    1.45046378811093
C        -3.14354901266904    1.60765567779542    1.13068094383761
O        -3.18764445072015   -1.03380361812700   -0.29413983308313
H        -2.64025073247797   -5.70811409701890   -1.92662337218226
H        -1.94086081462272   -5.29638028915476   -4.24660441793282
H        -0.49364616777621   -3.35010502895198   -4.75904840840475
H         0.13871352411458   -1.80034206957784   -2.99273149888913
H        -1.03794660513470   -2.09836088557550    0.56461208699371
H         1.50280139264284   -2.05936835939295   -1.03070316281923
H         3.26474539567078   -4.71722623555307    2.49265436594548
H         2.41162392235184   -3.69551759332360    4.56150982124961
H         0.89474259698637   -1.74435411759737    4.43074835104915
H         0.27518414298168   -0.82229591610861    2.24310754752045
H         1.04495126805372    1.86438656577895    1.85986796030628
H         1.25635453295509    4.28245611356310    2.20280502896942
H         2.45606012031206    6.56345057097357   -0.07382267650826
H         3.84036290324162    6.32527312268558    0.98398104134932
H         2.20951210559775    6.37853961210202    1.66696609149812
H         4.10745122854716    4.49228902485088   -0.96111217299040
H         3.92168664145673    2.05612203743109   -1.28838919457380
H        -0.20979803873536    1.42242179390602   -0.19635958263216
H        -1.23467694881252   -0.05780308839337   -2.69969375739617
H        -2.25492001990580    2.07102998815119   -2.10398677129710
H        -2.85580578807951    4.36130255439532   -1.52775330351136
H        -3.16564607905708    6.03968093325255    0.24954465613480
H        -3.55885253701559    5.53176495384228    1.90147873686166
H        -4.79337693461890    5.49591862869991    0.64670377846392
H        -3.81737557216629    3.14435028699952    2.44532699201368
H        -3.24404408674982    0.82290792514580    1.86541074910221
72
 energy: -136.639035278019 gnorm: 0.005548944348 xtb: 6.3.3 (4ae9cef)
C        -1.66837296932502   -3.96939762380134   -1.14249162653185
C        -2.02955960115188   -4.34368127441878    0.27326236704207
F        -2.55504598691307   -5.57249503876485    0.35740889848021
F        -0.94171148563584   -4.36082486938484    1.08248542056550
F        -2.90988214191772   -3.52792399438303    0.86764751288761
C        -2.03359385863742   -4.84370621116393   -2.15951455220111
C        -1.63915482678015   -4.60663057613247   -3.46352626957118
C        -0.85024481898987   -3.50767519961061   -3.75036597459194
C        -0.50489589941549   -2.62534782345638   -2.74390008931766
C        -0.92869134339908   -2.82025766932159   -1.43371520566963
C        -0.57460226473117   -1.80462005202326   -0.37774509860479
C         0.94732840049074   -1.63270295369500   -0.18610802374862
C         1.40016215134493   -2.24565015667758    1.11415475173104
C         2.23274528686721   -3.35876587924226    1.19503627188486
C         2.71833192229020   -4.04955160718178   -0.05042727799167
F         3.47910316000702   -3.28609440162569   -0.84521692816927
F         3.43758344859481   -5.14725358270075    0.20915524485356
F         1.68595218871548   -4.46524943697411   -0.82820386857009
C         2.60190855856233   -3.86862186270229    2.43429522031088
C         2.13253683230064   -3.28479267710305    3.59607269720377
C         1.29408902096871   -2.18589528705531    3.52491554024418
C         0.93827139053066   -1.67244969967267    2.29417781936256
N         1.13521524420761   -0.18816643956229   -0.12925393593373
C         2.38276701315697    0.32291309852314    0.12649148902260
C         2.44552862279424    1.80227279626394    0.25458292862103
C         1.68361166173490    2.44353443436719    1.22458365851653
C         1.80457424841535    3.80794936320540    1.41201029941217
C         2.67120406416554    4.55897272816127    0.62804481523357
C         2.80060023551390    6.03862108051198    0.81742539946650
C         3.42654127723203    3.90727098468156   -0.34256024765269
C         3.33122686972247    2.54174909085700   -0.51941879529726
O         3.32397662706581   -0.41439803514563    0.31811227211361
C         0.02458455219498    0.49611083913191   -0.73842982693121
C         0.35036784926240    0.91390009368856   -2.20970394447526
O        -0.55052144047175    0.52776600383331   -3.10827993199762
O         1.32066115362197    1.55125577151454   -2.48651921561144
N        -1.05741201350224   -0.45162564472964   -0.68802824672168
C        -2.37261980624234   -0.15075749956973   -0.38839705743939
C        -2.68118197379567    1.28666183785898   -0.14565157003366
C        -2.57104387620013    2.29185909180169   -1.09971405244240
C        -2.91136362210652    3.59206929022214   -0.77407125359266
C        -3.35253089549615    3.92325465089034    0.50196635800423
C        -3.73359852119379    5.32970217425777    0.84074068583497
C        -3.46041070572950    2.91119531718548    1.44957397256428
C        -3.14240233354454    1.60646395813246    1.12913169874430
O        -3.19133878122882   -1.03510769679807   -0.29894799003298
H        -2.62043483664239   -5.71732920172849   -1.92289986964383
H        -1.93046379149804   -5.29116868756677   -4.24418140332791
H        -0.49891419019758   -3.33208770074622   -4.75549079831864
H         0.12681332907878   -1.78412645310633   -2.98392663641243
H        -1.03826496611840   -2.09023548211285    0.57098516147940
H         1.49711579056285   -2.04643472855356   -1.03733437876338
H         3.25524804071554   -4.72553608372314    2.48242436011808
H         2.41863205361589   -3.69104379895179    4.55324928487418
H         0.91483038293795   -1.72896641313319    4.42636100740947
H         0.29060284173502   -0.80923302185497    2.23669142310794
H         1.01693659213052    1.87096131165213    1.85607860741655
H         1.22262554116000    4.29210877726556    2.18332343517978
H         2.46024037098732    6.56246985624573   -0.07553015839761
H         3.84166164138929    6.31086140310274    0.98457483818819
H         2.21030428088787    6.37715282200819    1.66507338803919
H         4.10417111052636    4.48055287234616   -0.95822885957753
H         3.92301264827067    2.03998851702033   -1.26854933283988
H        -0.21283600430591    1.42649653252844   -0.19991190070954
H        -1.23810454943873   -0.03838377193253   -2.70552242512167
H        -2.24322398040952    2.07007615390885   -2.10415143235045
H        -2.83373642875497    4.36228199883828   -1.52751980654067
H        -3.16788367758765    6.04032071387818    0.24304317930983
H        -3.56268164057355    5.53405371900359    1.89513085205632
H        -4.79345972875531    5.48547498097112    0.63610005749081
H        -3.80618513617696    3.14678469295551    2.44560061627883
H        -3.24469430689176    0.82107957949290    1.86352645208424
72
 energy: -136.639371751766 gnorm: 0.005364436705 xtb: 6.3.3 (4ae9cef)
C        -1.66014382812458   -3.97376333997991   -1.13783260362891
C        -2.00639749131251   -4.35075855034956    0.28052419848600
F        -2.54288101355786   -5.57493041894238    0.36905706727928
F        -0.90540136398618   -4.37888658957586    1.07334740806879
F        -2.86948938154330   -3.52755006676631    0.89262780940084
C        -2.02022444274422   -4.85049564831638   -2.15506611415518
C        -1.63346694791654   -4.60700846455242   -3.45996297970009
C        -0.85562876361517   -3.50064321866712   -3.74926363688575