      -----------------------------------------------------------      
     |                   =====================                   |     
     |                           x T B                           |     
     |                   =====================                   |     
     |                         S. Grimme                         |     
     |          Mulliken Center for Theoretical Chemistry        |     
     |                    University of Bonn                     |     
      -----------------------------------------------------------      

   * xtb version 6.3.3 (4ae9cef) compiled by 'conda@95abc7406d43' on 2020-10-14

   xtb is free software: you can redistribute it and/or modify it under
   the terms of the GNU Lesser General Public License as published by
   the Free Software Foundation, either version 3 of the License, or
   (at your option) any later version.
   
   xtb is distributed in the hope that it will be useful,
   but WITHOUT ANY WARRANTY; without even the implied warranty of
   MERCHANTABILITY or FITNESS FOR A PARTICULAR PURPOSE.  See the
   GNU Lesser General Public License for more details.
   
   Cite this work as:
   * C. Bannwarth, E. Caldeweyher, S. Ehlert, A. Hansen, P. Pracht,
     J. Seibert, S. Spicher, S. Grimme, WIREs Comput. Mol. Sci., 2020,
     e01493. DOI: 10.1002/wcms.1493
   
   for GFN2-xTB:
   * S. Grimme, C. Bannwarth, P. Shushkov, J. Chem. Theory Comput., 2017,
     13, 1989-2009. DOI: 10.1021/acs.jctc.7b00118
   for GFN1-xTB:
   * C. Bannwarth, S. Ehlert and S. Grimme., J. Chem. Theory Comput., 2019,
     15, 1652-1671. DOI: 10.1021/acs.jctc.8b01176
   for GFN0-xTB:
   * P. Pracht, E. Caldeweyher, S. Ehlert, S. Grimme, ChemRxiv, 2019, preprint.
     DOI: 10.26434/chemrxiv.8326202.v1
   for GFN-FF:
   * S. Spicher and S. Grimme, Angew. Chem. Int. Ed., 2020, 59, 15665-15673.
     DOI: 10.1002/anie.202004239
   
   for DFT-D4:
   * E. Caldeweyher, C. Bannwarth and S. Grimme, J. Chem. Phys., 2017,
     147, 034112. DOI: 10.1063/1.4993215
   * E. Caldeweyher, S. Ehlert, A. Hansen, H. Neugebauer, S. Spicher,
     C. Bannwarth and S. Grimme, J. Chem. Phys., 2019, 150, 154122.
     DOI: 10.1063/1.5090222
   * E. Caldeweyher, J.-M. Mewes, S. Ehlert and S. Grimme, Phys. Chem. Chem. Phys.
     2020, 22, 8499-8512. DOI: 10.1039/D0CP00502A
   
   for sTDA-xTB:
   * S. Grimme and C. Bannwarth, J. Chem. Phys., 2016, 145, 054103.
     DOI: 10.1063/1.4959605
   
   in the mass-spec context:
   * V. Asgeirsson, C. Bauer and S. Grimme, Chem. Sci., 2017, 8, 4879.
     DOI: 10.1039/c7sc00601b
   * J. Koopman and S. Grimme, ACS Omega 2019, 4, 12, 15120-15133.
     DOI: 10.1021/acsomega.9b02011
   
   for metadynamics refer to:
   * S. Grimme, J. Chem. Theory Comput., 2019, 155, 2847-2862
     DOI: 10.1021/acs.jctc.9b00143
   
   with help from (in alphabetical order)
   C. Bannwarth, F. Bohle, G. Brandenburg, E. Caldeweyher, M. Checinski,
   S. Dohm, S. Ehlert, S. Ehrlich, F. März, H. Neugebauer, J. Pisarek,
   P. Pracht, P. Shushkov, and S. Spicher.
   
 * started run on 2022/03/17 at 02:19:27.351     

           -------------------------------------------------
          |                Calculation Setup                |
           -------------------------------------------------

          program call               : xtb alk_2.xyz --opt --chrg 0 --uhf 0 --gfn 2
          coordinate file            : alk_2.xyz
          omp threads                :                    64
          number of atoms            :                    23
          number of electrons        :                    58
          charge                     :                     0
          spin                       :                   0.0
          first test random number   :      0.42578323893361

   ID    Z sym.   atoms
    1    6 C      1, 3-11
    2    8 O      2
    3    1 H      12-23

           -------------------------------------------------
          |                 G F N 2 - x T B                 |
           -------------------------------------------------

        Reference                      10.1021/acs.jctc.8b01176
      * Hamiltonian:
        H0-scaling (s, p, d)           1.850000    2.230000    2.230000
        zeta-weighting                 0.500000
      * Dispersion:
        s8                             2.700000
        a1                             0.520000
        a2                             5.000000
        s9                             5.000000
      * Repulsion:
        kExp                           1.500000    1.000000
        rExp                           1.000000
      * Coulomb:
        alpha                          2.000000
        third order                    shell-resolved
        anisotropic                    true
        a3                             3.000000
        a5                             4.000000
        cn-shift                       1.200000
        cn-exp                         4.000000
        max-rad                        5.000000


          ...................................................
          :                      SETUP                      :
          :.................................................:
          :  # basis functions                  56          :
          :  # atomic orbitals                  56          :
          :  # shells                           34          :
          :  # electrons                        58          :
          :  max. iterations                   250          :
          :  Hamiltonian                  GFN2-xTB          :
          :  restarted?                      false          :
          :  GBSA solvation                  false          :
          :  PC potential                    false          :
          :  electronic temp.          300.0000000     K    :
          :  accuracy                    1.0000000          :
          :  -> integral cutoff          0.2500000E+02      :
          :  -> integral neglect         0.1000000E-07      :
          :  -> SCF convergence          0.1000000E-05 Eh   :
          :  -> wf. convergence          0.1000000E-03 e    :
          :  Broyden damping             0.4000000          :
          ...................................................

 iter      E             dE          RMSdq      gap      omega  full diag
   1    -31.9948202 -0.319948E+02  0.403E+00    3.98       0.0  T
   2    -32.0323569 -0.375367E-01  0.232E+00    4.08       1.0  T
   3    -32.0260189  0.633796E-02  0.102E+00    3.94       1.0  T
   4    -32.0331989 -0.717994E-02  0.471E-01    4.06       1.0  T
   5    -32.0361556 -0.295677E-02  0.121E-01    4.07       1.0  T
   6    -32.0363481 -0.192465E-03  0.542E-02    4.05       1.0  T
   7    -32.0363616 -0.135232E-04  0.242E-02    4.05       1.0  T
   8    -32.0363633 -0.168887E-05  0.957E-03    4.06       2.2  T
   9    -32.0363643 -0.961397E-06  0.198E-03    4.05      10.5  T
  10    -32.0363643 -0.149591E-07  0.805E-04    4.05      25.9  T
  11    -32.0363643  0.584301E-09  0.415E-04    4.05      50.3  T

   *** convergence criteria satisfied after 11 iterations ***

         #    Occupation            Energy/Eh            Energy/eV
      -------------------------------------------------------------
         1        2.0000           -0.7092991             -19.3010
       ...           ...                  ...                  ...
        23        2.0000           -0.4441111             -12.0849
        24        2.0000           -0.4330406             -11.7836
        25        2.0000           -0.4200949             -11.4314
        26        2.0000           -0.4174100             -11.3583
        27        2.0000           -0.3981024             -10.8329
        28        2.0000           -0.3929369             -10.6924
        29        2.0000           -0.3712190             -10.1014 (HOMO)
        30                         -0.2222502              -6.0477 (LUMO)
        31                         -0.2101164              -5.7176
        32                         -0.2018637              -5.4930
        33                         -0.0921931              -2.5087
        34                          0.0244131               0.6643
       ...                                ...                  ...
        56                          0.6394601              17.4006
      -------------------------------------------------------------
                  HL-Gap            0.1489687 Eh            4.0536 eV
             Fermi-level           -0.2967346 Eh           -8.0746 eV

 SCC (total)                   0 d,  0 h,  0 min,  0.207 sec
 SCC setup                      ...        0 min,  0.008 sec (  3.868%)
 Dispersion                     ...        0 min,  0.011 sec (  5.260%)
 classical contributions        ...        0 min,  0.015 sec (  7.107%)
 integral evaluation            ...        0 min,  0.031 sec ( 15.140%)
 iterations                     ...        0 min,  0.011 sec (  5.259%)
 molecular gradient             ...        0 min,  0.131 sec ( 63.262%)
 printout                       ...        0 min,  0.000 sec (  0.069%)

         :::::::::::::::::::::::::::::::::::::::::::::::::::::
         ::                     SUMMARY                     ::
         :::::::::::::::::::::::::::::::::::::::::::::::::::::
         :: total energy             -31.550197130958 Eh    ::
         :: gradient norm              0.045800505696 Eh/a0 ::
         :: HOMO-LUMO gap              4.053645670944 eV    ::
         ::.................................................::
         :: SCC energy               -32.036364280365 Eh    ::
         :: -> isotropic ES            0.017086316419 Eh    ::
         :: -> anisotropic ES          0.005739446975 Eh    ::
         :: -> anisotropic XC          0.017241067187 Eh    ::
         :: -> dispersion             -0.018805316640 Eh    ::
         :: repulsion energy           0.486132507259 Eh    ::
         :: add. restraining           0.000000000000 Eh    ::
         :: total charge              -0.000000000000 e     ::
         :::::::::::::::::::::::::::::::::::::::::::::::::::::

      ----------------------------------------------------------- 
     |                   =====================                   |
     |                        A N C O P T                        |
     |                   =====================                   |
     |               Approximate Normal Coordinate               |
     |                Rational Function Optimizer                |
      ----------------------------------------------------------- 

          ...................................................
          :                      SETUP                      :
          :.................................................:
          :   optimization level            normal          :
          :   max. optcycles                   200          :
          :   ANC micro-cycles                  20          :
          :   degrees of freedom                63          :
          :.................................................:
          :   RF solver                   davidson          :
          :   write xtbopt.log                true          :
          :   linear?                        false          :
          :   energy convergence         0.5000000E-05 Eh   :
          :   grad. convergence          0.1000000E-02 Eh/α :
          :   maximium RF displ.         1.0000000          :
          :   Hlow (freq-cutoff)         0.1000000E-01      :
          :   Hmax (freq-cutoff)         5.0000000          :
          :   S6 in model hess.         20.0000000          :
          ...................................................

generating ANC from model Hessian ...
Using Lindh-Hessian (1995)
 Shifting diagonal of input Hessian by    9.2639409508671715E-003
 Lowest  eigenvalues of input Hessian
    0.000000    0.000000    0.000000    0.000000    0.000000    0.000000
    0.010000    0.010846    0.012591    0.013019    0.014262    0.016724
    0.019852    0.023170    0.023846    0.026670    0.030721    0.038271
 Highest eigenvalues
    1.552931    1.716560    1.836697    1.858699    1.955696    2.050579


........................................................................
.............................. CYCLE    1 ..............................
........................................................................
   1    -32.0363643 -0.320364E+02  0.138E-04    4.05       0.0  T
   2    -32.0363643 -0.465832E-10  0.840E-05    4.05     248.3  T
   3    -32.0363643  0.279243E-11  0.590E-05    4.05     353.7  T
     SCC iter.                  ...        0 min,  0.003 sec
     gradient                   ...        0 min,  0.137 sec
 * total energy  :   -31.5501971 Eh     change       -0.2907640E-08 Eh
   gradient norm :     0.0458035 Eh/α   predicted     0.0000000E+00 (-100.00%)
   displ. norm   :     0.1890578 α      lambda       -0.4268702E-02
   maximum displ.:     0.0762498 α      in ANC's #18, #3, #7, ...

........................................................................
.............................. CYCLE    2 ..............................
........................................................................
   1    -32.0639497 -0.320639E+02  0.149E-01    4.14       0.0  T
   2    -32.0639550 -0.531146E-05  0.894E-02    4.14       1.0  T
   3    -32.0639331  0.219641E-04  0.335E-02    4.14       1.0  T
   4    -32.0639581 -0.250436E-04  0.440E-03    4.14       4.7  T
   5    -32.0639584 -0.258623E-06  0.238E-03    4.14       8.8  T
   6    -32.0639584 -0.369465E-07  0.111E-03    4.14      18.8  T
   7    -32.0639584 -0.880009E-08  0.340E-04    4.14      61.3  T
   8    -32.0639584 -0.504102E-09  0.106E-04    4.14     196.9  T
     SCC iter.                  ...        0 min,  0.007 sec
     gradient                   ...        0 min,  0.125 sec
 * total energy  :   -31.5528553 Eh     change       -0.2658130E-02 Eh
   gradient norm :     0.0135832 Eh/α   predicted    -0.2210657E-02 ( -16.83%)
   displ. norm   :     0.1390184 α      lambda       -0.5968919E-03
   maximum displ.:     0.0877900 α      in ANC's #3, #5, #7, ...

........................................................................
.............................. CYCLE    3 ..............................
........................................................................
   1    -32.0720100 -0.320720E+02  0.670E-02    4.16       0.0  T
   2    -32.0720115 -0.143328E-05  0.396E-02    4.17       1.0  T
   3    -32.0720103  0.121027E-05  0.819E-03    4.17       2.5  T
   4    -32.0720118 -0.148265E-05  0.197E-03    4.17      10.6  T
   5    -32.0720118 -0.636114E-07  0.672E-04    4.17      31.0  T
   6    -32.0720118 -0.339440E-09  0.383E-04    4.17      54.4  T
     SCC iter.                  ...        0 min,  0.010 sec
     gradient                   ...        0 min,  0.121 sec
 * total energy  :   -31.5532237 Eh     change       -0.3684071E-03 Eh
   gradient norm :     0.0043467 Eh/α   predicted    -0.3042162E-03 ( -17.42%)
   displ. norm   :     0.1193999 α      lambda       -0.1558220E-03
   maximum displ.:     0.0830455 α      in ANC's #3, #1, #5, ...

........................................................................
.............................. CYCLE    4 ..............................
........................................................................
   1    -32.0723509 -0.320724E+02  0.367E-02    4.17       0.0  T
   2    -32.0723513 -0.425601E-06  0.215E-02    4.17       1.0  T
   3    -32.0723499  0.136333E-05  0.955E-03    4.17       2.2  T
   4    -32.0723515 -0.157588E-05  0.133E-03    4.17      15.7  T
   5    -32.0723515 -0.229016E-07  0.487E-04    4.17      42.8  T
   6    -32.0723515 -0.207822E-08  0.247E-04    4.17      84.6  T
     SCC iter.                  ...        0 min,  0.006 sec
     gradient                   ...        0 min,  0.116 sec
 * total energy  :   -31.5533353 Eh     change       -0.1116444E-03 Eh
   gradient norm :     0.0023610 Eh/α   predicted    -0.7902549E-04 ( -29.22%)
   displ. norm   :     0.1286127 α      lambda       -0.9462323E-04
   maximum displ.:     0.0871321 α      in ANC's #3, #1, #5, ...

........................................................................
.............................. CYCLE    5 ..............................
........................................................................
   1    -32.0710594 -0.320711E+02  0.373E-02    4.16       0.0  T
   2    -32.0710596 -0.201492E-06  0.222E-02    4.16       1.0  T
   3    -32.0710579  0.169521E-05  0.101E-02    4.16       2.1  T
   4    -32.0710599 -0.192373E-05  0.932E-04    4.16      22.4  T
   5    -32.0710599 -0.725934E-08  0.431E-04    4.16      48.4  T
   6    -32.0710599 -0.727233E-09  0.199E-04    4.16     104.6  T
     SCC iter.                  ...        0 min,  0.007 sec
     gradient                   ...        0 min,  0.132 sec
 * total energy  :   -31.5533979 Eh     change       -0.6257388E-04 Eh
   gradient norm :     0.0026104 Eh/α   predicted    -0.4809589E-04 ( -23.14%)
   displ. norm   :     0.0797286 α      lambda       -0.3594845E-04
   maximum displ.:     0.0492226 α      in ANC's #1, #3, #2, ...

........................................................................
.............................. CYCLE    6 ..............................
........................................................................
   1    -32.0703849 -0.320704E+02  0.240E-02    4.16       0.0  T
   2    -32.0703849 -0.398110E-07  0.142E-02    4.16       1.5  T
   3    -32.0703846  0.318462E-06  0.424E-03    4.16       4.9  T
   4    -32.0703850 -0.361487E-06  0.512E-04    4.16      40.8  T
   5    -32.0703850 -0.518739E-09  0.260E-04    4.16      80.1  T
     SCC iter.                  ...        0 min,  0.004 sec
     gradient                   ...        0 min,  0.142 sec
 * total energy  :   -31.5534234 Eh     change       -0.2550002E-04 Eh
   gradient norm :     0.0020759 Eh/α   predicted    -0.1809882E-04 ( -29.02%)
   displ. norm   :     0.0842436 α      lambda       -0.3062473E-04
   maximum displ.:     0.0550433 α      in ANC's #1, #3, #2, ...

........................................................................
.............................. CYCLE    7 ..............................
........................................................................
   1    -32.0702088 -0.320702E+02  0.270E-02    4.16       0.0  T
   2    -32.0702089 -0.856875E-07  0.161E-02    4.16       1.3  T
   3    -32.0702088  0.110347E-06  0.264E-03    4.16       7.9  T
   4    -32.0702089 -0.145052E-06  0.683E-04    4.16      30.6  T
   5    -32.0702089 -0.167234E-08  0.339E-04    4.16      61.4  T
     SCC iter.                  ...        0 min,  0.008 sec
     gradient                   ...        0 min,  0.132 sec
 * total energy  :   -31.5534427 Eh     change       -0.1930572E-04 Eh
   gradient norm :     0.0012175 Eh/α   predicted    -0.1543718E-04 ( -20.04%)
   displ. norm   :     0.0821493 α      lambda       -0.1610503E-04
   maximum displ.:     0.0597751 α      in ANC's #1, #2, #3, ...

........................................................................
.............................. CYCLE    8 ..............................
........................................................................
   1    -32.0708570 -0.320709E+02  0.264E-02    4.16       0.0  T
   2    -32.0708572 -0.135665E-06  0.158E-02    4.16       1.3  T
   3    -32.0708568  0.334923E-06  0.439E-03    4.16       4.8  T
   4    -32.0708572 -0.399932E-06  0.814E-04    4.16      25.6  T
   5    -32.0708572 -0.341233E-08  0.503E-04    4.16      41.4  T
     SCC iter.                  ...        0 min,  0.005 sec
     gradient                   ...        0 min,  0.118 sec
 * total energy  :   -31.5534558 Eh     change       -0.1311692E-04 Eh
   gradient norm :     0.0013567 Eh/α   predicted    -0.8080725E-05 ( -38.39%)
   displ. norm   :     0.0349319 α      lambda       -0.6551783E-05
   maximum displ.:     0.0265325 α      in ANC's #1, #2, #7, ...

........................................................................
.............................. CYCLE    9 ..............................
........................................................................
   1    -32.0712065 -0.320712E+02  0.124E-02    4.16       0.0  T
   2    -32.0712065 -0.120073E-07  0.738E-03    4.16       2.8  T
   3    -32.0712065  0.129719E-07  0.916E-04    4.16      22.8  T
   4    -32.0712065 -0.194277E-07  0.327E-04    4.16      63.8  T
     SCC iter.                  ...        0 min,  0.004 sec
     gradient                   ...        0 min,  0.140 sec
 * total energy  :   -31.5534625 Eh     change       -0.6680880E-05 Eh
   gradient norm :     0.0007857 Eh/α   predicted    -0.3277925E-05 ( -50.94%)
   displ. norm   :     0.0311221 α      lambda       -0.3454718E-05
   maximum displ.:     0.0226323 α      in ANC's #1, #2, #5, ...

........................................................................
.............................. CYCLE   10 ..............................
........................................................................
   1    -32.0711454 -0.320711E+02  0.102E-02    4.16       0.0  T
   2    -32.0711454 -0.201438E-07  0.605E-03    4.16       3.4  T
   3    -32.0711453  0.428078E-07  0.156E-03    4.16      13.4  T
   4    -32.0711454 -0.504127E-07  0.235E-04    4.16      88.8  T
   5    -32.0711454 -0.467260E-09  0.149E-04    4.16     140.1  T
     SCC iter.                  ...        0 min,  0.005 sec
     gradient                   ...        0 min,  0.140 sec
 * total energy  :   -31.5534661 Eh     change       -0.3610194E-05 Eh
   gradient norm :     0.0003390 Eh/α   predicted    -0.1731704E-05 ( -52.03%)
   displ. norm   :     0.0279766 α      lambda       -0.1893964E-05
   maximum displ.:     0.0202302 α      in ANC's #1, #2, #5, ...

   *** GEOMETRY OPTIMIZATION CONVERGED AFTER 10 ITERATIONS ***

------------------------------------------------------------------------
 total energy gain   :        -0.0032690 Eh       -2.0513 kcal/mol
 total RMSD          :         0.1503832 a0        0.0796 Å
 total power (kW/mol):        -0.8582684 (step)   -3.7930 (real)
------------------------------------------------------------------------

 ANCopt (total)                0 d,  0 h,  0 min,  2.263 sec
 optimizer setup                ...        0 min,  0.000 sec (  0.002%)
 model hessian                  ...        0 min,  0.004 sec (  0.186%)
 ANC generation                 ...        0 min,  0.001 sec (  0.034%)
 coordinate transformation      ...        0 min,  0.000 sec (  0.004%)
 single point calculation       ...        0 min,  2.108 sec ( 93.164%)
 optimization log               ...        0 min,  0.001 sec (  0.030%)
 hessian update                 ...        0 min,  0.148 sec (  6.527%)
 rational function              ...        0 min,  0.001 sec (  0.028%)

================
 final structure:
================
23
 xtb: 6.3.3 (4ae9cef)
C        -3.95830104007130    0.37823185485677    0.30306916027490
O        -2.95628403563396   -0.29538905707358    1.02272187839350
C        -1.69728376669808   -0.34126045077990    0.49739408835617
C        -0.75429985052200   -1.05531222926243    1.23738703254516
C         0.54417621960482   -1.16863176169494    0.79003280081389
C         0.94382084735879   -0.57821291362334   -0.40440771677422
C         2.36397933426270   -0.68607763775930   -0.87914204540087
C         3.25275214506294    0.41662578250144   -0.37450352188555
C         2.88261773810162    1.40291694578290    0.41901360558350
C         0.00296418224069    0.13590507266692   -1.12913716550548
C        -1.30609230639685    0.25859356838584   -0.69313956536938
H        -4.86964196108240    0.26198409313815    0.88750420181670
H        -3.73170793836663    1.44437257715890    0.19638969206928
H        -4.10657109950965   -0.06190146178129   -0.68862771986704
H        -1.06915592419653   -1.51427074620947    2.16131951786162
H         1.26192297318894   -1.72408299941651    1.37624383656362
H         2.79096638128416   -1.64100003779890   -0.55668612359930
H         2.39214327410523   -0.67179924332230   -1.97330573445024
H         4.27754001145835    0.35173929132343   -0.71982981075272
H         3.57771022556614    2.15976959350917    0.74115426292529
H         1.87195551670690    1.49519281436160    0.78031467983847
H         0.29266530938000    0.61037206660126   -2.05606706828143
H        -2.00587423584405    0.82223487843551   -1.29024728515589

 Bond Distances (Angstroems)
 ---------------------------
C1-O2=1.4056         C1-H12=1.0889        C1-H13=1.0952        C1-H14=1.0951        O2-C1=1.4056         O2-C3=1.3650         
C3-O2=1.3650         C3-C4=1.3952         C3-C11=1.3893        C4-C3=1.3952         C4-C5=1.3780         C4-H15=1.0786        
C5-C4=1.3780         C5-C6=1.3910         C5-H16=1.0804        C6-C5=1.3910         C6-C7=1.5013         C6-C10=1.3858        
C7-C6=1.5013         C7-C8=1.5035         C7-H17=1.0946        C7-H18=1.0946        C8-C7=1.5035         C8-C9=1.3189         
C8-H19=1.0834        C9-C8=1.3189         C9-H20=1.0769        C9-H21=1.0773        C10-C6=1.3858        C10-C11=1.3852       
C10-H22=1.0809       C11-C3=1.3893        C11-C10=1.3852       C11-H23=1.0789       H12-C1=1.0889        H13-C1=1.0952        
H14-C1=1.0951        H15-C4=1.0786        H16-C5=1.0804        H17-C7=1.0946        H18-C7=1.0946        H19-C8=1.0834        
H20-C9=1.0769        H21-C9=1.0773        H22-C10=1.0809       H23-C11=1.0789       
 C  H  Rav=1.0854 sigma=0.0073  Rmin=1.0769  Rmax=1.0952    12
 C  C  Rav=1.4054 sigma=0.0562  Rmin=1.3189  Rmax=1.5035     9
 O  C  Rav=1.3853 sigma=0.0203  Rmin=1.3650  Rmax=1.4056     2

 selected bond angles (degree)
 --------------------
H12-C1-O2=105.70               H13-C1-O2=111.65               H13-C1-H12=109.23              H14-C1-O2=111.57               
H14-C1-H12=109.26              H14-C1-H13=109.33              C3-O2-C1=118.46                C4-C3-O2=115.88                
C11-C3-O2=125.10               C11-C3-C4=119.02               C5-C4-C3=120.45                H15-C4-C3=118.35               
H15-C4-C5=121.21               C6-C5-C4=120.97                H16-C5-C4=119.48               H16-C5-C6=119.55               
C7-C6-C5=120.85                C10-C6-C5=118.21               C10-C6-C7=120.92               C8-C7-C6=113.60                
H17-C7-C6=109.79               H17-C7-C8=108.08               H18-C7-C6=109.85               H18-C7-C8=108.10               
H18-C7-H17=107.21              C9-C8-C7=125.77                H19-C8-C7=114.10               H19-C8-C9=120.14               
H20-C9-C8=121.63               H21-C9-C8=121.95               H21-C9-H20=116.42              C11-C10-C6=121.51              
H22-C10-C6=119.52              H22-C10-C11=118.97             

 selected dihedral angles (degree)
 ---------------------------------
C3-O2-C1-H12=178.37           C3-O2-C1-H13=297.04           C3-O2-C1-H14= 59.71           C4-C3-O2-C1=181.74            
C11-C3-O2-C1=  1.66           C5-C4-C3-O2=179.62            C5-C4-C3-C11=359.70           H15-C4-C3-O2=359.76           
H15-C4-C3-C11=179.83          C6-C5-C4-C3=359.93            C6-C5-C4-H15=179.80           H16-C5-C4-C3=179.92           
H16-C5-C4-H15=359.78          C7-C6-C5-C4=179.08            C7-C6-C5-H16=359.10           C10-C6-C5-C4=  0.45           
C10-C6-C5-H16=180.46          C8-C7-C6-C5=270.90            C8-C7-C6-C10= 89.50           H17-C7-C6-C5= 32.04           
H17-C7-C6-C10=210.64          H18-C7-C6-C5=149.69           H18-C7-C6-C10=328.29          C9-C8-C7-C6=  0.57            
C9-C8-C7-H17=238.48           C9-C8-C7-H18=122.75           H19-C8-C7-C6=180.54           H19-C8-C7-H17= 58.45          
H19-C8-C7-H18=302.72          H20-C9-C8-C7=179.96           H20-C9-C8-H19=  0.00          H21-C9-C8-C7=  0.00           
H21-C9-C8-H19=180.05          C11-C10-C6-C5=359.53          C11-C10-C6-C7=180.89          H22-C10-C6-C5=179.49          
H22-C10-C6-C7=  0.85          
           -------------------------------------------------
          |                Final Singlepoint                |
           -------------------------------------------------

          ...................................................
          :                      SETUP                      :
          :.................................................:
          :  # basis functions                  56          :
          :  # atomic orbitals                  56          :
          :  # shells                           34          :
          :  # electrons                        58          :
          :  max. iterations                   250          :
          :  Hamiltonian                  GFN2-xTB          :
          :  restarted?                      false          :
          :  GBSA solvation                  false          :
          :  PC potential                    false          :
          :  electronic temp.          300.0000000     K    :
          :  accuracy                    1.0000000          :
          :  -> integral cutoff          0.2500000E+02      :
          :  -> integral neglect         0.1000000E-07      :
          :  -> SCF convergence          0.1000000E-05 Eh   :
          :  -> wf. convergence          0.1000000E-03 e    :
          :  Broyden damping             0.4000000          :
          ...................................................

 iter      E             dE          RMSdq      gap      omega  full diag
   1    -32.0711454 -0.320711E+02  0.721E-05    4.16       0.0  T
   2    -32.0711454 -0.706990E-11  0.486E-05    4.16     429.1  T
   3    -32.0711454 -0.540012E-11  0.321E-05    4.16     649.9  T

   *** convergence criteria satisfied after 3 iterations ***

         #    Occupation            Energy/Eh            Energy/eV
      -------------------------------------------------------------
         1        2.0000           -0.7112993             -19.3554
       ...           ...                  ...                  ...
        23        2.0000           -0.4432629             -12.0618
        24        2.0000           -0.4339177             -11.8075
        25        2.0000           -0.4202483             -11.4355
        26        2.0000           -0.4156498             -11.3104
        27        2.0000           -0.4007345             -10.9045
        28        2.0000           -0.3957592             -10.7692
        29        2.0000           -0.3711063             -10.0983 (HOMO)
        30                         -0.2182106              -5.9378 (LUMO)
        31                         -0.2083306              -5.6690
        32                         -0.1960682              -5.3353
        33                         -0.0857909              -2.3345
        34                          0.0368164               1.0018
       ...                                ...                  ...
        56                          0.6734024              18.3242
      -------------------------------------------------------------
                  HL-Gap            0.1528957 Eh            4.1605 eV
             Fermi-level           -0.2946585 Eh           -8.0181 eV

 SCC (total)                   0 d,  0 h,  0 min,  0.230 sec
 SCC setup                      ...        0 min,  0.010 sec (  4.357%)
 Dispersion                     ...        0 min,  0.014 sec (  6.110%)
 classical contributions        ...        0 min,  0.019 sec (  8.376%)
 integral evaluation            ...        0 min,  0.036 sec ( 15.413%)
 iterations                     ...        0 min,  0.003 sec (  1.358%)
 molecular gradient             ...        0 min,  0.148 sec ( 64.313%)
 printout                       ...        0 min,  0.000 sec (  0.048%)

         :::::::::::::::::::::::::::::::::::::::::::::::::::::
         ::                     SUMMARY                     ::
         :::::::::::::::::::::::::::::::::::::::::::::::::::::
         :: total energy             -31.553466102889 Eh    ::
         :: gradient norm              0.000338716755 Eh/a0 ::
         :: HOMO-LUMO gap              4.160505068265 eV    ::
         ::.................................................::
         :: SCC energy               -32.071145390941 Eh    ::
         :: -> isotropic ES            0.016971386326 Eh    ::
         :: -> anisotropic ES          0.005055033478 Eh    ::
         :: -> anisotropic XC          0.016206159168 Eh    ::
         :: -> dispersion             -0.019138798004 Eh    ::
         :: repulsion energy           0.517643847244 Eh    ::
         :: add. restraining           0.000000000000 Eh    ::
         :: total charge               0.000000000000 e     ::
         :::::::::::::::::::::::::::::::::::::::::::::::::::::

           -------------------------------------------------
          |                Property Printout                |
           -------------------------------------------------

    * Orbital Energies and Occupations

         #    Occupation            Energy/Eh            Energy/eV
      -------------------------------------------------------------
         1        2.0000           -0.7112993             -19.3554
       ...           ...                  ...                  ...
        17        2.0000           -0.4902860             -13.3414
        18        2.0000           -0.4800992             -13.0642
        19        2.0000           -0.4747055             -12.9174
        20        2.0000           -0.4668890             -12.7047
        21        2.0000           -0.4621700             -12.5763
        22        2.0000           -0.4560652             -12.4102
        23        2.0000           -0.4432629             -12.0618
        24        2.0000           -0.4339177             -11.8075
        25        2.0000           -0.4202483             -11.4355
        26        2.0000           -0.4156498             -11.3104
        27        2.0000           -0.4007345             -10.9045
        28        2.0000           -0.3957592             -10.7692
        29        2.0000           -0.3711063             -10.0983 (HOMO)
        30                         -0.2182106              -5.9378 (LUMO)
        31                         -0.2083306              -5.6690
        32                         -0.1960682              -5.3353
        33                         -0.0857909              -2.3345
        34                          0.0368164               1.0018
        35                          0.0973112               2.6480
        36                          0.1152470               3.1360
        37                          0.1215332               3.3071
        38                          0.1303030               3.5457
        39                          0.1500953               4.0843
        40                          0.1632513               4.4423
       ...                                ...                  ...
        56                          0.6734024              18.3242
      -------------------------------------------------------------
                  HL-Gap            0.1528957 Eh            4.1605 eV
             Fermi-level           -0.2946585 Eh           -8.0181 eV

     #   Z          covCN         q      C6AA      α(0)
     1   6 C        3.644     0.040    20.235     6.466
     2   8 O        1.705    -0.274    18.547     5.815
     3   6 C        2.866     0.139    24.961     8.190
     4   6 C        2.919    -0.056    29.395     8.891
     5   6 C        2.925    -0.037    28.919     8.819
     6   6 C        2.968     0.006    27.888     8.662
     7   6 C        3.811    -0.062    21.680     6.628
     8   6 C        2.886    -0.025    28.624     8.771
     9   6 C        2.836    -0.094    30.352     9.028
    10   6 C        2.927    -0.039    28.968     8.826
    11   6 C        2.916    -0.068    29.702     8.937
    12   1 H        0.925     0.059     2.206     2.323
    13   1 H        0.924     0.038     2.476     2.461
    14   1 H        0.924     0.038     2.476     2.461
    15   1 H        0.926     0.045     2.379     2.412
    16   1 H        0.926     0.035     2.515     2.480
    17   1 H        0.924     0.046     2.368     2.407
    18   1 H        0.924     0.045     2.377     2.411
    19   1 H        0.925     0.029     2.602     2.523
    20   1 H        0.926     0.033     2.540     2.492
    21   1 H        0.926     0.037     2.485     2.465
    22   1 H        0.926     0.031     2.565     2.505
    23   1 H        0.926     0.032     2.563     2.503

 Mol. C6AA /au·bohr⁶  :       5616.757726
 Mol. C8AA /au·bohr⁸  :     132150.433074
 Mol. α(0) /au        :        118.474412


Wiberg/Mayer (AO) data.
largest (>0.10) Wiberg bond orders for each atom

 ---------------------------------------------------------------------------
     #   Z sym  total        # sym  WBO       # sym  WBO       # sym  WBO
 ---------------------------------------------------------------------------
     1   6 C    3.949 --     2 O    0.988    12 H    0.980    14 H    0.977
                            13 H    0.977
     2   8 O    2.222 --     3 C    1.054     1 C    0.988
     3   6 C    3.933 --    11 C    1.379     4 C    1.349     2 O    1.054
     4   6 C    3.988 --     5 C    1.474     3 C    1.349    15 H    0.968
                            10 C    0.109
     5   6 C    3.991 --     4 C    1.474     6 C    1.391    16 H    0.969
                            11 C    0.103
     6   6 C    3.989 --    10 C    1.422     5 C    1.391     7 C    1.011
     7   6 C    3.998 --     6 C    1.011     8 C    1.009    18 H    0.956
                            17 H    0.956
     8   6 C    3.990 --     9 C    1.979     7 C    1.009    19 H    0.966
     9   6 C    3.992 --     8 C    1.979    20 H    0.977    21 H    0.974
    10   6 C    3.992 --    11 C    1.437     6 C    1.422    22 H    0.970
                             4 C    0.109
    11   6 C    3.988 --    10 C    1.437     3 C    1.379    23 H    0.966
                             5 C    0.103
    12   1 H    0.996 --     1 C    0.980
    13   1 H    0.998 --     1 C    0.977
    14   1 H    0.998 --     1 C    0.977
    15   1 H    0.998 --     4 C    0.968
    16   1 H    0.998 --     5 C    0.969
    17   1 H    0.997 --     7 C    0.956
    18   1 H    0.997 --     7 C    0.956
    19   1 H    0.998 --     8 C    0.966
    20   1 H    0.999 --     9 C    0.977
    21   1 H    0.999 --     9 C    0.974
    22   1 H    0.999 --    10 C    0.970
    23   1 H    0.999 --    11 C    0.966
 ---------------------------------------------------------------------------

Topologies differ in total number of bonds
Writing topology from bond orders to xtbtopo.mol

molecular dipole:
                 x           y           z       tot (Debye)
 q only:       -0.116       0.077      -0.363
   full:       -0.172       0.156      -0.497       1.393
molecular quadrupole (traceless):
                xx          xy          yy          xz          yz          zz
 q only:        4.597      -3.929      -2.018       1.558       0.084      -2.579
  q+dip:        5.513      -5.156      -3.145       1.327      -0.738      -2.368
   full:        5.040      -4.740      -2.282       2.152       0.040      -2.758

           -------------------------------------------------
          |                Geometry Summary                 |
           -------------------------------------------------

      molecular mass/u    :      148.2020529
   center of mass at/Å    :       -0.1301939      -0.1217339       0.0837258
  moments of inertia/u·Å² :        0.1724163E+03   0.8916061E+03   0.9257615E+03
rotational constants/cm⁻¹ :        0.9777283E-01   0.1890704E-01   0.1820948E-01

 * 21 selected distances

     #   Z          #   Z                                           value/Å
     1   6 C        2   8 O                                       1.4055971 (max)
     2   8 O        3   6 C                                       1.3649744
     3   6 C        4   6 C                                       1.3952341
     4   6 C        5   6 C                                       1.3780447
     5   6 C        6   6 C                                       1.3910422
     8   6 C        9   6 C                                       1.3188780
     6   6 C       10   6 C                                       1.3857881
     3   6 C       11   6 C                                       1.3893257
    10   6 C       11   6 C                                       1.3851986
     1   6 C       12   1 H                                       1.0888619
     1   6 C       13   1 H                                       1.0951625
     1   6 C       14   1 H                                       1.0950635
     4   6 C       15   1 H                                       1.0786234
     5   6 C       16   1 H                                       1.0804304
     7   6 C       17   1 H                                       1.0946107
     7   6 C       18   1 H                                       1.0946192
     8   6 C       19   1 H                                       1.0833516
     9   6 C       20   1 H                                       1.0769188 (min)
     9   6 C       21   1 H                                       1.0772611
    10   6 C       22   1 H                                       1.0808537
    11   6 C       23   1 H                                       1.0788531

 * 3 distinct bonds (by element types)

   Z      Z             #   av. dist./Å        max./Å        min./Å
   1 H    6 C          12     1.0853842     1.0951625     1.0769188
   6 C    6 C           7     1.3776445     1.3952341     1.3188780
   6 C    8 O           2     1.3852858     1.4055971     1.3649744


optimized geometry written to: xtbopt.xyz


           -------------------------------------------------
          | TOTAL ENERGY              -31.553466102889 Eh   |
          | GRADIENT NORM               0.000338716755 Eh/α |
          | HOMO-LUMO GAP               4.160505068265 eV   |
           -------------------------------------------------

------------------------------------------------------------------------
 * finished run on 2022/03/17 at 02:19:30.203     
------------------------------------------------------------------------
 total:
 * wall-time:     0 d,  0 h,  0 min,  2.852 sec
 *  cpu-time:     0 d,  0 h,  1 min, 32.360 sec
 * ratio c/w:    32.383 speedup
 SCF:
 * wall-time:     0 d,  0 h,  0 min,  0.207 sec
 *  cpu-time:     0 d,  0 h,  0 min,  6.744 sec
 * ratio c/w:    32.614 speedup
 ANC optimizer:
 * wall-time:     0 d,  0 h,  0 min,  2.494 sec
 *  cpu-time:     0 d,  0 h,  1 min, 21.707 sec
 * ratio c/w:    32.763 speedup

