23
 energy: -31.550197133865 gnorm: 0.045803547200 xtb: 6.3.3 (4ae9cef)
C        -3.99661200000000    0.35784600000000    0.29692400000000
O        -3.00197600000000   -0.35467700000000    1.02105900000000
C        -1.74316600000000   -0.37268200000000    0.48614100000000
C        -0.80214100000000   -1.08590300000000    1.23173700000000
C         0.52312400000000   -1.18534100000000    0.80147600000000
C         0.92720600000000   -0.57287200000000   -0.39077400000000
C         2.36183700000000   -0.66370000000000   -0.85412000000000
C         3.29202700000000    0.42309400000000   -0.38119000000000
C         3.00819200000000    1.46240300000000    0.41632600000000
C        -0.01808000000000    0.14822400000000   -1.13272800000000
C        -1.34516300000000    0.24606500000000   -0.69868500000000
H        -4.93702200000000    0.27425900000000    0.85019700000000
H        -3.74657400000000    1.42150500000000    0.22476000000000
H        -4.15373500000000   -0.08035100000000   -0.69424300000000
H        -1.10353700000000   -1.56687600000000    2.15897800000000
H         1.23814100000000   -1.73928300000000    1.40524300000000
H         2.77443600000000   -1.63212300000000   -0.54281000000000
H         2.37771500000000   -0.67904900000000   -1.95165800000000
H         4.31480200000000    0.33109400000000   -0.74404900000000
H         3.77708200000000    2.18048600000000    0.68462000000000
H         2.01541700000000    1.62823900000000    0.82351800000000
H         0.27663700000000    0.64474100000000   -2.05487000000000
H        -2.03860800000000    0.81490100000000   -1.30840100000000
23
 energy: -31.552855263589 gnorm: 0.013583225748 xtb: 6.3.3 (4ae9cef)
C        -3.99165970382852    0.35743326571688    0.29387714342083
O        -2.99647566569318   -0.34820176541104    1.00659133692494
C        -1.73280830187858   -0.36852409704078    0.48595136962542
C        -0.79026788071301   -1.07788922915888    1.22879765772610
C         0.52326797239135   -1.16566625284810    0.80262419607396
C         0.93169273781666   -0.55067541524810   -0.37666721105606
C         2.35594932408886   -0.66360384115522   -0.85427054124050
C         3.28075656733468    0.41964129799997   -0.38096067943430
C         2.98885266879676    1.43997828277886    0.40684521528062
C        -0.01263811515112    0.15489765135392   -1.11243297205189
C        -1.33286717277074    0.24865088772152   -0.69282181639682
H        -4.91485785611601    0.25497935334058    0.86781034942140
H        -3.74092848075927    1.41906216200004    0.21228864293858
H        -4.14297462036190   -0.07075157869607   -0.70127569031260
H        -1.09946325974616   -1.55989159513019    2.14531790545952
H         1.23427516751682   -1.72605342418272    1.39415452794150
H         2.77284982221666   -1.62519881072374   -0.53163535078781
H         2.37437025622386   -0.66548458792088   -1.95082208625527
H         4.29827477777819    0.32247425516076   -0.74583354757961
H         3.74412142560096    2.16028166253240    0.68050303158758
H         2.00002638251467    1.59867298263351    0.80683572121004
H         0.27870948617134    0.63786273684869   -2.03549977242728
H        -2.02820353143232    0.80800605942857   -1.30192643006833
23
 energy: -31.553223670722 gnorm: 0.004346665773 xtb: 6.3.3 (4ae9cef)
C        -3.98458061032962    0.35738964598631    0.29152238033878
O        -2.98969729740754   -0.34174447085037    1.00072796381555
C        -1.72302018576349   -0.36077048871142    0.49045814189563
C        -0.77954705558509   -1.07007880243506    1.23257217277427
C         0.52687560352483   -1.15981452048884    0.80243314149393
C         0.93530449911554   -0.54974576382010   -0.37752455817126
C         2.35452152273962   -0.66845058233498   -0.85829077543014
C         3.27583500608482    0.41656659036325   -0.38270303710675
C         2.96725554894465    1.42786588498711    0.40392215282669
C        -0.00730386023159    0.15692996158546   -1.10667866877490
C        -1.32336102745396    0.25634966537342   -0.68753374892861
H        -4.89798079036094    0.24403717719431    0.87476596938012
H        -3.74060393829787    1.42054595801536    0.20419452984416
H        -4.13729483270198   -0.06573717871797   -0.70600369347571
H        -1.09625175273196   -1.55192188596815    2.14387682439224
H         1.23992987634409   -1.71659190343632    1.39185694668860
H         2.77091835620676   -1.62740161171336   -0.53196031214474
H         2.37152064414821   -0.66552225408507   -1.95339241791216
H         4.29187592953119    0.31816825218060   -0.74779833657469
H         3.70805560890558    2.15602935835614    0.68896795404345
H         1.97521798953230    1.57309004227771    0.79622477086325
H         0.28467240900077    0.64071798821341   -2.02721614103540
H        -2.02233964321433    0.81008893802856   -1.29497025880232
23
 energy: -31.553335315098 gnorm: 0.002360985388 xtb: 6.3.3 (4ae9cef)
C        -3.97901909990572    0.35831221761735    0.29150815747696
O        -2.98338053778491   -0.33626358377414    0.99957700311219
C        -1.71620044836578   -0.35633604241977    0.49273793289800
C        -0.77213607112792   -1.06485147043139    1.23622039435977
C         0.53190890829200   -1.15746166946402    0.80291991466459
C         0.93906892295998   -0.55212863238498   -0.38076807599191
C         2.35585262489573   -0.67438213260377   -0.86321106068043
C         3.27339142720533    0.41383463560108   -0.38359193818331
C         2.94768067619354    1.41911552413492    0.40450877034153
C        -0.00236763590732    0.15878089204680   -1.10659034441805
C        -1.31721301194927    0.26175234404198   -0.68549789174448
H        -4.88916655618818    0.24095699795713    0.87709304070004
H        -3.74074004531564    1.42313292709814    0.20054743374719
H        -4.13334609667117   -0.06401796366524   -0.70683318667197
H        -1.09263950853992   -1.54190974600021    2.14836678722716
H         1.24708791506054   -1.71360859756246    1.39078670899333
H         2.77208361352021   -1.63254645043386   -0.53645613544277
H         2.37234237326649   -0.66973541891540   -1.95769883756000
H         4.28989239524181    0.31925782719315   -0.74694781127283
H         3.67484047013283    2.15751913282587    0.69898915435785
H         1.94968180439886    1.55025776360095    0.78746537132593
H         0.29016788786094    0.64274539296861   -2.02716764742547
H        -2.01778800727250    0.81757605256922   -1.28850673981330
23
 energy: -31.553397888978 gnorm: 0.002610414575 xtb: 6.3.3 (4ae9cef)
C        -3.97344304351445    0.36042451130744    0.29309321973153
O        -2.97593432320520   -0.32876554010859    1.00188355033107
C        -1.70936335358162   -0.35069031050081    0.49491239447740
C        -0.76547016047655   -1.05966877442982    1.23924781451164
C         0.53691702514516   -1.15825295021247    0.80161266557182
C         0.94182052660296   -0.55841837089812   -0.38674807036571
C         2.35815888861377   -0.68040399496510   -0.86849614064741
C         3.27009574450404    0.41266783668888   -0.38425446938181
C         2.92632712101573    1.41214319199378    0.40475713034579
C         0.00183988089607    0.15767982529237   -1.11040780400658
C        -1.31169780032691    0.26636225634793   -0.68491502848966
H        -4.88347821514726    0.24110474923417    0.87801848313892
H        -3.74084963003218    1.42682367621584    0.19953527800534
H        -4.12763543818674   -0.06359429169077   -0.70523231145309
H        -1.08735796129837   -1.52978147983684    2.15490957476234
H         1.25461196696975   -1.71244845955284    1.38925769562982
H         2.77575824489030   -1.63796791953257   -0.54227378255352
H         2.37615458597338   -0.67505596548997   -1.96278165149157
H         4.28868970733511    0.32457501688784   -0.74249723069544
H         3.63999396036447    2.15896605880855    0.71211330768524
H         1.92249819567864    1.52543815776029    0.77995309501067
H         0.29526988190917    0.64227294889318   -2.03102241827250
H        -2.01290380412935    0.82658982778761   -1.28321430184430
23
 energy: -31.553423388997 gnorm: 0.002075875265 xtb: 6.3.3 (4ae9cef)
C        -3.96981429878227    0.36305541555094    0.29508000963265
O        -2.97080658403489   -0.32232185180638    1.00593236399034
C        -1.70556112941514   -0.34722659222975    0.49571601466185
C        -0.76204961071358   -1.05687485054347    1.23999744267133
C         0.53953868364677   -1.16011939956274    0.79958949020967
C         0.94269271310793   -0.56356443762014   -0.39126187223380
C         2.35979434833319   -0.68357877217238   -0.87163385793814
C         3.26692940267129    0.41186838768883   -0.38197635465480
C         2.91400142757662    1.40710392594916    0.40858833087019
C         0.00359966392395    0.15498587966436   -1.11443856269735
C        -1.30901482135288    0.26748597436843   -0.68583112571908
H        -4.88124434193247    0.24338452169875    0.87841770841978
H        -3.74017969368695    1.43002320341671    0.20016109055974
H        -4.12217048084156   -0.06386330312974   -0.70241835896960
H        -1.08275860194061   -1.52249661057660    2.15870423861597
H         1.25804243937365   -1.71407974316691    1.38686770753393
H         2.77922525034195   -1.64089964508558   -0.54656072187064
H         2.38017046176620   -0.67698630544067   -1.96608832491393
H         4.28683870294378    0.33075700963942   -0.73796255810288
H         3.61901507100616    2.16058909334762    0.71866354618208
H         1.90627896295007    1.51303920759507    0.77549379645065
H         0.29717323222919    0.63852702242172   -2.03579045074032
H        -2.00969879717054    0.83119186999331   -1.28179855195765
23
 energy: -31.553442694718 gnorm: 0.001217466246 xtb: 6.3.3 (4ae9cef)
C        -3.96578559775106    0.36680663423737    0.29756844905484
O        -2.96503049994201   -0.31336975245411    1.01226123724243
C        -1.70177636980831   -0.34324253130236    0.49663413572783
C        -0.75871610843916   -1.05409743244501    1.24001888534240
C         0.54189415479546   -1.16247476309218    0.79664877460359
C         0.94304712722042   -0.56936653550310   -0.39641430823011
C         2.36138634267783   -0.68614606530608   -0.87498497172827
C         3.26154788773422    0.41321234095860   -0.38106878502218
C         2.90025574412427    1.40528190662940    0.40955001769997
C         0.00447542897461    0.15022306685354   -1.11963074447521
C        -1.30680606945209    0.26728763292640   -0.68748372307913
H        -4.87892398124307    0.24701414514541    0.87915136493190
H        -3.73902289024385    1.43400590484155    0.20020578712844
H        -4.11477708531859   -0.06490870126985   -0.69822539382854
H        -1.07689343984362   -1.51571209520683    2.16182204584765
H         1.26048216435407   -1.71703749834875    1.38323118678840
H         2.78358265106699   -1.64270499863821   -0.55034190671393
H         2.38499374083241   -0.67841396880708   -1.96958335232541
H         4.28400469837880    0.33794381631436   -0.73110747956753
H         3.59969753931286    2.15940826096372    0.72850934598810
H         1.89128066634359    1.50084669662473    0.77506257308237
H         0.29760469269632    0.63146018684391   -2.04229539262864
H        -2.00651879647019    0.83398375003451   -1.28207674583895
23
 energy: -31.553455811636 gnorm: 0.001356731533 xtb: 6.3.3 (4ae9cef)
C        -3.96145721642950    0.37219409075967    0.30039485189016
O        -2.95932386247367   -0.30229220166078    1.01992241978146
C        -1.69847634908671   -0.33976953490464    0.49771094174562
C        -0.75586931024257   -1.05294462950409    1.23883939064865
C         0.54336936233506   -1.16607856057460    0.79258679771053
C         0.94309022919066   -0.57515241733047   -0.40140461319648
C         2.36279622555250   -0.68738262919249   -0.87782940341941
C         3.25583843552559    0.41373300352495   -0.37682848101944
C         2.88897239369298    1.40186757329147    0.41579334980222
C         0.00425449728511    0.14341405620007   -1.12484054853134
C        -1.30540911326129    0.26495347833081   -0.68966424995118
H        -4.87529748102500    0.25266620683666    0.88136973539941
H        -3.73659562871265    1.43907710154080    0.19894607958023
H        -4.10662658897489   -0.06531092076237   -0.69300273710831
H        -1.07091560346486   -1.51227242552768    2.16266883014972
H         1.26124591321520   -1.72155209738456    1.37860188698215
H         2.78778966218322   -1.64315530402343   -0.55433818261389
H         2.38971206237338   -0.67634706619627   -1.97242071757387
H         4.27976710657764    0.34643483415105   -0.72447721164578
H         3.58339640099964    2.15981541020676    0.73477135897321
H         1.87793301194803    1.49500016289327    0.77505252780943
H         0.29599482800149    0.62097588081884   -2.04949913955555
H        -2.00418697520954    0.83212598850695   -1.28490188585754
23
 energy: -31.553462492516 gnorm: 0.000785740828 xtb: 6.3.3 (4ae9cef)
C        -3.95958576602599    0.37540686538802    0.30170584153353
O        -2.95741013731792   -0.29776701217914    1.02210977096163
C        -1.69762613783302   -0.34005526358001    0.49778034319184
C        -0.75484370142132   -1.05386309025253    1.23806574613781
C         0.54386257259410   -1.16731231092005    0.79116474099394
C         0.94347205536085   -0.57681038949808   -0.40302832092098
C         2.36338648950907   -0.68689813683360   -0.87870252624075
C         3.25361084037397    0.41536152006710   -0.37611097490526
C         2.88476605260333    1.40265692687817    0.41672357767259
C         0.00361844096298    0.13950978657313   -1.12693711004201
C        -1.30555434479072    0.26200012719899   -0.69122269762499
H        -4.87222528165611    0.25685210698068    0.88412177987980
H        -3.73441677089165    1.44193487901045    0.19742247732792
H        -4.10514715313339   -0.06387615618150   -0.69068751307029
H        -1.06945372241865   -1.51315262293104    2.16188445356091
H         1.26134871926662   -1.72333002801827    1.37698755930876
H         2.78946523108348   -1.64204407870617   -0.55531876788804
H         2.39100819462621   -0.67434193573028   -1.97302299394029
H         4.27826174492577    0.34926092972710   -0.72173222224334
H         3.57968293511725    2.15935920071110    0.73860721747581
H         1.87416913136657    1.49433461424562    0.77797592626004
H         0.29419897949936    0.61520883100453   -2.05284319420504
H        -2.00458637180096    0.82756523704569   -1.28749211322360
23
 energy: -31.553466102710 gnorm: 0.000338963256 xtb: 6.3.3 (4ae9cef)
C        -3.95830104007130    0.37823185485677    0.30306916027490
O        -2.95628403563396   -0.29538905707358    1.02272187839350
C        -1.69728376669808   -0.34126045077990    0.49739408835617
C        -0.75429985052200   -1.05531222926243    1.23738703254516
C         0.54417621960482   -1.16863176169494    0.79003280081389
C         0.94382084735879   -0.57821291362334   -0.40440771677422
C         2.36397933426270   -0.68607763775930   -0.87914204540087
C         3.25275214506294    0.41662578250144   -0.37450352188555
C         2.88261773810162    1.40291694578290    0.41901360558350
C         0.00296418224069    0.13590507266692   -1.12913716550548
C        -1.30609230639685    0.25859356838584   -0.69313956536938
H        -4.86964196108240    0.26198409313815    0.88750420181670
H        -3.73170793836663    1.44437257715890    0.19638969206928
H        -4.10657109950965   -0.06190146178129   -0.68862771986704
H        -1.06915592419653   -1.51427074620947    2.16131951786162
H         1.26192297318894   -1.72408299941651    1.37624383656362
H         2.79096638128416   -1.64100003779890   -0.55668612359930
H         2.39214327410523   -0.67179924332230   -1.97330573445024
H         4.27754001145835    0.35173929132343   -0.71982981075272
H         3.57771022556614    2.15976959350917    0.74115426292529
H         1.87195551670690    1.49519281436160    0.78031467983847
H         0.29266530938000    0.61037206660126   -2.05606706828143
H        -2.00587423584405    0.82223487843551   -1.29024728515589
