      -----------------------------------------------------------      
     |                   =====================                   |     
     |                           x T B                           |     
     |                   =====================                   |     
     |                         S. Grimme                         |     
     |          Mulliken Center for Theoretical Chemistry        |     
     |                    University of Bonn                     |     
      -----------------------------------------------------------      

   * xtb version 6.3.3 (4ae9cef) compiled by 'conda@95abc7406d43' on 2020-10-14

   xtb is free software: you can redistribute it and/or modify it under
   the terms of the GNU Lesser General Public License as published by
   the Free Software Foundation, either version 3 of the License, or
   (at your option) any later version.
   
   xtb is distributed in the hope that it will be useful,
   but WITHOUT ANY WARRANTY; without even the implied warranty of
   MERCHANTABILITY or FITNESS FOR A PARTICULAR PURPOSE.  See the
   GNU Lesser General Public License for more details.
   
   Cite this work as:
   * C. Bannwarth, E. Caldeweyher, S. Ehlert, A. Hansen, P. Pracht,
     J. Seibert, S. Spicher, S. Grimme, WIREs Comput. Mol. Sci., 2020,
     e01493. DOI: 10.1002/wcms.1493
   
   for GFN2-xTB:
   * S. Grimme, C. Bannwarth, P. Shushkov, J. Chem. Theory Comput., 2017,
     13, 1989-2009. DOI: 10.1021/acs.jctc.7b00118
   for GFN1-xTB:
   * C. Bannwarth, S. Ehlert and S. Grimme., J. Chem. Theory Comput., 2019,
     15, 1652-1671. DOI: 10.1021/acs.jctc.8b01176
   for GFN0-xTB:
   * P. Pracht, E. Caldeweyher, S. Ehlert, S. Grimme, ChemRxiv, 2019, preprint.
     DOI: 10.26434/chemrxiv.8326202.v1
   for GFN-FF:
   * S. Spicher and S. Grimme, Angew. Chem. Int. Ed., 2020, 59, 15665-15673.
     DOI: 10.1002/anie.202004239
   
   for DFT-D4:
   * E. Caldeweyher, C. Bannwarth and S. Grimme, J. Chem. Phys., 2017,
     147, 034112. DOI: 10.1063/1.4993215
   * E. Caldeweyher, S. Ehlert, A. Hansen, H. Neugebauer, S. Spicher,
     C. Bannwarth and S. Grimme, J. Chem. Phys., 2019, 150, 154122.
     DOI: 10.1063/1.5090222
   * E. Caldeweyher, J.-M. Mewes, S. Ehlert and S. Grimme, Phys. Chem. Chem. Phys.
     2020, 22, 8499-8512. DOI: 10.1039/D0CP00502A
   
   for sTDA-xTB:
   * S. Grimme and C. Bannwarth, J. Chem. Phys., 2016, 145, 054103.
     DOI: 10.1063/1.4959605
   
   in the mass-spec context:
   * V. Asgeirsson, C. Bauer and S. Grimme, Chem. Sci., 2017, 8, 4879.
     DOI: 10.1039/c7sc00601b
   * J. Koopman and S. Grimme, ACS Omega 2019, 4, 12, 15120-15133.
     DOI: 10.1021/acsomega.9b02011
   
   for metadynamics refer to:
   * S. Grimme, J. Chem. Theory Comput., 2019, 155, 2847-2862
     DOI: 10.1021/acs.jctc.9b00143
   
   with help from (in alphabetical order)
   C. Bannwarth, F. Bohle, G. Brandenburg, E. Caldeweyher, M. Checinski,
   S. Dohm, S. Ehlert, S. Ehrlich, F. März, H. Neugebauer, J. Pisarek,
   P. Pracht, P. Shushkov, and S. Spicher.
   
 * started run on 2022/03/17 at 02:19:08.623     

           -------------------------------------------------
          |                Calculation Setup                |
           -------------------------------------------------

          program call               : xtb alk_0.xyz --opt --chrg 0 --uhf 0 --gfn 2
          coordinate file            : alk_0.xyz
          omp threads                :                    64
          number of atoms            :                    19
          number of electrons        :                    46
          charge                     :                     0
          spin                       :                   0.0
          first test random number   :      0.10973454149930

   ID    Z sym.   atoms
    1    6 C      1-9
    2    1 H      10-19

           -------------------------------------------------
          |                 G F N 2 - x T B                 |
           -------------------------------------------------

        Reference                      10.1021/acs.jctc.8b01176
      * Hamiltonian:
        H0-scaling (s, p, d)           1.850000    2.230000    2.230000
        zeta-weighting                 0.500000
      * Dispersion:
        s8                             2.700000
        a1                             0.520000
        a2                             5.000000
        s9                             5.000000
      * Repulsion:
        kExp                           1.500000    1.000000
        rExp                           1.000000
      * Coulomb:
        alpha                          2.000000
        third order                    shell-resolved
        anisotropic                    true
        a3                             3.000000
        a5                             4.000000
        cn-shift                       1.200000
        cn-exp                         4.000000
        max-rad                        5.000000


          ...................................................
          :                      SETUP                      :
          :.................................................:
          :  # basis functions                  46          :
          :  # atomic orbitals                  46          :
          :  # shells                           28          :
          :  # electrons                        46          :
          :  max. iterations                   250          :
          :  Hamiltonian                  GFN2-xTB          :
          :  restarted?                      false          :
          :  GBSA solvation                  false          :
          :  PC potential                    false          :
          :  electronic temp.          300.0000000     K    :
          :  accuracy                    1.0000000          :
          :  -> integral cutoff          0.2500000E+02      :
          :  -> integral neglect         0.1000000E-07      :
          :  -> SCF convergence          0.1000000E-05 Eh   :
          :  -> wf. convergence          0.1000000E-03 e    :
          :  Broyden damping             0.4000000          :
          ...................................................

 iter      E             dE          RMSdq      gap      omega  full diag
   1    -24.7288027 -0.247288E+02  0.394E+00    4.62       0.0  T
   2    -24.7533608 -0.245582E-01  0.234E+00    4.65       1.0  T
   3    -24.7448506  0.851017E-02  0.102E+00    4.58       1.0  T
   4    -24.7537421 -0.889147E-02  0.455E-01    4.64       1.0  T
   5    -24.7561619 -0.241974E-02  0.716E-02    4.64       1.0  T
   6    -24.7562056 -0.437648E-04  0.371E-02    4.63       1.0  T
   7    -24.7562080 -0.239773E-05  0.912E-03    4.63       2.5  T
   8    -24.7562087 -0.638601E-06  0.272E-03    4.63       8.4  T
   9    -24.7562087 -0.842600E-07  0.823E-04    4.63      27.9  T
  10    -24.7562087 -0.122250E-08  0.299E-04    4.63      76.7  T

   *** convergence criteria satisfied after 10 iterations ***

         #    Occupation            Energy/Eh            Energy/eV
      -------------------------------------------------------------
         1        2.0000           -0.6382603             -17.3679
       ...           ...                  ...                  ...
        17        2.0000           -0.4523619             -12.3094
        18        2.0000           -0.4366966             -11.8831
        19        2.0000           -0.4191676             -11.4061
        20        2.0000           -0.4159124             -11.3176
        21        2.0000           -0.3985457             -10.8450
        22        2.0000           -0.3946539             -10.7391
        23        2.0000           -0.3912818             -10.6473 (HOMO)
        24                         -0.2212124              -6.0195 (LUMO)
        25                         -0.2208387              -6.0093
        26                         -0.2036486              -5.5416
        27                         -0.0965229              -2.6265
        28                          0.0813179               2.2128
       ...                                ...                  ...
        46                          0.6360666              17.3083
      -------------------------------------------------------------
                  HL-Gap            0.1700694 Eh            4.6278 eV
             Fermi-level           -0.3062471 Eh           -8.3334 eV

 SCC (total)                   0 d,  0 h,  0 min,  0.220 sec
 SCC setup                      ...        0 min,  0.014 sec (  6.307%)
 Dispersion                     ...        0 min,  0.016 sec (  7.305%)
 classical contributions        ...        0 min,  0.016 sec (  7.240%)
 integral evaluation            ...        0 min,  0.040 sec ( 18.188%)
 iterations                     ...        0 min,  0.010 sec (  4.656%)
 molecular gradient             ...        0 min,  0.124 sec ( 56.225%)
 printout                       ...        0 min,  0.000 sec (  0.050%)

         :::::::::::::::::::::::::::::::::::::::::::::::::::::
         ::                     SUMMARY                     ::
         :::::::::::::::::::::::::::::::::::::::::::::::::::::
         :: total energy             -24.317681426069 Eh    ::
         :: gradient norm              0.038452183023 Eh/a0 ::
         :: HOMO-LUMO gap              4.627824598673 eV    ::
         ::.................................................::
         :: SCC energy               -24.756208742451 Eh    ::
         :: -> isotropic ES            0.002290059739 Eh    ::
         :: -> anisotropic ES          0.004533096787 Eh    ::
         :: -> anisotropic XC          0.019290239995 Eh    ::
         :: -> dispersion             -0.015189677006 Eh    ::
         :: repulsion energy           0.438453508610 Eh    ::
         :: add. restraining           0.000000000000 Eh    ::
         :: total charge              -0.000000000000 e     ::
         :::::::::::::::::::::::::::::::::::::::::::::::::::::

      ----------------------------------------------------------- 
     |                   =====================                   |
     |                        A N C O P T                        |
     |                   =====================                   |
     |               Approximate Normal Coordinate               |
     |                Rational Function Optimizer                |
      ----------------------------------------------------------- 

          ...................................................
          :                      SETUP                      :
          :.................................................:
          :   optimization level            normal          :
          :   max. optcycles                   200          :
          :   ANC micro-cycles                  20          :
          :   degrees of freedom                51          :
          :.................................................:
          :   RF solver                   davidson          :
          :   write xtbopt.log                true          :
          :   linear?                        false          :
          :   energy convergence         0.5000000E-05 Eh   :
          :   grad. convergence          0.1000000E-02 Eh/α :
          :   maximium RF displ.         1.0000000          :
          :   Hlow (freq-cutoff)         0.1000000E-01      :
          :   Hmax (freq-cutoff)         5.0000000          :
          :   S6 in model hess.         20.0000000          :
          ...................................................

generating ANC from model Hessian ...
Using Lindh-Hessian (1995)
 Shifting diagonal of input Hessian by    8.3509157242955580E-003
 Lowest  eigenvalues of input Hessian
    0.000000    0.000000    0.000000    0.000000    0.000000    0.000000
    0.010000    0.010126    0.012543    0.016538    0.021896    0.022331
    0.025380    0.029159    0.032861    0.042367    0.043452    0.054862
 Highest eigenvalues
    1.526512    1.566532    1.828972    1.857396    1.928075    1.943614


........................................................................
.............................. CYCLE    1 ..............................
........................................................................
   1    -24.7562087 -0.247562E+02  0.126E-04    4.63       0.0  T
   2    -24.7562087 -0.730971E-10  0.880E-05    4.63     260.6  T
   3    -24.7562087 -0.141593E-09  0.373E-05    4.63     614.9  T
     SCC iter.                  ...        0 min,  0.002 sec
     gradient                   ...        0 min,  0.059 sec
 * total energy  :   -24.3176814 Eh     change       -0.1046523E-08 Eh
   gradient norm :     0.0384519 Eh/α   predicted     0.0000000E+00 (-100.00%)
   displ. norm   :     0.1871537 α      lambda       -0.3573882E-02
   maximum displ.:     0.0950689 α      in ANC's #4, #15, #2, ...

........................................................................
.............................. CYCLE    2 ..............................
........................................................................
   1    -24.7838915 -0.247839E+02  0.143E-01    4.72       0.0  T
   2    -24.7838965 -0.499410E-05  0.869E-02    4.73       1.0  T
   3    -24.7838756  0.209695E-04  0.383E-02    4.72       1.0  T
   4    -24.7838997 -0.241213E-04  0.469E-03    4.72       4.9  T
   5    -24.7839000 -0.262812E-06  0.243E-03    4.73       9.4  T
   6    -24.7839000 -0.328862E-07  0.112E-03    4.72      20.6  T
   7    -24.7839000 -0.722516E-08  0.321E-04    4.72      71.6  T
   8    -24.7839000 -0.311310E-09  0.828E-05    4.72     277.1  T
     SCC iter.                  ...        0 min,  0.005 sec
     gradient                   ...        0 min,  0.124 sec
 * total energy  :   -24.3198199 Eh     change       -0.2138467E-02 Eh
   gradient norm :     0.0077896 Eh/α   predicted    -0.1849567E-02 ( -13.51%)
   displ. norm   :     0.1351124 α      lambda       -0.3595109E-03
   maximum displ.:     0.1000850 α      in ANC's #2, #4, #15, ...

........................................................................
.............................. CYCLE    3 ..............................
........................................................................
   1    -24.7907249 -0.247907E+02  0.537E-02    4.75       0.0  T
   2    -24.7907258 -0.960570E-06  0.321E-02    4.75       1.0  T
   3    -24.7907243  0.156225E-05  0.972E-03    4.75       2.4  T
   4    -24.7907261 -0.187483E-05  0.162E-03    4.75      14.1  T
   5    -24.7907262 -0.341692E-07  0.552E-04    4.75      41.6  T
   6    -24.7907262  0.327304E-09  0.270E-04    4.75      84.9  T
     SCC iter.                  ...        0 min,  0.009 sec
     gradient                   ...        0 min,  0.131 sec
 * total energy  :   -24.3200563 Eh     change       -0.2364236E-03 Eh
   gradient norm :     0.0030984 Eh/α   predicted    -0.1830425E-03 ( -22.58%)
   displ. norm   :     0.1267241 α      lambda       -0.1383679E-03
   maximum displ.:     0.1058207 α      in ANC's #2, #4, #12, ...

........................................................................
.............................. CYCLE    4 ..............................
........................................................................
   1    -24.7915960 -0.247916E+02  0.386E-02    4.75       0.0  T
   2    -24.7915963 -0.328962E-06  0.228E-02    4.75       1.0  T
   3    -24.7915948  0.147837E-05  0.105E-02    4.75       2.2  T
   4    -24.7915966 -0.173016E-05  0.137E-03    4.75      16.8  T
   5    -24.7915966 -0.193316E-07  0.490E-04    4.75      46.9  T
   6    -24.7915966 -0.118479E-08  0.276E-04    4.75      83.2  T
     SCC iter.                  ...        0 min,  0.004 sec
     gradient                   ...        0 min,  0.141 sec
 * total energy  :   -24.3201589 Eh     change       -0.1025966E-03 Eh
   gradient norm :     0.0020297 Eh/α   predicted    -0.7030184E-04 ( -31.48%)
   displ. norm   :     0.0916501 α      lambda       -0.6594857E-04
   maximum displ.:     0.0838771 α      in ANC's #2, #4, #11, ...

........................................................................
.............................. CYCLE    5 ..............................
........................................................................
   1    -24.7904755 -0.247905E+02  0.293E-02    4.74       0.0  T
   2    -24.7904756 -0.766059E-07  0.175E-02    4.74       1.3  T
   3    -24.7904746  0.991052E-06  0.851E-03    4.75       2.7  T
   4    -24.7904757 -0.112791E-05  0.645E-04    4.74      35.5  T
   5    -24.7904757 -0.215052E-08  0.318E-04    4.74      72.1  T
   6    -24.7904757 -0.149974E-09  0.133E-04    4.74     172.1  T
     SCC iter.                  ...        0 min,  0.004 sec
     gradient                   ...        0 min,  0.139 sec
 * total energy  :   -24.3202094 Eh     change       -0.5052206E-04 Eh
   gradient norm :     0.0014165 Eh/α   predicted    -0.3325574E-04 ( -34.18%)
   displ. norm   :     0.0837500 α      lambda       -0.2861512E-04
   maximum displ.:     0.0824443 α      in ANC's #2, #11, #4, ...

........................................................................
.............................. CYCLE    6 ..............................
........................................................................
   1    -24.7893727 -0.247894E+02  0.320E-02    4.74       0.0  T
   2    -24.7893728 -0.377502E-07  0.190E-02    4.74       1.2  T
   3    -24.7893723  0.444649E-06  0.543E-03    4.74       4.2  T
   4    -24.7893728 -0.498556E-06  0.519E-04    4.74      44.2  T
   5    -24.7893728 -0.538417E-09  0.122E-04    4.74     187.7  T
     SCC iter.                  ...        0 min,  0.003 sec
     gradient                   ...        0 min,  0.140 sec
 * total energy  :   -24.3202425 Eh     change       -0.3301809E-04 Eh
   gradient norm :     0.0012458 Eh/α   predicted    -0.1435491E-04 ( -56.52%)
   displ. norm   :     0.0533299 α      lambda       -0.1516733E-04
   maximum displ.:     0.0512539 α      in ANC's #2, #4, #8, ...

........................................................................
.............................. CYCLE    7 ..............................
........................................................................
   1    -24.7895372 -0.247895E+02  0.266E-02    4.74       0.0  T
   2    -24.7895372 -0.177626E-07  0.156E-02    4.74       1.5  T
   3    -24.7895372  0.306488E-07  0.156E-03    4.74      14.7  T
   4    -24.7895373 -0.401356E-07  0.232E-04    4.74      99.1  T
   5    -24.7895373 -0.139032E-09  0.130E-04    4.74     175.9  T
     SCC iter.                  ...        0 min,  0.003 sec
     gradient                   ...        0 min,  0.141 sec
 * total energy  :   -24.3202618 Eh     change       -0.1938282E-04 Eh
   gradient norm :     0.0007410 Eh/α   predicted    -0.7617394E-05 ( -60.70%)
   displ. norm   :     0.0508034 α      lambda       -0.1154211E-04
   maximum displ.:     0.0478124 α      in ANC's #2, #4, #16, ...

........................................................................
.............................. CYCLE    8 ..............................
........................................................................
   1    -24.7899286 -0.247899E+02  0.257E-02    4.74       0.0  T
   2    -24.7899286 -0.203456E-07  0.151E-02    4.74       1.5  T
   3    -24.7899286  0.804612E-07  0.222E-03    4.74      10.3  T
   4    -24.7899287 -0.952795E-07  0.295E-04    4.74      77.6  T
   5    -24.7899287 -0.119833E-09  0.188E-04    4.74     121.8  T
     SCC iter.                  ...        0 min,  0.003 sec
     gradient                   ...        0 min,  0.137 sec
 * total energy  :   -24.3202752 Eh     change       -0.1335499E-04 Eh
   gradient norm :     0.0005362 Eh/α   predicted    -0.5778394E-05 ( -56.73%)
   displ. norm   :     0.0428724 α      lambda       -0.7605629E-05
   maximum displ.:     0.0406506 α      in ANC's #2, #4, #10, ...

........................................................................
.............................. CYCLE    9 ..............................
........................................................................
   1    -24.7901571 -0.247902E+02  0.223E-02    4.74       0.0  T
   2    -24.7901572 -0.157125E-07  0.132E-02    4.74       1.7  T
   3    -24.7901571  0.134274E-07  0.963E-04    4.74      23.8  T
   4    -24.7901572 -0.208488E-07  0.264E-04    4.74      86.9  T
     SCC iter.                  ...        0 min,  0.003 sec
     gradient                   ...        0 min,  0.129 sec
 * total energy  :   -24.3202817 Eh     change       -0.6552267E-05 Eh
   gradient norm :     0.0006596 Eh/α   predicted    -0.3806693E-05 ( -41.90%)
   displ. norm   :     0.0261385 α      lambda       -0.4457079E-05
   maximum displ.:     0.0252001 α      in ANC's #2, #10, #7, ...

........................................................................
.............................. CYCLE   10 ..............................
........................................................................
   1    -24.7901673 -0.247902E+02  0.132E-02    4.74       0.0  T
   2    -24.7901673 -0.706674E-08  0.782E-03    4.74       2.9  T
   3    -24.7901672  0.243528E-07  0.128E-03    4.74      17.9  T
   4    -24.7901673 -0.285476E-07  0.235E-04    4.74      97.8  T
   5    -24.7901673 -0.213923E-09  0.111E-04    4.74     207.4  T
     SCC iter.                  ...        0 min,  0.003 sec
     gradient                   ...        0 min,  0.155 sec
 * total energy  :   -24.3202860 Eh     change       -0.4260094E-05 Eh
   gradient norm :     0.0003815 Eh/α   predicted    -0.2234121E-05 ( -47.56%)
   displ. norm   :     0.0192128 α      lambda       -0.2230960E-05
   maximum displ.:     0.0185547 α      in ANC's #2, #4, #16, ...

   *** GEOMETRY OPTIMIZATION CONVERGED AFTER 10 ITERATIONS ***

------------------------------------------------------------------------
 total energy gain   :        -0.0026046 Eh       -1.6344 kcal/mol
 total RMSD          :         0.1553220 a0        0.0822 Å
 total power (kW/mol):        -0.6838319 (step)   -3.2123 (real)
------------------------------------------------------------------------

 ANCopt (total)                0 d,  0 h,  0 min,  2.129 sec
 optimizer setup                ...        0 min,  0.000 sec (  0.003%)
 model hessian                  ...        0 min,  0.004 sec (  0.167%)
 ANC generation                 ...        0 min,  0.001 sec (  0.024%)
 coordinate transformation      ...        0 min,  0.000 sec (  0.003%)
 single point calculation       ...        0 min,  1.995 sec ( 93.716%)
 optimization log               ...        0 min,  0.001 sec (  0.029%)
 hessian update                 ...        0 min,  0.128 sec (  6.005%)
 rational function              ...        0 min,  0.001 sec (  0.026%)

================
 final structure:
================
19
 xtb: 6.3.3 (4ae9cef)
C        -2.15687833812384   -0.58791905673163    1.21678895349146
C        -2.42598788797035    0.14675257041492    0.15505205107804
C        -1.41821305369415    0.69135351156086   -0.81880116510865
C        -0.00122946705669    0.32360070587392   -0.48573189621553
C         0.76425347437611    1.13513797840809    0.34175655806835
C         2.06385826328560    0.78775450530103    0.66509988261829
C         2.61557895865848   -0.37938819791548    0.16516263860692
C         1.85964242862949   -1.19696017073628   -0.65744454549522
C         0.56028775371449   -0.84710260884392   -0.97912469053718
H        -1.15006541800183   -0.86693643169356    1.47946712721113
H        -2.93698923515507   -0.94240808058432    1.86910910970426
H        -3.45107828981168    0.40791411397556   -0.07886535093773
H        -1.52333071927734    1.78075431831070   -0.84256804833317
H        -1.67392076695759    0.31899529644441   -1.81598989454377
H         0.33654625530322    2.04593268711622    0.73667318984978
H         2.64872237392969    1.43053553164941    1.30708457486151
H         3.63151674374691   -0.64928362365478    0.41331622959214
H         2.28454441472506   -2.10886176277098   -1.05148719277278
H        -0.02725849032046   -1.48987228612413   -1.61949653113785

 Bond Distances (Angstroems)
 ---------------------------
C1-C2=1.3189         C1-H10=1.0773        C1-H11=1.0769        C2-C1=1.3189         C2-C3=1.5035         C2-H12=1.0834        
C3-C2=1.5035         C3-C4=1.5013         C3-H13=1.0947        C3-H14=1.0947        C4-C3=1.5013         C4-C5=1.3890         
C4-C9=1.3890         C5-C4=1.3890         C5-C6=1.3835         C5-H15=1.0809        C6-C5=1.3835         C6-C7=1.3844         
C6-H16=1.0805        C7-C6=1.3844         C7-C8=1.3844         C7-H17=1.0801        C8-C7=1.3844         C8-C9=1.3835         
C8-H18=1.0805        C9-C4=1.3890         C9-C8=1.3835         C9-H19=1.0809        H10-C1=1.0773        H11-C1=1.0769        
H12-C2=1.0834        H13-C3=1.0947        H14-C3=1.0947        H15-C5=1.0809        H16-C6=1.0805        H17-C7=1.0801        
H18-C8=1.0805        H19-C9=1.0809        
 C  H  Rav=1.0830 sigma=0.0061  Rmin=1.0769  Rmax=1.0947    10
 C  C  Rav=1.4042 sigma=0.0565  Rmin=1.3189  Rmax=1.5035     9

 selected bond angles (degree)
 --------------------
H10-C1-C2=122.09               H11-C1-C2=121.55               H11-C1-H10=116.36              C3-C2-C1=125.90                
H12-C2-C1=120.08               H12-C2-C3=114.02               C4-C3-C2=113.59                H13-C3-C2=108.07               
H13-C3-C4=109.83               H14-C3-C2=108.07               H14-C3-C4=109.83               H14-C3-H13=107.23              
C5-C4-C3=120.61                C9-C4-C3=120.61                C9-C4-C5=118.77                C6-C5-C4=120.68                
H15-C5-C4=119.46               H15-C5-C6=119.86               C7-C6-C5=120.11                H16-C6-C5=119.87               
H16-C6-C7=120.03               C8-C7-C6=119.66                H17-C7-C6=120.17               H17-C7-C8=120.17               
C9-C8-C7=120.11                H18-C8-C7=120.03               H18-C8-C9=119.87               C8-C9-C4=120.68                
H19-C9-C4=119.46               H19-C9-C8=119.86               

 selected dihedral angles (degree)
 ---------------------------------
C3-C2-C1-H10=  0.00           C3-C2-C1-H11=180.03           H12-C2-C1-H10=179.97          H12-C2-C1-H11=  0.00          
C4-C3-C2-C1=  0.00            C4-C3-C2-H12=180.01           H13-C3-C2-C1=237.87           H13-C3-C2-H12= 57.88          
H14-C3-C2-C1=122.13           H14-C3-C2-H12=302.14          C5-C4-C3-C2=270.63            C5-C4-C3-H13= 31.77           
C5-C4-C3-H14=149.47           C9-C4-C3-C2= 89.42            C9-C4-C3-H13=210.56           C9-C4-C3-H14=328.26           
C6-C5-C4-C3=179.07            C6-C5-C4-C9=  0.25            H15-C5-C4-C3=359.16           H15-C5-C4-C9=180.35           
C7-C6-C5-C4=359.92            C7-C6-C5-H15=179.82           H16-C6-C5-C4=179.78           H16-C6-C5-H15=359.68          
C8-C7-C6-C5=359.90            C8-C7-C6-H16=180.04           H17-C7-C6-C5=179.72           H17-C7-C6-H16=359.87          
C9-C8-C7-C6=  0.10            C9-C8-C7-H17=180.28           H18-C8-C7-C6=179.96           H18-C8-C7-H17=  0.13          
C8-C9-C4-C3=180.93            C8-C9-C4-C5=359.75            H19-C9-C4-C3=  0.84           H19-C9-C4-C5=179.65           
C4-C9-C8-C7=  0.08            C4-C9-C8-H18=180.22           H19-C9-C8-C7=180.17           H19-C9-C8-H18=  0.32          
           -------------------------------------------------
          |                Final Singlepoint                |
           -------------------------------------------------

          ...................................................
          :                      SETUP                      :
          :.................................................:
          :  # basis functions                  46          :
          :  # atomic orbitals                  46          :
          :  # shells                           28          :
          :  # electrons                        46          :
          :  max. iterations                   250          :
          :  Hamiltonian                  GFN2-xTB          :
          :  restarted?                      false          :
          :  GBSA solvation                  false          :
          :  PC potential                    false          :
          :  electronic temp.          300.0000000     K    :
          :  accuracy                    1.0000000          :
          :  -> integral cutoff          0.2500000E+02      :
          :  -> integral neglect         0.1000000E-07      :
          :  -> SCF convergence          0.1000000E-05 Eh   :
          :  -> wf. convergence          0.1000000E-03 e    :
          :  Broyden damping             0.4000000          :
          ...................................................

 iter      E             dE          RMSdq      gap      omega  full diag
   1    -24.7901673 -0.247902E+02  0.446E-05    4.74       0.0  T
   2    -24.7901673 -0.951772E-11  0.292E-05    4.74     786.0  T
   3    -24.7901673 -0.984812E-11  0.156E-05    4.74    1471.2  T

   *** convergence criteria satisfied after 3 iterations ***

         #    Occupation            Energy/Eh            Energy/eV
      -------------------------------------------------------------
         1        2.0000           -0.6417136             -17.4619
       ...           ...                  ...                  ...
        17        2.0000           -0.4534122             -12.3380
        18        2.0000           -0.4360063             -11.8643
        19        2.0000           -0.4182329             -11.3807
        20        2.0000           -0.4156201             -11.3096
        21        2.0000           -0.4007807             -10.9058
        22        2.0000           -0.3973227             -10.8117
        23        2.0000           -0.3925422             -10.6816 (HOMO)
        24                         -0.2182123              -5.9379 (LUMO)
        25                         -0.2180168              -5.9325
        26                         -0.1979497              -5.3865
        27                         -0.0894349              -2.4336
        28                          0.0983112               2.6752
       ...                                ...                  ...
        46                          0.6710076              18.2590
      -------------------------------------------------------------
                  HL-Gap            0.1743299 Eh            4.7438 eV
             Fermi-level           -0.3053772 Eh           -8.3097 eV

 SCC (total)                   0 d,  0 h,  0 min,  0.195 sec
 SCC setup                      ...        0 min,  0.008 sec (  4.284%)
 Dispersion                     ...        0 min,  0.016 sec (  8.298%)
 classical contributions        ...        0 min,  0.013 sec (  6.658%)
 integral evaluation            ...        0 min,  0.028 sec ( 14.494%)
 iterations                     ...        0 min,  0.007 sec (  3.725%)
 molecular gradient             ...        0 min,  0.122 sec ( 62.462%)
 printout                       ...        0 min,  0.000 sec (  0.044%)

         :::::::::::::::::::::::::::::::::::::::::::::::::::::
         ::                     SUMMARY                     ::
         :::::::::::::::::::::::::::::::::::::::::::::::::::::
         :: total energy             -24.320286004323 Eh    ::
         :: gradient norm              0.000381370964 Eh/a0 ::
         :: HOMO-LUMO gap              4.743758718783 eV    ::
         ::.................................................::
         :: SCC energy               -24.790167262183 Eh    ::
         :: -> isotropic ES            0.002350459579 Eh    ::
         :: -> anisotropic ES          0.004159387142 Eh    ::
         :: -> anisotropic XC          0.018443543428 Eh    ::
         :: -> dispersion             -0.015505058926 Eh    ::
         :: repulsion energy           0.469807584926 Eh    ::
         :: add. restraining           0.000000000000 Eh    ::
         :: total charge               0.000000000000 e     ::
         :::::::::::::::::::::::::::::::::::::::::::::::::::::

           -------------------------------------------------
          |                Property Printout                |
           -------------------------------------------------

    * Orbital Energies and Occupations

         #    Occupation            Energy/Eh            Energy/eV
      -------------------------------------------------------------
         1        2.0000           -0.6417136             -17.4619
       ...           ...                  ...                  ...
        11        2.0000           -0.5031823             -13.6923
        12        2.0000           -0.4922579             -13.3950
        13        2.0000           -0.4778634             -13.0033
        14        2.0000           -0.4745000             -12.9118
        15        2.0000           -0.4689150             -12.7598
        16        2.0000           -0.4669604             -12.7066
        17        2.0000           -0.4534122             -12.3380
        18        2.0000           -0.4360063             -11.8643
        19        2.0000           -0.4182329             -11.3807
        20        2.0000           -0.4156201             -11.3096
        21        2.0000           -0.4007807             -10.9058
        22        2.0000           -0.3973227             -10.8117
        23        2.0000           -0.3925422             -10.6816 (HOMO)
        24                         -0.2182123              -5.9379 (LUMO)
        25                         -0.2180168              -5.9325
        26                         -0.1979497              -5.3865
        27                         -0.0894349              -2.4336
        28                          0.0983112               2.6752
        29                          0.1143331               3.1112
        30                          0.1322785               3.5995
        31                          0.1459609               3.9718
        32                          0.1550952               4.2204
        33                          0.1682907               4.5794
        34                          0.1922510               5.2314
       ...                                ...                  ...
        46                          0.6710076              18.2590
      -------------------------------------------------------------
                  HL-Gap            0.1743299 Eh            4.7438 eV
             Fermi-level           -0.3053772 Eh           -8.3097 eV

     #   Z          covCN         q      C6AA      α(0)
     1   6 C        2.836    -0.093    30.336     9.026
     2   6 C        2.886    -0.025    28.614     8.770
     3   6 C        3.811    -0.062    21.685     6.628
     4   6 C        2.970     0.017    27.620     8.621
     5   6 C        2.925    -0.037    28.911     8.818
     6   6 C        2.919    -0.031    28.769     8.796
     7   6 C        2.920    -0.033    28.833     8.806
     8   6 C        2.919    -0.031    28.769     8.796
     9   6 C        2.925    -0.037    28.911     8.818
    10   1 H        0.926     0.037     2.487     2.466
    11   1 H        0.926     0.034     2.535     2.490
    12   1 H        0.925     0.029     2.598     2.521
    13   1 H        0.924     0.046     2.374     2.409
    14   1 H        0.924     0.046     2.374     2.410
    15   1 H        0.926     0.028     2.611     2.527
    16   1 H        0.926     0.028     2.617     2.530
    17   1 H        0.926     0.027     2.623     2.533
    18   1 H        0.926     0.028     2.617     2.530
    19   1 H        0.926     0.028     2.611     2.527

 Mol. C6AA /au·bohr⁶  :       4036.168916
 Mol. C8AA /au·bohr⁸  :      96948.819331
 Mol. α(0) /au        :        102.018723


Wiberg/Mayer (AO) data.
largest (>0.10) Wiberg bond orders for each atom

 ---------------------------------------------------------------------------
     #   Z sym  total        # sym  WBO       # sym  WBO       # sym  WBO
 ---------------------------------------------------------------------------
     1   6 C    3.992 --     2 C    1.979    11 H    0.977    10 H    0.974
     2   6 C    3.991 --     1 C    1.979     3 C    1.008    12 H    0.966
     3   6 C    3.998 --     4 C    1.011     2 C    1.008    14 H    0.956
                            13 H    0.956
     4   6 C    3.989 --     9 C    1.412     5 C    1.412     3 C    1.011
                             7 C    0.110
     5   6 C    3.992 --     6 C    1.446     4 C    1.412    15 H    0.970
                             8 C    0.111
     6   6 C    3.993 --     5 C    1.446     7 C    1.438    16 H    0.971
                             9 C    0.111
     7   6 C    3.992 --     8 C    1.438     6 C    1.438    17 H    0.972
                             4 C    0.110
     8   6 C    3.993 --     9 C    1.446     7 C    1.438    18 H    0.971
                             5 C    0.111
     9   6 C    3.992 --     8 C    1.446     4 C    1.412    19 H    0.970
                             6 C    0.111
    10   1 H    0.999 --     1 C    0.974
    11   1 H    0.999 --     1 C    0.977
    12   1 H    0.998 --     2 C    0.966
    13   1 H    0.998 --     3 C    0.956
    14   1 H    0.998 --     3 C    0.956
    15   1 H    0.999 --     5 C    0.970
    16   1 H    0.999 --     6 C    0.971
    17   1 H    0.999 --     7 C    0.972
    18   1 H    0.999 --     8 C    0.971
    19   1 H    0.999 --     9 C    0.970
 ---------------------------------------------------------------------------

Topologies differ in total number of bonds
Writing topology from bond orders to xtbtopo.mol

molecular dipole:
                 x           y           z       tot (Debye)
 q only:       -0.095       0.098      -0.132
   full:       -0.105       0.108      -0.146       0.532
molecular quadrupole (traceless):
                xx          xy          yy          xz          yz          zz
 q only:        0.272      -0.770       0.058       1.127       0.161      -0.330
  q+dip:        1.755      -2.044       0.151       2.961       1.666      -1.906
   full:        0.784      -1.257       0.109       1.836       0.705      -0.893

           -------------------------------------------------
          |                Geometry Summary                 |
           -------------------------------------------------

      molecular mass/u    :      118.1760306
   center of mass at/Å    :        0.1732977       0.0068180      -0.0369853
  moments of inertia/u·Å² :        0.1467147E+03   0.4460603E+03   0.4766442E+03
rotational constants/cm⁻¹ :        0.1149008E+00   0.3779227E-01   0.3536733E-01

 * 17 selected distances

     #   Z          #   Z                                           value/Å
     1   6 C        2   6 C                                       1.3188812
     4   6 C        5   6 C                                       1.3889903 (max)
     5   6 C        6   6 C                                       1.3835457
     6   6 C        7   6 C                                       1.3843970
     7   6 C        8   6 C                                       1.3843939
     4   6 C        9   6 C                                       1.3889868
     8   6 C        9   6 C                                       1.3835465
     1   6 C       10   1 H                                       1.0772756
     1   6 C       11   1 H                                       1.0769202 (min)
     2   6 C       12   1 H                                       1.0833896
     3   6 C       13   1 H                                       1.0947186
     3   6 C       14   1 H                                       1.0947248
     5   6 C       15   1 H                                       1.0809439
     6   6 C       16   1 H                                       1.0804526
     7   6 C       17   1 H                                       1.0800710
     8   6 C       18   1 H                                       1.0804517
     9   6 C       19   1 H                                       1.0809438

 * 2 distinct bonds (by element types)

   Z      Z             #   av. dist./Å        max./Å        min./Å
   1 H    6 C          10     1.0829892     1.0947248     1.0769202
   6 C    6 C           7     1.3761059     1.3889903     1.3188812


optimized geometry written to: xtbopt.xyz


           -------------------------------------------------
          | TOTAL ENERGY              -24.320286004323 Eh   |
          | GRADIENT NORM               0.000381370964 Eh/α |
          | HOMO-LUMO GAP               4.743758718783 eV   |
           -------------------------------------------------

------------------------------------------------------------------------
 * finished run on 2022/03/17 at 02:19:11.282     
------------------------------------------------------------------------
 total:
 * wall-time:     0 d,  0 h,  0 min,  2.659 sec
 *  cpu-time:     0 d,  0 h,  1 min, 27.182 sec
 * ratio c/w:    32.782 speedup
 SCF:
 * wall-time:     0 d,  0 h,  0 min,  0.220 sec
 *  cpu-time:     0 d,  0 h,  0 min,  7.230 sec
 * ratio c/w:    32.842 speedup
 ANC optimizer:
 * wall-time:     0 d,  0 h,  0 min,  2.324 sec
 *  cpu-time:     0 d,  0 h,  1 min, 16.451 sec
 * ratio c/w:    32.896 speedup

