19
 energy: -24.317681427115 gnorm: 0.038451946696 xtb: 6.3.3 (4ae9cef)
C        -2.27817600000000   -0.60160500000000    1.25646300000000
C        -2.46185700000000    0.14701300000000    0.15985300000000
C        -1.41620300000000    0.67166300000000   -0.78974900000000
C         0.01847600000000    0.31637300000000   -0.47807500000000
C         0.79404500000000    1.14379000000000    0.34690700000000
C         2.11566700000000    0.80788400000000    0.64480000000000
C         2.67340500000000   -0.35911100000000    0.12569200000000
C         1.90988300000000   -1.19313800000000   -0.68909200000000
C         0.58805100000000   -0.85920300000000   -0.98827400000000
H        -1.29292100000000   -0.92015600000000    1.58325700000000
H        -3.12381800000000   -0.91652600000000    1.86008900000000
H        -3.48367200000000    0.42273800000000   -0.09690300000000
H        -1.50787600000000    1.76461200000000   -0.83558800000000
H        -1.65707100000000    0.31622900000000   -1.80004800000000
H         0.36811500000000    2.05289700000000    0.76539200000000
H         2.70890200000000    1.45588400000000    1.28446200000000
H         3.70206400000000   -0.62041500000000    0.35900900000000
H         2.34261800000000   -2.10588900000000   -1.08986400000000
H         0.00036700000000   -1.52304100000000   -1.61833000000000
19
 energy: -24.319819893730 gnorm: 0.007789566799 xtb: 6.3.3 (4ae9cef)
C        -2.25400078443148   -0.59077493588650    1.23646761786892
C        -2.44897964879325    0.14725158386800    0.15751858785240
C        -1.41036024527222    0.67148209799194   -0.79037723047558
C         0.01045479389655    0.30191543862321   -0.45514102604972
C         0.78514534375070    1.12594057646364    0.35516309965213
C         2.10072375669878    0.79896891075486    0.64431061623815
C         2.65872550878060   -0.35873820089207    0.12740111141692
C         1.89647674129698   -1.18723294853964   -0.67970354525896
C         0.58104361323940   -0.85881065748836   -0.96786935647385
H        -1.27213165308659   -0.90334639978048    1.55471786718960
H        -3.08563628534900   -0.91027305745617    1.84480700042704
H        -3.46503835543535    0.42513692607387   -0.10335374220947
H        -1.50527327367621    1.76365009843503   -0.82233564275393
H        -1.65559986149704    0.30410176013569   -1.79424311457964
H         0.36091013304083    2.03613161804113    0.75861201628755
H         2.69286513683456    1.44994598950246    1.27364838138615
H         3.68569261848444   -0.61432337167490    0.35239425739886
H         2.32868566061668   -2.09149463588289   -1.08710143981478
H        -0.00370419909836   -1.50953179228882   -1.60491445810179
19
 energy: -24.320056317293 gnorm: 0.003098380801 xtb: 6.3.3 (4ae9cef)
C        -2.23029474057049   -0.58739727209640    1.22768393400772
C        -2.44360371105265    0.14845273219213    0.15487445142450
C        -1.40932755256800    0.67533987389839   -0.79633405730362
C         0.00681352832712    0.30363027351463   -0.45715326241835
C         0.77829332457876    1.12263976985846    0.35629248542340
C         2.08949651389038    0.79392810513108    0.65020078885366
C         2.64811759738022   -0.36195112153362    0.13386989181896
C         1.88557813889273   -1.18915336077274   -0.67171982287471
C         0.57465948532821   -0.85764234903097   -0.96375090140343
H        -1.24370234250384   -0.89210926275454    1.53338790012173
H        -3.04799111726550   -0.91577581403444    1.84728169604268
H        -3.45867338757519    0.42607070813361   -0.10568073501008
H        -1.50423502087256    1.76625660209147   -0.82397690805442
H        -1.65478308757724    0.30449795715397   -1.79737762798300
H         0.35032690720486    2.02914431686076    0.76000894870334
H         2.68058750334749    1.44620458107053    1.27659016053192
H         3.67514453441512   -0.61438225232717    0.35412510328857
H         2.31685250605183   -2.09105116525424   -1.08135327776193
H        -0.01326007943121   -1.50670332210087   -1.59696776740693
19
 energy: -24.320158913924 gnorm: 0.002029661512 xtb: 6.3.3 (4ae9cef)
C        -2.20847056901152   -0.58552095909466    1.22148909939025
C        -2.44091908264443    0.14984254398038    0.15240806737793
C        -1.41048384051768    0.68010817202641   -0.80330772071021
C         0.00267364985817    0.30627815660070   -0.46048599274427
C         0.77202268271443    1.12219106711152    0.35770860233734
C         2.08153590002294    0.79172655417155    0.65479988332687
C         2.64051412595446   -0.36405648460726    0.13821784023696
C         1.87761395748097   -1.19141733646278   -0.66713812976902
C         0.56841170212600   -0.85789142444379   -0.96217811880409
H        -1.21476323485860   -0.88147148566797    1.51279586372679
H        -3.01264315819010   -0.92362415171005    1.85355961702618
H        -3.45670910526645    0.42544460001561   -0.10497749592951
H        -1.50548825296179    1.77027123245496   -0.82938147706947
H        -1.65607880127365    0.30813310350072   -1.80304094932036
H         0.34145955375905    2.02741553041687    0.76108211926536
H         2.67040252005542    1.44172563221550    1.28496859092932
H         3.66610998049622   -0.61773387298870    0.36056825924809
H         2.30666243290168   -2.09561866662467   -1.07298649294062
H        -0.02185146064508   -1.50580321089434   -1.59410056557753
19
 energy: -24.320209435982 gnorm: 0.001416458932 xtb: 6.3.3 (4ae9cef)
C        -2.19381055921948   -0.58492324535529    1.21818858602257
C        -2.43970362469422    0.15029802651560    0.15151137898211
C        -1.41235808640109    0.68352817450480   -0.80813723800684
C         0.00067348210301    0.30999340448261   -0.46574601837988
C         0.76863571788495    1.12414079481552    0.35670397937622
C         2.07662326379075    0.79036472220153    0.65866512028943
C         2.63486505591118   -0.36692377903207    0.14340621205840
C         1.87259616694069   -1.19375893123784   -0.66388917762772
C         0.56488810503326   -0.85722997356774   -0.96400917966436
H        -1.19428831606117   -0.87376508751574    1.49795267870968
H        -2.98810212409186   -0.92994441877548    1.85925005359805
H        -3.45715817011980    0.42307127674668   -0.10123804313295
H        -1.50847378773318    1.77346335149235   -0.83425172962184
H        -1.65901369502517    0.31185685861756   -1.80758044631242
H         0.33677200464520    2.02903725026804    0.76027733730556
H         2.66429320579003    1.43829743487046    1.29255125732669
H         3.65979122383078   -0.62203790537186    0.36801891081527
H         2.30040274718005   -2.10043539975075   -1.06626174015710
H        -0.02663360976388   -1.50503355390835   -1.59541094158086
19
 energy: -24.320242454075 gnorm: 0.001245836376 xtb: 6.3.3 (4ae9cef)
C        -2.18160864167747   -0.58524571685376    1.21686272880164
C        -2.43732105732405    0.14979591390839    0.15203076526832
C        -1.41464016153624    0.68634717942922   -0.81197936463743
C        -0.00047599656982    0.31404633645859   -0.47162948942483
C         0.76655349568468    1.12736816144898    0.35355740671574
C         2.07280932833902    0.78975265551855    0.66108476188733
C         2.62943480582846   -0.37000525705794    0.14888541717170
C         1.86867577248369   -1.19522189162406   -0.66196316202053
C         0.56265282110012   -0.85528048095743   -0.96792466603888
H        -1.17768479279114   -0.86831223343345    1.48687327889534
H        -2.96808991512348   -0.93543352189222    1.86414758847864
H        -3.45717851519335    0.41881174755991   -0.09474711561954
H        -1.51307893650593    1.77637440064614   -0.83834728301881
H        -1.66359154681179    0.31517366571416   -1.81137576040007
H         0.33520014265675    2.03360035840967    0.75557847028826
H         2.65932603632983    1.43493286177461    1.29951327748812
H         3.65214486420622   -0.62956209591030    0.38050478614671
H         2.29529324945352   -2.10488822823228   -1.05990182028419
H        -0.02842195254898   -1.50225485490675   -1.60116881969752
19
 energy: -24.320261836896 gnorm: 0.000740990029 xtb: 6.3.3 (4ae9cef)
C        -2.17469702277675   -0.58638698925425    1.21688243198254
C        -2.43416152930536    0.14867126195569    0.15294757887742
C        -1.41592610355535    0.68771823317100   -0.81381438811940
C        -0.00058145673628    0.31696573684805   -0.47597939614515
C         0.76595861314845    1.12990588452577    0.34980160759009
C         2.07018739150062    0.78909160145148    0.66240993472769
C         2.62511293424500   -0.37312012634761    0.15423701121082
C         1.86604902694178   -1.19582295157342   -0.66055909430032
C         0.56205569352950   -0.85270095987433   -0.97163624702638
H        -1.16939865334689   -0.86697287839268    1.48367634427610
H        -2.95839725590133   -0.93769111936570    1.86630619281273
H        -3.45576776963743    0.41533880745773   -0.08953904445446
H        -1.51654378427265    1.77771201252347   -0.83958952548723
H        -1.66704946298737    0.31642780220330   -1.81278160997707
H         0.33599534002716    2.03774710190652    0.74956440564268
H         2.65647061137718    1.43354004068566    1.30176724696267
H         3.64594025749765   -0.63592859875543    0.39102407103054
H         2.29243627646033   -2.10605825992643   -1.05740326720121
H        -0.02768410620819   -1.49843759923877   -1.60731325240206
19
 energy: -24.320275191890 gnorm: 0.000536231268 xtb: 6.3.3 (4ae9cef)
C        -2.16758815492336   -0.58641096984517    1.21767528676652
C        -2.43046235445843    0.14819291366849    0.15427936111056
C        -1.41699596693619    0.68911310599371   -0.81566706682953
C        -0.00092352323891    0.31949960727853   -0.47966923695569
C         0.76533175505671    1.13211936871637    0.34625117563044
C         2.06777369060925    0.78887448649005    0.66290658474430
C         2.62134656402045   -0.37538618887963    0.15824090086404
C         1.86358979131906   -1.19590442625370   -0.65979239764192
C         0.56137378170017   -0.85026084614865   -0.97476603954804
H        -1.16180056108960   -0.86752073139075    1.48193282935135
H        -2.95008421078252   -0.94018910393808    1.86716014342935
H        -3.45372309031996    0.41186991270911   -0.08488603914591
H        -1.51953077634901    1.77887209282854   -0.84073304858232
H        -1.67014543613985    0.31715768955001   -1.81382736036566
H         0.33686883937810    2.04172459998026    0.74327945584175
H         2.65330639179765    1.43223052125326    1.30385276476471
H         3.63933438440585   -0.64252937647629    0.40195638760415
H         2.28921875443621   -2.10709980455073   -1.05492654173711
H        -0.02689087848557   -1.49435385098526   -1.61326615930099
19
 energy: -24.320281744157 gnorm: 0.000659570405 xtb: 6.3.3 (4ae9cef)
C        -2.16136686020095   -0.58936464087107    1.21605038099248
C        -2.42762104224030    0.14608778626388    0.15411814898744
C        -1.41780818645660    0.69038716414058   -0.81751154835780
C        -0.00110037875699    0.32198266274524   -0.48340024717743
C         0.76470166569157    1.13393606622972    0.34337195023400
C         2.06539958607235    0.78822579027657    0.66410055616287
C         2.61782431175433   -0.37786421453481    0.16250430425638
C         1.86128079101939   -1.19636112170878   -0.65861755434755
C         0.56087772060180   -0.84806814005847   -0.97777657604338
H        -1.15476340024059   -0.86634773747031    1.48164929491956
H        -2.94236693477294   -0.94004871975877    1.86922780265045
H        -3.45193778086100    0.40966145830016   -0.08073332226826
H        -1.52206919932269    1.77993515150068   -0.84125801606833
H        -1.67247606313188    0.31851888807008   -1.81515693896767
H         0.33698677578747    2.04452918861666    0.73872580238771
H         2.65048924661366    1.43120066258663    1.30568473225815
H         3.63420756280528   -0.64719233610806    0.40975413471820
H         2.28643060906865   -2.10800463996164   -1.05299335697358
H        -0.02668942343052   -1.49121426825823   -1.61773854736325
19
 energy: -24.320286004251 gnorm: 0.000381457553 xtb: 6.3.3 (4ae9cef)
C        -2.15687833812384   -0.58791905673163    1.21678895349146
C        -2.42598788797035    0.14675257041492    0.15505205107804
C        -1.41821305369415    0.69135351156086   -0.81880116510865
C        -0.00122946705669    0.32360070587392   -0.48573189621553
C         0.76425347437611    1.13513797840809    0.34175655806835
C         2.06385826328560    0.78775450530103    0.66509988261829
C         2.61557895865848   -0.37938819791548    0.16516263860692
C         1.85964242862949   -1.19696017073628   -0.65744454549522
C         0.56028775371449   -0.84710260884392   -0.97912469053718
H        -1.15006541800183   -0.86693643169356    1.47946712721113
H        -2.93698923515507   -0.94240808058432    1.86910910970426
H        -3.45107828981168    0.40791411397556   -0.07886535093773
H        -1.52333071927734    1.78075431831070   -0.84256804833317
H        -1.67392076695759    0.31899529644441   -1.81598989454377
H         0.33654625530322    2.04593268711622    0.73667318984978
H         2.64872237392969    1.43053553164941    1.30708457486151
H         3.63151674374691   -0.64928362365478    0.41331622959214
H         2.28454441472506   -2.10886176277098   -1.05148719277278
H        -0.02725849032046   -1.48987228612413   -1.61949653113785
