60
 energy: -98.596491427615 gnorm: 0.089441306520 xtb: 6.3.3 (4ae9cef)
C        -0.32999200000000   -3.42281500000000    0.90871300000000
C        -0.40113300000000   -4.40493500000000    1.89950800000000
C         0.46526300000000   -4.35640100000000    2.99109200000000
C         1.41101200000000   -3.33730200000000    3.08069700000000
C         1.48487300000000   -2.35588400000000    2.08774400000000
C         0.59840400000000   -2.36432800000000    0.99712800000000
C         0.62097700000000   -1.31430000000000   -0.11181600000000
C        -0.73441300000000   -0.54260300000000   -0.22413200000000
C        -1.29326900000000   -0.60974900000000   -1.63866900000000
C        -0.63822500000000    0.00096300000000   -2.72151800000000
C        -1.16934800000000   -0.07759300000000   -4.01087500000000
C        -2.36057200000000   -0.76505700000000   -4.23483600000000
C        -3.02159600000000   -1.37571600000000   -3.17139500000000
C        -2.49102300000000   -1.30183000000000   -1.88153300000000
N        -0.41967900000000    0.83186200000000    0.18389800000000
C        -1.24878100000000    1.92623300000000    0.27630300000000
C        -2.69986500000000    1.73062100000000    0.10334800000000
C        -3.33970700000000    2.31769900000000   -0.99064200000000
C        -4.71490700000000    2.14902100000000   -1.15192900000000
C        -5.44386100000000    1.41374300000000   -0.21402900000000
C        -4.80293100000000    0.84690300000000    0.89087500000000
C        -3.42718200000000    1.00893800000000    1.05568100000000
O        -0.83257700000000    3.05769400000000    0.50881400000000
C         0.96898200000000    0.96668200000000    0.56780800000000
C         1.14949700000000    1.05228200000000    2.11530100000000
O         0.00103600000000    0.97115700000000    2.82894900000000
O         2.21339800000000    1.11487600000000    2.71781900000000
N         1.60662200000000   -0.24475200000000    0.07187100000000
C         2.88798700000000   -0.36386700000000   -0.42528200000000
C         3.75464700000000    0.82628700000000   -0.41350900000000
C         4.56271600000000    1.09157300000000    0.69312200000000
C         5.37819700000000    2.22361700000000    0.68933400000000
C         5.38961500000000    3.07277500000000   -0.41946800000000
C         4.59320100000000    2.79050400000000   -1.53226600000000
C         3.77387000000000    1.66186000000000   -1.53505800000000
O         3.33681500000000   -1.39268900000000   -0.92082900000000
H        -1.00112400000000   -3.50015800000000    0.05270600000000
H        -1.12359300000000   -5.21353300000000    1.81279200000000
H         0.41546300000000   -5.12378900000000    3.75932300000000
H         2.10643500000000   -3.31163100000000    3.91755400000000
H         2.26367600000000   -1.60010000000000    2.17772000000000
H         0.86346000000000   -1.85312700000000   -1.03749300000000
H        -1.48023600000000   -0.92718900000000    0.48060400000000
H         0.29009100000000    0.54647300000000   -2.56997300000000
H        -0.65341000000000    0.39775100000000   -4.84147100000000
H        -2.77491600000000   -0.82543600000000   -5.23914100000000
H        -3.95458600000000   -1.90768900000000   -3.34456900000000
H        -3.03116800000000   -1.78007700000000   -1.06651700000000
H        -2.76874700000000    2.89443900000000   -1.71423600000000
H        -5.21891200000000    2.59507800000000   -2.00644600000000
H        -6.51733400000000    1.29209000000000   -0.34009000000000
H        -5.37858900000000    0.29117700000000    1.62650200000000
H        -2.92887300000000    0.58953200000000    1.92614300000000
H         1.38921900000000    1.87423200000000    0.12764200000000
H         0.30143800000000    1.03290600000000    3.75961400000000
H         4.55811600000000    0.42722800000000    1.55306400000000
H         6.00511800000000    2.44442900000000    1.55011600000000
H         6.02842100000000    3.95355200000000   -0.41866100000000
H         4.61772100000000    3.44741900000000   -2.39886900000000
H         3.16428000000000    1.43095700000000   -2.40576900000000
60
 energy: -98.608728610293 gnorm: 0.030211195833 xtb: 6.3.3 (4ae9cef)
C        -0.32532851791139   -3.40731391486068    0.91418321694544
C        -0.39106939189330   -4.38776576047125    1.89228367384329
C         0.46977139235219   -4.34503612379437    2.97801843176671
C         1.40849941958561   -3.33068320091820    3.06358033941695
C         1.47449165524202   -2.34873224370528    2.08308031615282
C         0.59381595441771   -2.35945454492686    1.00617969159789
C         0.61203247684398   -1.30941209559532   -0.09685458374791
C        -0.73949840898441   -0.54158364724139   -0.22525309877326
C        -1.30368649878187   -0.59894678575084   -1.63379314794382
C        -0.64777983876668    0.00177827301642   -2.70685254259312
C        -1.17031264456859   -0.07902909139888   -3.98967132916821
C        -2.35403099878953   -0.76238463305609   -4.21901198444901
C        -3.01167223734998   -1.36800244503138   -3.16111743222418
C        -2.48950137649331   -1.28724105579852   -1.87865106686260
N        -0.40865244341564    0.82291836651394    0.18855833788048
C        -1.23150524375910    1.90997700822388    0.27475792005815
C        -2.69046860270178    1.69513173548175    0.08328832641757
C        -3.33814103601799    2.29269774289773   -0.99318647335728
C        -4.70798356784259    2.14168594359266   -1.14443490973922
C        -5.43435596178591    1.41488953847548   -0.21320803563600
C        -4.79650766946882    0.85430805570315    0.88366846171478
C        -3.42502176380402    0.99227454890438    1.03449052679298
O        -0.79695699500030    3.02439304580588    0.51017954403869
C         0.97883608448559    0.95288993072780    0.57083454255475
C         1.15333518139427    1.02920717415149    2.10525832745595
O         0.00838129635739    0.96419866488451    2.80353305682589
O         2.21082719338734    1.11638300456398    2.67395941992490
N         1.60285442711201   -0.25099771774149    0.07091461371042
C         2.86938959852889   -0.36847199954616   -0.43346178334267
C         3.73106847272544    0.84377990708559   -0.40075626236018
C         4.55108899312367    1.10549156458479    0.69103990955201
C         5.37488778954870    2.22094721783043    0.67958981539572
C         5.38820739636567    3.06538241027662   -0.42028903631175
C         4.59747265555604    2.78402835974617   -1.52434075947998
C         3.76920317454828    1.67279272133536   -1.51879502592772
O         3.28796875469508   -1.40625360306493   -0.91204710537475
H        -0.99220826576259   -3.47213038178351    0.06232100154286
H        -1.11173922488879   -5.19065998902687    1.80480062557148
H         0.41700331853130   -5.10707960341765    3.74514583958628
H         2.09818299504674   -3.30246748330510    3.89718478396318
H         2.23747719292431   -1.58580299615171    2.16715860642875
H         0.85097537055311   -1.83340171876383   -1.03174731575751
H        -1.47754538496758   -0.95262079598258    0.47282642604910
H         0.27857295613426    0.53891904190788   -2.54892860341564
H        -0.65327265355862    0.39292939451001   -4.81490690574989
H        -2.76372150795133   -0.82270305547773   -5.21941879141528
H        -3.93709826009694   -1.90169168699984   -3.33396107253730
H        -3.01866750637926   -1.76638233385666   -1.06482111151158
H        -2.77034477795902    2.87504060108219   -1.70583315139511
H        -5.21026425835275    2.59092597389779   -1.99112625202590
H        -6.50253150562922    1.29345822336081   -0.33790126408036
H        -5.36928483092622    0.30301502871812    1.61782766306381
H        -2.92903385523406    0.58274618383386    1.90493896793847
H         1.41469008030074    1.86461929583109    0.14162714204838
H         0.26866740600525    1.03702999619340    3.74194379360271
H         4.54627961421146    0.44290341846413    1.54445448893240
H         5.99959054775350    2.43831788052297    1.53553198357954
H         6.02144142118800    3.94294151538852   -0.41957890107227
H         4.61965387636053    3.43726517640166   -2.38688831043605
H         3.16351953376253    1.44098496375272   -2.38555953766378
60
 energy: -98.611936338937 gnorm: 0.013180882546 xtb: 6.3.3 (4ae9cef)
C        -0.32938948580869   -3.38860145923199    0.91234169239380
C        -0.38922302989685   -4.36870401896518    1.88441655217010
C         0.47395987592553   -4.32885923718853    2.96570784076270
C         1.40637848383638   -3.31219275298196    3.05142990755424
C         1.46580206266805   -2.32840435604864    2.07731649037728
C         0.58844405754649   -2.34843964068169    1.00575533488197
C         0.60664901177326   -1.30807180748628   -0.09757289787015
C        -0.74247097784158   -0.54152483571997   -0.21556083059605
C        -1.30830397826797   -0.59280551714171   -1.61814934538379
C        -0.64946485601091    0.00746017759573   -2.68327893787993
C        -1.16664919149187   -0.07188376703614   -3.96393934999657
C        -2.34721912588415   -0.75450895649239   -4.19886385140532
C        -3.00718071184832   -1.35816783467450   -3.14416142029425
C        -2.49045440332072   -1.27667944720985   -1.86391229697325
N        -0.40103275230568    0.81542697241769    0.19277907475050
C        -1.21510945106424    1.90070366466021    0.26854468150161
C        -2.67751841982382    1.66977025787125    0.06503815307209
C        -3.33003344367863    2.26911095103406   -1.00414647936198
C        -4.69777281510180    2.12706803881873   -1.14955405878088
C        -5.42423924550224    1.40735944550030   -0.21794377918600
C        -4.78395096638105    0.84422974988907    0.87164654122978
C        -3.41425000771650    0.97328688560138    1.01544160140390
O        -0.76554158028065    3.00292471243499    0.51240119929731
C         0.98580441563457    0.93800617448883    0.57398079154023
C         1.15813787422667    1.02692186774815    2.10001823926381
O         0.01189581093681    0.94553318195164    2.77638009591423
O         2.22020510456138    1.11544811565357    2.64492447768788
N         1.59964667169460   -0.25911930205260    0.06693038181727
C         2.85737964070200   -0.38094262837689   -0.44108093245713
C         3.71303442776579    0.84745153142247   -0.39502110656395
C         4.53705438440919    1.10952757979170    0.69096647087708
C         5.36276706674489    2.21938531112944    0.67798870222784
C         5.38177071115363    3.06178473325145   -0.41904500914313
C         4.58710982319380    2.78449132280510   -1.51675625916023
C         3.75637707578444    1.67909946207890   -1.50808132429439
O         3.24625569400487   -1.42436508777931   -0.92000363102039
H        -0.99550445866533   -3.44083432794926    0.06314960913931
H        -1.10662911528444   -5.17079135192685    1.79535337591422
H         0.42570623658012   -5.09155574438017    3.72873906585493
H         2.09806876273757   -3.28496693529874    3.87969808086700
H         2.21568361753721   -1.55614273385212    2.15524982902403
H         0.84195124824360   -1.82829902482503   -1.03613696228148
H        -1.47553656380688   -0.96831937512238    0.47945819449473
H         0.27502508563242    0.54048259920404   -2.51604090183177
H        -0.64482694644478    0.39570212287943   -4.78541845544571
H        -2.74938561496962   -0.81843439875298   -5.19892027883219
H        -3.92672975463484   -1.89588358469735   -3.31882849686408
H        -3.01590407857047   -1.75074039597464   -1.04809942425550
H        -2.76192350493634    2.84900412254794   -1.71449112407154
H        -5.20073117809932    2.58866512332650   -1.98581866328333
H        -6.49272996908173    1.29975591489167   -0.33166378430382
H        -5.35584382003886    0.30901323853328    1.61535972094679
H        -2.91619423533399    0.56006461480854    1.88038717255805
H         1.43580724558205    1.84974644412084    0.15160101469068
H         0.22079006805203    1.02514477213282    3.72623580003133
H         4.52741262284810    0.45055855559939    1.54358887797884
H         5.99538998429436    2.42629609008878    1.52744727161902
H         6.02353645791056    3.93001191417262   -0.42375041341115
H         4.61671692250218    3.42851668320654   -2.38276251259786
H         3.14698423760983    1.45128919019017   -2.37050971429671
60
 energy: -98.612808426785 gnorm: 0.008744861956 xtb: 6.3.3 (4ae9cef)
C        -0.33415275636289   -3.37832054325220    0.90904954819718
C        -0.39036276143328   -4.35759886825329    1.88124696819260
C         0.47855983303007   -4.31682080444613    2.95883140215061
C         1.40736318725828   -3.29629890427064    3.04615928911053
C         1.46348977459476   -2.31226786455068    2.07275280814800
C         0.58707373746158   -2.34158987397557    1.00109739705456
C         0.60402079036301   -1.30735888064508   -0.10229915527209
C        -0.74342248552894   -0.54028409695564   -0.20510227307739
C        -1.31483181951598   -0.58572723350418   -1.60188689622392
C        -0.65019656479275    0.01649959821991   -2.66185313261466
C        -1.16200981071977   -0.06274181188294   -3.94391176385156
C        -2.34156864559730   -0.74681754688444   -4.18301743417721
C        -3.00787033243613   -1.34982153105591   -3.13105349749929
C        -2.49737962504101   -1.26761491465142   -1.84863210149332
N        -0.39612553446588    0.81244477713305    0.19711741079678
C        -1.20513031194929    1.89900368825753    0.26649223671377
C        -2.66559613113559    1.65834817752047    0.05291720882668
C        -3.31875433100052    2.25271315746482   -1.01828390504425
C        -4.68724030892373    2.11473093119657   -1.15966623749233
C        -5.41445898402745    1.40185941963683   -0.22249818067687
C        -4.77068202210534    0.83310722318398    0.86272136389974
C        -3.40021356190775    0.95765496149150    1.00165756207553
O        -0.75084593273208    2.99844021802136    0.51321110797902
C         0.99086347161813    0.93062622105990    0.57526661005996
C         1.16148014445382    1.00884927915532    2.10271329640081
O         0.01077861266802    0.92974980068401    2.76384205405450
O         2.22615168616741    1.12363011772184    2.64096476076463
N         1.59817253344015   -0.26259149554488    0.05935018082045
C         2.85243200921111   -0.39051424423170   -0.45403305045601
C         3.70605522921812    0.84113858950189   -0.39927996638414
C         4.52642767533780    1.10390434722623    0.68932129276092
C         5.35363872646785    2.21269122226403    0.67800907471381
C         5.37739491721622    3.05571886592815   -0.41900373072666
C         4.57666615168524    2.78434202224227   -1.51447996149941
C         3.74458133274852    1.68001175014300   -1.50694846715225
O         3.22574269126831   -1.43672412369496   -0.93830304173801
H        -1.00230518255112   -3.42280567270411    0.06123776414028
H        -1.10788289079319   -5.15944751145316    1.79406017856792
H         0.43596486675029   -5.08142418428495    3.71938626062410
H         2.09914831423223   -3.26627675249309    3.87403981073898
H         2.20435842317510   -1.53128413405036    2.14813295207363
H         0.83203808604396   -1.82791293731863   -1.04247828554761
H        -1.47048035097423   -0.97125522093192    0.49365238173740
H         0.27393069344705    0.54736105846687   -2.48580177455217
H        -0.63652207705191    0.40549431122132   -4.76234540510390
H        -2.73852206734027   -0.81111214946747   -5.18450565885922
H        -3.92640365797277   -1.88768764514584   -3.30886268262315
H        -3.02295830876919   -1.73894717428441   -1.03125916853157
H        -2.74937714965253    2.82750432073786   -1.73177237351761
H        -5.19061782019729    2.57864483211703   -1.99399250760171
H        -6.48411469852545    1.30093389017526   -0.32985012482585
H        -5.34049349664561    0.30008054114068    1.60930565570593
H        -2.89944336803468    0.53818449014186    1.86215843704044
H         1.44560808811162    1.84268345234546    0.15625410534400
H         0.18279497521116    1.02334366288779    3.71985550960130
H         4.51261995144371    0.44639728317973    1.54301816084469
H         5.98636824986694    2.41601856617022    1.52810417771831
H         6.02364500723252    3.92051263870449   -0.42436610069940
H         4.60424757724946    3.42968526200928   -2.37924263337552
H         3.12834725121168    1.45894044258332   -2.36643345624001
60
 energy: -98.613306250124 gnorm: 0.005766951833 xtb: 6.3.3 (4ae9cef)
C        -0.33718635213689   -3.37193143107142    0.90795851505748
C        -0.39036837310615   -4.34929532071089    1.88248501377927
C         0.48400215040351   -4.30493523356246    2.95652670701221
C         1.40931098266886   -3.28050471287712    3.04500034487820
C         1.46267857735813   -2.29784493722356    2.07000012329220
C         0.58699617714724   -2.33648187473899    0.99724800273713
C         0.60071962050655   -1.30579316532681   -0.10581503718843
C        -0.74463052701847   -0.53582365779665   -0.19250911752164
C        -1.32336782154847   -0.57764389191168   -1.58387971810698
C        -0.65254761523442    0.02769290520784   -2.63896483111958
C        -1.15917833424444   -0.04943935608294   -3.92303971146860
C        -2.33817257905834   -0.73446227465504   -4.16605858906134
C        -3.01197473756733   -1.33715208500396   -3.11770737331585
C        -2.50736101157289   -1.25699931415746   -1.83229627517404
N        -0.39012047156137    0.81416221977029    0.20270037079140
C        -1.19545594966800    1.90343715450930    0.26231654531604
C        -2.65211707357051    1.65434031825289    0.04061862833923
C        -3.30539661726282    2.23923183231866   -1.03578935002075
C        -4.67423420776997    2.09903254882882   -1.17495709651732
C        -5.40028328885237    1.39112133134391   -0.23178235047565
C        -4.75302670104036    0.81863804509544    0.85053761654868
C        -3.38245492367118    0.94586307124602    0.98760549300744
O        -0.74153744210766    3.00315397710415    0.50933244095391
C         0.99723595897769    0.92686388440449    0.57837702623314
C         1.16294847803045    1.01054224115441    2.10956831173541
O         0.00863129046260    0.90605331647290    2.75557152544187
O         2.22646122827339    1.12980427342884    2.64908670293605
N         1.59754427707508   -0.26458671330509    0.05132745337140
C         2.84859544027137   -0.39960000292425   -0.47140371208350
C         3.70261881166145    0.82972531483435   -0.40974392351431
C         4.51770914677466    1.09129760706040    0.68339801390234
C         5.34350728002166    2.20177175911569    0.67702393192199
C         5.36920460492672    3.04826992261217   -0.41829642184963
C         4.56330705570800    2.78450077255435   -1.51309404140011
C         3.73244317664936    1.67870252035460   -1.51046250902934
O         3.20882775809439   -1.44620417646172   -0.96533974187695
H        -1.00718463453642   -3.41167451474034    0.06089060705747
H        -1.10926461621155   -5.15074595542111    1.79967490414981
H         0.44755756177955   -5.07118617840621    3.71572874379738
H         2.10038240008037   -3.24594803302475    3.87381452364251
H         2.19793571750412   -1.51097398429674    2.14122431740736
H         0.81832363841852   -1.82691446046935   -1.04804331831483
H        -1.46444393371289   -0.96665051342109    0.51357123902001
H         0.27085442241952    0.55728447072754   -2.45325615594157
H        -0.62946800342419    0.41980104904585   -4.73850433897422
H        -2.72883512643262   -0.80016535405644   -5.17005056274206
H        -3.93055580561139   -1.87400020209128   -3.30010876188910
H        -3.03535100728727   -1.72512010651348   -1.01397483697958
H        -2.73539535886481    2.80697851981524   -1.75527071526910
H        -5.17838753501389    2.55885428010083   -2.01125793735496
H        -6.47134879643704    1.29596867491104   -0.33248421319842
H        -5.31984203256352    0.28245145944777    1.59741570278095
H        -2.87872111022178    0.52117425773592    1.84443269423193
H         1.45439938307355    1.83838246927587    0.16240302276040
H         0.14726691666478    0.99828857141055    3.71548655797348
H         4.50104062281834    0.43319876089482    1.53724341484223
H         5.97318674453486    2.40340947833738    1.53025687895033
H         6.01939239456787    3.91049866644050   -0.42234073490795
H         4.58533883281137    3.43624367691703   -2.37362971910312
H         3.10979233762535    1.46534109952131   -2.36800027947035
60
 energy: -98.613581937135 gnorm: 0.004672824893 xtb: 6.3.3 (4ae9cef)
C        -0.33690790240952   -3.37113137437984    0.91059130368998
C        -0.38833653531787   -4.34596845087109    1.88825540665076
C         0.48810274690269   -4.29690733390268    2.96064551009661
C         1.41173059072277   -3.27071959958790    3.04778704764478
C         1.46352351923993   -2.29087869249193    2.06961123649427
C         0.58766262776063   -2.33480697130111    0.99658550805941
C         0.59736619516186   -1.30446225162424   -0.10645033932174
C        -0.74630702492881   -0.53042905778023   -0.18248022354763
C        -1.33121710341187   -0.57013576182491   -1.57068185868440
C        -0.65701764746859    0.03806530997491   -2.62275732612763
C        -1.16034927770059   -0.03605845824234   -3.90822618322364
C        -2.33928886307644   -0.72075283436817   -4.15356140492170
C        -3.01812264068155   -1.32304029479039   -3.10804678141402
C        -2.51668078796520   -1.24659471558173   -1.82061905326183
N        -0.38461846160218    0.81862172280083    0.20770317923002
C        -1.18771687049228    1.91069787690307    0.25771895922581
C        -2.64101613586378    1.65741057437259    0.03134752574705
C        -3.29421096764096    2.23196786291749   -1.05077821757882
C        -4.66244011450803    2.08374319010920   -1.19101314856362
C        -5.38591684768280    1.37698650829744   -0.24462574298933
C        -4.73705749856559    0.80660359155964    0.83825543314575
C        -3.36754091746909    0.94309039692325    0.97750950696171
O        -0.73653054634472    3.01244720031232    0.50165222487168
C         1.00324323130231    0.92532213998378    0.58226251636322
C         1.16502720462553    0.99927157345734    2.11799787869135
O         0.00675143982002    0.88358393249475    2.75384948010108
O         2.22377730176296    1.13580464358965    2.66443525499832
N         1.59755764023130   -0.26568964052804    0.04627994204831
C         2.84545844343538   -0.40484467429402   -0.48646313107241
C         3.70130752067487    0.81962906725073   -0.42160695869686
C         4.51295239836763    1.07757490349879    0.67488140254434
C         5.33535632546459    2.19103299012587    0.67493832002607
C         5.35889707046142    3.04322757124909   -0.41643678439136
C         4.55137519955798    2.78587011286538   -1.51207204599613
C         3.72400093249829    1.67706063237975   -1.51634687347007
O         3.19739782126591   -1.44869860609639   -0.99208027157919
H        -1.00744153749828   -3.41137099183251    0.06363209441151
H        -1.10762888099870   -5.14786841765349    1.80967307718164
H         0.45500715647688   -5.06275622337599    3.72082257237413
H         2.10188844263494   -3.23186112269822    3.87761627452169
H         2.19724991869109   -1.50218396139441    2.13707999896260
H         0.80618847813893   -1.82518931693042   -1.05072562712430
H        -1.46081733130432   -0.95790214801706    0.53081323713527
H         0.26579048687878    0.56671089991205   -2.43065360440264
H        -0.62799941814333    0.43428573157577   -4.72163915515780
H        -2.72624314616557   -0.78656910822676   -5.15930835785141
H        -3.93780523733236   -1.85734168884087   -3.29419951583089
H        -3.04739448127192   -1.71304020693345   -1.00267419880792
H        -2.72502588075225    2.79548492144890   -1.77483097598022
H        -5.16749628843488    2.53533856280342   -2.03166564877172
H        -6.45708254748015    1.28090007778295   -0.34324053038322
H        -5.30121342047340    0.26450108530223    1.58327487369734
H        -2.86205770253712    0.51938056897547    1.83403333232282
H         1.46130677684147    1.83782508791964    0.17107626416473
H         0.12503531896658    0.97840411431871    3.71417062772105
H         4.49716275859582    0.41529464792031    1.52597837572084
H         5.96229423034181    2.39118609479732    1.53097732527483
H         6.00918329809448    3.90558996482739   -0.41665502769305
H         4.56788296192561    3.44564737260276   -2.36715322083977
H         3.09900497868024    1.46864397231591   -2.37369948239576
60
 energy: -98.613831764547 gnorm: 0.004848024973 xtb: 6.3.3 (4ae9cef)
C        -0.33477657380456   -3.37310083273891    0.91713504718493
C        -0.38426938388491   -4.34489669605301    1.89827716230126
C         0.49215108907249   -4.29021030128926    2.97024193704751
C         1.41505330834078   -3.26330021782107    3.05356010619675
C         1.46517357230872   -2.28729501981104    2.07128985514205
C         0.58800679053465   -2.33457044029638    0.99933379852392
C         0.59323175331259   -1.30358274685062   -0.10397793287146
C        -0.74816065156141   -0.52378407875908   -0.17208538502532
C        -1.33902880280286   -0.56086865156619   -1.55810674838591
C        -0.66348964442482    0.04972844594688   -2.60842965946784
C        -1.16509619635424   -0.02045434703057   -3.89455833852133
C        -2.34483848951412   -0.70315394593380   -4.14124574690418
C        -3.02655272830840   -1.30506459778754   -3.09779718809443
C        -2.52613003248574   -1.23356961207748   -1.80929890252844
N        -0.37782525907481    0.82522038730679    0.21335635903592
C        -1.17828958066107    1.92058783780853    0.25063648806838
C        -2.62902750813218    1.66419004728066    0.02090428165789
C        -3.28236370635552    2.22635810407388   -1.06755485383472
C        -4.64912069619396    2.06521430003841   -1.21134652947059
C        -5.36917779770597    1.35713523469138   -0.26365544239027
C        -4.71983296930066    0.79619514023470    0.82379390132535
C        -3.35225717403826    0.94707684914939    0.96779200499721
O        -0.72978640637153    3.02504101214744    0.48745733859055
C         1.01040485731027    0.92369113069502    0.58825810827668
C         1.16733365828945    0.99010650732543    2.12727608525518
O         0.00562349528258    0.85304940208591    2.75422699461601
O         2.21896050147640    1.13700542369225    2.68344898417091
N         1.59784170424179   -0.26776947749123    0.04387757443417
C         2.84014205960206   -0.40845070985957   -0.50368316662751
C         3.69882617791100    0.81081962783075   -0.43570098842825
C         4.50869277399956    1.06258636696920    0.66324157684666
C         5.32712162129331    2.17918929312575    0.67153687890558
C         5.34535581843067    3.04014470217127   -0.41304986287565
C         4.53883322818852    2.78893887129300   -1.51076176880768
C         3.71650269375100    1.67629766004471   -1.52421823121557
O         3.18474362552000   -1.44823597262165   -1.02227218534508
H        -1.00549897362750   -3.41719009017000    0.07038089822802
H        -1.10246506893026   -5.14827022820760    1.82361918865830
H         0.46001250406296   -5.05320651765890    3.73372082580626
H         2.10479730639506   -3.22012939140661    3.88364437270002
H         2.19949191890890   -1.49880252537732    2.13479587323060
H         0.79364610794070   -1.82334309639762   -1.05036948059251
H        -1.45883449475010   -0.94639478320552    0.54768755421572
H         0.25920053276684    0.57687615637472   -2.41242690035975
H        -0.63147275476413    0.45130923339620   -4.70634389785228
H        -2.73067080760815   -0.76694012194142   -5.14775742472297
H        -3.94824540950694   -1.83519450876355   -3.28672075058163
H        -3.05908086119914   -1.70005621798610   -0.99277650360929
H        -2.71543643986998    2.78888572476625   -1.79420582465488
H        -5.15523242464621    2.50542066927674   -2.05780088655988
H        -6.43896587616801    1.25151690566936   -0.36540540801618
H        -5.28127033607350    0.24766344535993    1.56645221291225
H        -2.84577432676682    0.53186449506440    1.82781306390461
H         1.47069871002526    1.83714095254806    0.18357838663000
H         0.10928849295487    0.94436736669694    3.71423608097496
H         4.49643112967940    0.39248322151044    1.50853250332837
H         5.95234920419441    2.37631040190436    1.52966581839080
H         5.99107189115362    3.90591504968097   -0.40592622375221
H         4.55005857596217    3.45808243409647   -2.35894867915094
H         3.09192727197648    1.47142572884660   -2.38258235091016
60
 energy: -98.614095160571 gnorm: 0.005672517133 xtb: 6.3.3 (4ae9cef)
C        -0.33212324740370   -3.37658126003571    0.92782393827942
C        -0.37899951133085   -4.34501547430643    1.91257608452671
C         0.49624538415449   -4.28430420427767    2.98489955827666
C         1.41906460825179   -3.25712992474334    3.06209841539722
C         1.46712863970037   -2.28564700080526    2.07522210267666
C         0.58744257355408   -2.33511132547935    1.00556941383989
C         0.58860573304966   -1.30373771562991   -0.09855342884188
C        -0.74980104590283   -0.51709805240945   -0.16154880763356
C        -1.34556355149598   -0.55079416020399   -1.54608641085308
C        -0.67108146950663    0.06232215259699   -2.59577864559839
C        -1.17430399229833   -0.00139731657864   -3.88126529674553
C        -2.35649801007139   -0.67959204142034   -4.12805977448051
C        -3.03806397821731   -1.28235782117740   -3.08563278538488
C        -2.53493413300846   -1.21852896249932   -1.79763237491040
N        -0.37007900489370    0.83213486243033    0.21958841719474
C        -1.16612831110580    1.93174195046621    0.24078050556072
C        -2.61577711717268    1.67366944866585    0.00896825337435
C        -3.26901985531291    2.22171058471826   -1.08650343373395
C        -4.63303552306757    2.04212923881303   -1.23746715003524