      -----------------------------------------------------------      
     |                   =====================                   |     
     |                           x T B                           |     
     |                   =====================                   |     
     |                         S. Grimme                         |     
     |          Mulliken Center for Theoretical Chemistry        |     
     |                    University of Bonn                     |     
      -----------------------------------------------------------      

   * xtb version 6.3.3 (4ae9cef) compiled by 'conda@95abc7406d43' on 2020-10-14

   xtb is free software: you can redistribute it and/or modify it under
   the terms of the GNU Lesser General Public License as published by
   the Free Software Foundation, either version 3 of the License, or
   (at your option) any later version.
   
   xtb is distributed in the hope that it will be useful,
   but WITHOUT ANY WARRANTY; without even the implied warranty of
   MERCHANTABILITY or FITNESS FOR A PARTICULAR PURPOSE.  See the
   GNU Lesser General Public License for more details.
   
   Cite this work as:
   * C. Bannwarth, E. Caldeweyher, S. Ehlert, A. Hansen, P. Pracht,
     J. Seibert, S. Spicher, S. Grimme, WIREs Comput. Mol. Sci., 2020,
     e01493. DOI: 10.1002/wcms.1493
   
   for GFN2-xTB:
   * S. Grimme, C. Bannwarth, P. Shushkov, J. Chem. Theory Comput., 2017,
     13, 1989-2009. DOI: 10.1021/acs.jctc.7b00118
   for GFN1-xTB:
   * C. Bannwarth, S. Ehlert and S. Grimme., J. Chem. Theory Comput., 2019,
     15, 1652-1671. DOI: 10.1021/acs.jctc.8b01176
   for GFN0-xTB:
   * P. Pracht, E. Caldeweyher, S. Ehlert, S. Grimme, ChemRxiv, 2019, preprint.
     DOI: 10.26434/chemrxiv.8326202.v1
   for GFN-FF:
   * S. Spicher and S. Grimme, Angew. Chem. Int. Ed., 2020, 59, 15665-15673.
     DOI: 10.1002/anie.202004239
   
   for DFT-D4:
   * E. Caldeweyher, C. Bannwarth and S. Grimme, J. Chem. Phys., 2017,
     147, 034112. DOI: 10.1063/1.4993215
   * E. Caldeweyher, S. Ehlert, A. Hansen, H. Neugebauer, S. Spicher,
     C. Bannwarth and S. Grimme, J. Chem. Phys., 2019, 150, 154122.
     DOI: 10.1063/1.5090222
   * E. Caldeweyher, J.-M. Mewes, S. Ehlert and S. Grimme, Phys. Chem. Chem. Phys.
     2020, 22, 8499-8512. DOI: 10.1039/D0CP00502A
   
   for sTDA-xTB:
   * S. Grimme and C. Bannwarth, J. Chem. Phys., 2016, 145, 054103.
     DOI: 10.1063/1.4959605
   
   in the mass-spec context:
   * V. Asgeirsson, C. Bauer and S. Grimme, Chem. Sci., 2017, 8, 4879.
     DOI: 10.1039/c7sc00601b
   * J. Koopman and S. Grimme, ACS Omega 2019, 4, 12, 15120-15133.
     DOI: 10.1021/acsomega.9b02011
   
   for metadynamics refer to:
   * S. Grimme, J. Chem. Theory Comput., 2019, 155, 2847-2862
     DOI: 10.1021/acs.jctc.9b00143
   
   with help from (in alphabetical order)
   C. Bannwarth, F. Bohle, G. Brandenburg, E. Caldeweyher, M. Checinski,
   S. Dohm, S. Ehlert, S. Ehrlich, F. März, H. Neugebauer, J. Pisarek,
   P. Pracht, P. Shushkov, and S. Spicher.
   
 * started run on 2022/03/17 at 00:47:13.230     

           -------------------------------------------------
          |                Calculation Setup                |
           -------------------------------------------------

          program call               : xtb acid_404.xyz --opt --chrg 0 --uhf 0 --gfn 2
          coordinate file            : acid_404.xyz
          omp threads                :                    64
          number of atoms            :                    86
          number of electrons        :                   238
          charge                     :                     0
          spin                       :                   0.0
          first test random number   :      0.90252202202560

   ID    Z sym.   atoms
    1    6 C      1, 3-16, 18, 20-29, 31, 32, 36-45
    2    8 O      2, 17, 30, 33, 34, 46
    3    7 N      19, 35
    4    1 H      47-86

           -------------------------------------------------
          |                 G F N 2 - x T B                 |
           -------------------------------------------------

        Reference                      10.1021/acs.jctc.8b01176
      * Hamiltonian:
        H0-scaling (s, p, d)           1.850000    2.230000    2.230000
        zeta-weighting                 0.500000
      * Dispersion:
        s8                             2.700000
        a1                             0.520000
        a2                             5.000000
        s9                             5.000000
      * Repulsion:
        kExp                           1.500000    1.000000
        rExp                           1.000000
      * Coulomb:
        alpha                          2.000000
        third order                    shell-resolved
        anisotropic                    true
        a3                             3.000000
        a5                             4.000000
        cn-shift                       1.200000
        cn-exp                         4.000000
        max-rad                        5.000000


          ...................................................
          :                      SETUP                      :
          :.................................................:
          :  # basis functions                 224          :
          :  # atomic orbitals                 224          :
          :  # shells                          132          :
          :  # electrons                       238          :
          :  max. iterations                   250          :
          :  Hamiltonian                  GFN2-xTB          :
          :  restarted?                      false          :
          :  GBSA solvation                  false          :
          :  PC potential                    false          :
          :  electronic temp.          300.0000000     K    :
          :  accuracy                    1.0000000          :
          :  -> integral cutoff          0.2500000E+02      :
          :  -> integral neglect         0.1000000E-07      :
          :  -> SCF convergence          0.1000000E-05 Eh   :
          :  -> wf. convergence          0.1000000E-03 e    :
          :  Broyden damping             0.4000000          :
          ...................................................

 iter      E             dE          RMSdq      gap      omega  full diag
   1   -133.6314653 -0.133631E+03  0.420E+00    3.42       0.0  T
   2   -133.8234191 -0.191954E+00  0.237E+00    3.16       1.0  T
   3   -133.8221838  0.123530E-02  0.117E+00    3.63       1.0  T
   4   -133.8450588 -0.228749E-01  0.255E-01    3.00       1.0  T
   5   -133.8481757 -0.311693E-02  0.997E-02    3.07       1.0  T
   6   -133.8485669 -0.391192E-03  0.454E-02    3.09       1.0  T
   7   -133.8486049 -0.379734E-04  0.191E-02    3.09       1.0  T
   8   -133.8486082 -0.332702E-05  0.586E-03    3.10       1.8  T
   9   -133.8486089 -0.724136E-06  0.272E-03    3.10       4.0  T
  10   -133.8486093 -0.376999E-06  0.976E-04    3.10      11.1  T
  11   -133.8486093 -0.197547E-07  0.513E-04    3.10      21.0  T

   *** convergence criteria satisfied after 11 iterations ***

         #    Occupation            Energy/Eh            Energy/eV
      -------------------------------------------------------------
         1        2.0000           -0.7562949             -20.5798
       ...           ...                  ...                  ...
       113        2.0000           -0.4049882             -11.0203
       114        2.0000           -0.4022682             -10.9463
       115        2.0000           -0.3977828             -10.8242
       116        2.0000           -0.3961917             -10.7809
       117        2.0000           -0.3909083             -10.6372
       118        2.0000           -0.3891855             -10.5903
       119        2.0000           -0.3845244             -10.4634 (HOMO)
       120                         -0.2706931              -7.3659 (LUMO)
       121                         -0.2518345              -6.8528
       122                         -0.2438687              -6.6360
       123                         -0.2405863              -6.5467
       124                         -0.2399099              -6.5283
       ...                                ...                  ...
       224                          0.6236109              16.9693
      -------------------------------------------------------------
                  HL-Gap            0.1138313 Eh            3.0975 eV
             Fermi-level           -0.3276088 Eh           -8.9147 eV

 SCC (total)                   0 d,  0 h,  0 min,  0.558 sec
 SCC setup                      ...        0 min,  0.015 sec (  2.610%)
 Dispersion                     ...        0 min,  0.022 sec (  3.930%)
 classical contributions        ...        0 min,  0.016 sec (  2.862%)
 integral evaluation            ...        0 min,  0.121 sec ( 21.712%)
 iterations                     ...        0 min,  0.292 sec ( 52.322%)
 molecular gradient             ...        0 min,  0.089 sec ( 15.934%)
 printout                       ...        0 min,  0.003 sec (  0.616%)

         :::::::::::::::::::::::::::::::::::::::::::::::::::::
         ::                     SUMMARY                     ::
         :::::::::::::::::::::::::::::::::::::::::::::::::::::
         :: total energy            -132.038263912792 Eh    ::
         :: gradient norm              0.105999616041 Eh/a0 ::
         :: HOMO-LUMO gap              3.097506941686 eV    ::
         ::.................................................::
         :: SCC energy              -133.848609305634 Eh    ::
         :: -> isotropic ES            0.152191153357 Eh    ::
         :: -> anisotropic ES          0.012001242883 Eh    ::
         :: -> anisotropic XC          0.054231593178 Eh    ::
         :: -> dispersion             -0.114896262612 Eh    ::
         :: repulsion energy           1.803839501020 Eh    ::
         :: add. restraining           0.000000000000 Eh    ::
         :: total charge              -0.000000000000 e     ::
         :::::::::::::::::::::::::::::::::::::::::::::::::::::

      ----------------------------------------------------------- 
     |                   =====================                   |
     |                        A N C O P T                        |
     |                   =====================                   |
     |               Approximate Normal Coordinate               |
     |                Rational Function Optimizer                |
      ----------------------------------------------------------- 

          ...................................................
          :                      SETUP                      :
          :.................................................:
          :   optimization level            normal          :
          :   max. optcycles                   258          :
          :   ANC micro-cycles                  20          :
          :   degrees of freedom               252          :
          :.................................................:
          :   RF solver                   davidson          :
          :   write xtbopt.log                true          :
          :   linear?                        false          :
          :   energy convergence         0.5000000E-05 Eh   :
          :   grad. convergence          0.1000000E-02 Eh/α :
          :   maximium RF displ.         1.0000000          :
          :   Hlow (freq-cutoff)         0.1000000E-01      :
          :   Hmax (freq-cutoff)         5.0000000          :
          :   S6 in model hess.         20.0000000          :
          ...................................................

generating ANC from model Hessian ...
Using Lindh-Hessian (1995)
 Shifting diagonal of input Hessian by    9.9113690936506529E-003
 Lowest  eigenvalues of input Hessian
    0.000000    0.000000    0.000000    0.000000    0.000000    0.000000
    0.010000    0.010080    0.010207    0.010282    0.010312    0.010391
    0.010436    0.010447    0.010512    0.010753    0.011242    0.011331
 Highest eigenvalues
    1.953699    2.005330    2.008572    2.180265    2.217359    2.227925


........................................................................
.............................. CYCLE    1 ..............................
........................................................................
   1   -133.8486093 -0.133849E+03  0.187E-04    3.10       0.0  T
   2   -133.8486093 -0.510539E-09  0.119E-04    3.10      90.4  T
   3   -133.8486093 -0.190056E-09  0.787E-05    3.10     137.0  T
     SCC iter.                  ...        0 min,  0.080 sec
     gradient                   ...        0 min,  0.144 sec
 * total energy  :  -132.0382639 Eh     change       -0.7313247E-08 Eh
   gradient norm :     0.1060055 Eh/α   predicted     0.0000000E+00 (-100.00%)
   displ. norm   :     0.4075944 α      lambda       -0.2336998E-01
   maximum displ.:     0.1120372 α      in ANC's #47, #60, #90, ...

........................................................................
.............................. CYCLE    2 ..............................
........................................................................
   1   -133.9411943 -0.133941E+03  0.164E-01    3.43       0.0  T
   2   -133.9413274 -0.133095E-03  0.983E-02    3.36       1.0  T
   3   -133.9412812  0.461456E-04  0.437E-02    3.37       1.0  T
   4   -133.9413661 -0.848965E-04  0.747E-03    3.35       1.4  T
   5   -133.9413694 -0.323924E-05  0.325E-03    3.35       3.3  T
   6   -133.9413696 -0.221983E-06  0.128E-03    3.35       8.4  T
   7   -133.9413696 -0.129568E-07  0.486E-04    3.35      22.2  T
   8   -133.9413696 -0.509158E-08  0.229E-04    3.35      47.1  T
     SCC iter.                  ...        0 min,  0.212 sec
     gradient                   ...        0 min,  0.120 sec
 * total energy  :  -132.0544668 Eh     change       -0.1620288E-01 Eh
   gradient norm :     0.0375717 Eh/α   predicted    -0.1362625E-01 ( -15.90%)
   displ. norm   :     0.4294035 α      lambda       -0.8163117E-02
   maximum displ.:     0.1564616 α      in ANC's #42, #47, #30, ...

........................................................................
.............................. CYCLE    3 ..............................
........................................................................
   1   -133.9892020 -0.133989E+03  0.131E-01    3.44       0.0  T
   2   -133.9892914 -0.894093E-04  0.782E-02    3.42       1.0  T
   3   -133.9892497  0.417049E-04  0.352E-02    3.42       1.0  T
   4   -133.9893172 -0.674942E-04  0.717E-03    3.42       1.5  T
   5   -133.9893210 -0.389648E-05  0.239E-03    3.41       4.5  T
   6   -133.9893212 -0.180249E-06  0.119E-03    3.41       9.1  T
   7   -133.9893212 -0.119361E-07  0.500E-04    3.41      21.6  T
   8   -133.9893213 -0.965341E-08  0.189E-04    3.41      56.9  T
     SCC iter.                  ...        0 min,  0.210 sec
     gradient                   ...        0 min,  0.127 sec
 * total energy  :  -132.0596397 Eh     change       -0.5172867E-02 Eh
   gradient norm :     0.0167528 Eh/α   predicted    -0.4834146E-02 (  -6.55%)
   displ. norm   :     0.3665646 α      lambda       -0.2664113E-02
   maximum displ.:     0.1358717 α      in ANC's #42, #47, #30, ...

........................................................................
.............................. CYCLE    4 ..............................
........................................................................
   1   -133.9989067 -0.133999E+03  0.102E-01    3.38       0.0  T
   2   -133.9989677 -0.609575E-04  0.609E-02    3.38       1.0  T
   3   -133.9989422  0.255179E-04  0.267E-02    3.39       1.0  T
   4   -133.9989808 -0.386257E-04  0.628E-03    3.38       1.7  T
   5   -133.9989844 -0.356234E-05  0.185E-03    3.38       5.8  T
   6   -133.9989845 -0.129870E-06  0.920E-04    3.38      11.7  T
   7   -133.9989845 -0.962018E-08  0.414E-04    3.38      26.1  T
     SCC iter.                  ...        0 min,  0.185 sec
     gradient                   ...        0 min,  0.144 sec
 * total energy  :  -132.0613033 Eh     change       -0.1663613E-02 Eh
   gradient norm :     0.0134041 Eh/α   predicted    -0.1511149E-02 (  -9.16%)
   displ. norm   :     0.3738387 α      lambda       -0.1621894E-02
   maximum displ.:     0.1237399 α      in ANC's #30, #20, #42, ...

........................................................................
.............................. CYCLE    5 ..............................
........................................................................
   1   -134.0005102 -0.134001E+03  0.972E-02    3.33       0.0  T
   2   -134.0005509 -0.406882E-04  0.575E-02    3.34       1.0  T
   3   -134.0005222  0.286781E-04  0.254E-02    3.34       1.0  T
   4   -134.0005624 -0.402420E-04  0.498E-03    3.34       2.2  T
   5   -134.0005645 -0.206771E-05  0.164E-03    3.34       6.6  T
   6   -134.0005646 -0.754048E-07  0.842E-04    3.34      12.8  T
   7   -134.0005646 -0.111123E-07  0.377E-04    3.34      28.6  T
     SCC iter.                  ...        0 min,  0.188 sec
     gradient                   ...        0 min,  0.142 sec
 * total energy  :  -132.0623779 Eh     change       -0.1074647E-02 Eh
   gradient norm :     0.0110455 Eh/α   predicted    -0.9242835E-03 ( -13.99%)
   displ. norm   :     0.3649497 α      lambda       -0.1052255E-02
   maximum displ.:     0.1530022 α      in ANC's #20, #9, #22, ...

........................................................................
.............................. CYCLE    6 ..............................
........................................................................
   1   -133.9999454 -0.134000E+03  0.843E-02    3.31       0.0  T
   2   -133.9999644 -0.189839E-04  0.500E-02    3.31       1.0  T
   3   -133.9999425  0.218673E-04  0.210E-02    3.31       1.0  T
   4   -133.9999714 -0.288365E-04  0.307E-03    3.31       3.5  T
   5   -133.9999719 -0.531356E-06  0.132E-03    3.31       8.1  T
   6   -133.9999720 -0.519484E-07  0.657E-04    3.31      16.4  T
   7   -133.9999720 -0.683636E-08  0.301E-04    3.31      35.9  T
     SCC iter.                  ...        0 min,  0.186 sec
     gradient                   ...        0 min,  0.126 sec
 * total energy  :  -132.0631888 Eh     change       -0.8108897E-03 Eh
   gradient norm :     0.0086410 Eh/α   predicted    -0.5962719E-03 ( -26.47%)
   displ. norm   :     0.4646006 α      lambda       -0.1041123E-02
   maximum displ.:     0.2159513 α      in ANC's #20, #9, #7, ...

........................................................................
.............................. CYCLE    7 ..............................
........................................................................
   1   -133.9985297 -0.133999E+03  0.101E-01    3.28       0.0  T
   2   -133.9985518 -0.221003E-04  0.594E-02    3.28       1.0  T
   3   -133.9985252  0.265679E-04  0.230E-02    3.28       1.0  T
   4   -133.9985593 -0.340411E-04  0.346E-03    3.29       3.1  T
   5   -133.9985599 -0.632459E-06  0.149E-03    3.28       7.2  T
   6   -133.9985600 -0.489945E-07  0.746E-04    3.28      14.4  T
   7   -133.9985600 -0.111461E-07  0.337E-04    3.28      32.0  T
     SCC iter.                  ...        0 min,  0.187 sec
     gradient                   ...        0 min,  0.133 sec
 * total energy  :  -132.0640016 Eh     change       -0.8127842E-03 Eh
   gradient norm :     0.0088090 Eh/α   predicted    -0.6329334E-03 ( -22.13%)
   displ. norm   :     0.5342845 α      lambda       -0.9736682E-03
   maximum displ.:     0.2482703 α      in ANC's #20, #9, #7, ...

........................................................................
.............................. CYCLE    8 ..............................
........................................................................
   1   -133.9986472 -0.133999E+03  0.108E-01    3.26       0.0  T
   2   -133.9986650 -0.177677E-04  0.640E-02    3.26       1.0  T
   3   -133.9986366  0.283522E-04  0.225E-02    3.27       1.0  T
   4   -133.9986718 -0.351695E-04  0.306E-03    3.27       3.5  T
   5   -133.9986721 -0.338350E-06  0.145E-03    3.27       7.5  T
   6   -133.9986722 -0.447604E-07  0.733E-04    3.26      14.7  T
   7   -133.9986722 -0.109711E-07  0.304E-04    3.26      35.4  T
     SCC iter.                  ...        0 min,  0.187 sec
     gradient                   ...        0 min,  0.128 sec
 * total energy  :  -132.0648008 Eh     change       -0.7992269E-03 Eh
   gradient norm :     0.0103498 Eh/α   predicted    -0.6258585E-03 ( -21.69%)
   displ. norm   :     0.6154244 α      lambda       -0.1046586E-02
   maximum displ.:     0.2707627 α      in ANC's #9, #20, #7, ...

........................................................................
.............................. CYCLE    9 ..............................
........................................................................
   1   -133.9989833 -0.133999E+03  0.121E-01    3.24       0.0  T
   2   -133.9990082 -0.248801E-04  0.714E-02    3.24       1.0  T
   3   -133.9989750  0.331861E-04  0.242E-02    3.24       1.0  T
   4   -133.9990162 -0.411597E-04  0.370E-03    3.24       2.9  T
   5   -133.9990169 -0.735420E-06  0.159E-03    3.24       6.8  T
   6   -133.9990169 -0.441818E-07  0.793E-04    3.24      13.6  T
   7   -133.9990170 -0.145885E-07  0.350E-04    3.24      30.8  T
     SCC iter.                  ...        0 min,  0.172 sec
     gradient                   ...        0 min,  0.134 sec
 * total energy  :  -132.0656704 Eh     change       -0.8695229E-03 Eh
   gradient norm :     0.0081255 Eh/α   predicted    -0.7214895E-03 ( -17.02%)
   displ. norm   :     0.6477115 α      lambda       -0.1084761E-02
   maximum displ.:     0.2764115 α      in ANC's #9, #7, #20, ...

........................................................................
.............................. CYCLE   10 ..............................
........................................................................
   1   -134.0030308 -0.134003E+03  0.121E-01    3.23       0.0  T
   2   -134.0030511 -0.203602E-04  0.715E-02    3.24       1.0  T
   3   -134.0030236  0.275798E-04  0.221E-02    3.24       1.0  T
   4   -134.0030575 -0.339550E-04  0.325E-03    3.25       3.3  T
   5   -134.0030579 -0.387099E-06  0.140E-03    3.25       7.7  T
   6   -134.0030579 -0.209633E-07  0.701E-04    3.25      15.4  T
   7   -134.0030579 -0.886180E-08  0.258E-04    3.25      41.8  T
     SCC iter.                  ...        0 min,  0.185 sec
     gradient                   ...        0 min,  0.155 sec
 * total energy  :  -132.0664933 Eh     change       -0.8229784E-03 Eh
   gradient norm :     0.0133673 Eh/α   predicted    -0.7699304E-03 (  -6.45%)
   displ. norm   :     0.6802907 α      lambda       -0.9543459E-03
   maximum displ.:     0.2901809 α      in ANC's #9, #7, #20, ...

........................................................................
.............................. CYCLE   11 ..............................
........................................................................
   1   -134.0008675 -0.134001E+03  0.125E-01    3.22       0.0  T
   2   -134.0009059 -0.384436E-04  0.736E-02    3.22       1.0  T
   3   -134.0008743  0.315893E-04  0.252E-02    3.22       1.0  T
   4   -134.0009146 -0.402812E-04  0.457E-03    3.22       2.4  T
   5   -134.0009161 -0.147159E-05  0.165E-03    3.22       6.5  T
   6   -134.0009161 -0.485292E-07  0.827E-04    3.22      13.0  T
   7   -134.0009161 -0.151094E-07  0.352E-04    3.22      30.6  T
     SCC iter.                  ...        0 min,  0.189 sec
     gradient                   ...        0 min,  0.141 sec
 * total energy  :  -132.0671610 Eh     change       -0.6676916E-03 Eh
   gradient norm :     0.0098598 Eh/α   predicted    -0.6980101E-03 (   4.54%)
   displ. norm   :     0.5212726 α      lambda       -0.7382574E-03
   maximum displ.:     0.2253597 α      in ANC's #7, #9, #16, ...

........................................................................
.............................. CYCLE   12 ..............................
........................................................................
   1   -134.0054138 -0.134005E+03  0.868E-02    3.21       0.0  T
   2   -134.0054232 -0.938859E-05  0.512E-02    3.22       1.0  T
   3   -134.0054113  0.119200E-04  0.145E-02    3.22       1.0  T
   4   -134.0054261 -0.148301E-04  0.239E-03    3.22       4.5  T
   5   -134.0054263 -0.178312E-06  0.113E-03    3.22       9.6  T
   6   -134.0054263 -0.144808E-07  0.602E-04    3.22      17.9  T
   7   -134.0054263 -0.715443E-08  0.216E-04    3.22      50.0  T
     SCC iter.                  ...        0 min,  0.190 sec
     gradient                   ...        0 min,  0.123 sec
 * total energy  :  -132.0676352 Eh     change       -0.4742211E-03 Eh
   gradient norm :     0.0104080 Eh/α   predicted    -0.4694710E-03 (  -1.00%)
   displ. norm   :     0.6344209 α      lambda       -0.7762402E-03
   maximum displ.:     0.2703962 α      in ANC's #9, #7, #16, ...

........................................................................
.............................. CYCLE   13 ..............................
........................................................................
   1   -134.0022275 -0.134002E+03  0.110E-01    3.21       0.0  T
   2   -134.0022471 -0.196045E-04  0.652E-02    3.22       1.0  T
   3   -134.0022269  0.201806E-04  0.190E-02    3.22       1.0  T
   4   -134.0022521 -0.251270E-04  0.322E-03    3.22       3.4  T
   5   -134.0022525 -0.468311E-06  0.135E-03    3.22       8.0  T
   6   -134.0022526 -0.213977E-07  0.640E-04    3.22      16.9  T
   7   -134.0022526 -0.613397E-08  0.238E-04    3.22      45.4  T
     SCC iter.                  ...        0 min,  0.187 sec
     gradient                   ...        0 min,  0.113 sec
 * total energy  :  -132.0681017 Eh     change       -0.4664772E-03 Eh
   gradient norm :     0.0098890 Eh/α   predicted    -0.5443443E-03 (  16.69%)
   displ. norm   :     0.3789355 α      lambda       -0.4342258E-03
   maximum displ.:     0.1645418 α      in ANC's #7, #9, #1, ...

........................................................................
.............................. CYCLE   14 ..............................
........................................................................
   1   -134.0038680 -0.134004E+03  0.567E-02    3.23       0.0  T
   2   -134.0038712 -0.322553E-05  0.334E-02    3.23       1.0  T
   3   -134.0038660  0.528802E-05  0.928E-03    3.23       1.2  T
   4   -134.0038724 -0.647040E-05  0.130E-03    3.23       8.3  T
   5   -134.0038725 -0.436543E-07  0.652E-04    3.23      16.5  T
   6   -134.0038725 -0.787554E-08  0.320E-04    3.23      33.7  T
     SCC iter.                  ...        0 min,  0.165 sec
     gradient                   ...        0 min,  0.128 sec
 * total energy  :  -132.0684557 Eh     change       -0.3540170E-03 Eh
   gradient norm :     0.0061702 Eh/α   predicted    -0.2482925E-03 ( -29.86%)
   displ. norm   :     0.4607990 α      lambda       -0.4841223E-03
   maximum displ.:     0.1852572 α      in ANC's #9, #7, #5, ...

........................................................................
.............................. CYCLE   15 ..............................
........................................................................
   1   -134.0071964 -0.134007E+03  0.641E-02    3.23       0.0  T
   2   -134.0072003 -0.386891E-05  0.377E-02    3.23       1.0  T
   3   -134.0071951  0.519583E-05  0.947E-03    3.24       1.1  T
   4   -134.0072015 -0.644962E-05  0.155E-03    3.24       6.9  T
   5   -134.0072016 -0.731167E-07  0.772E-04    3.24      14.0  T
   6   -134.0072016 -0.930220E-08  0.375E-04    3.24      28.8  T
     SCC iter.                  ...        0 min,  0.160 sec
     gradient                   ...        0 min,  0.130 sec
 * total energy  :  -132.0688020 Eh     change       -0.3462945E-03 Eh
   gradient norm :     0.0049021 Eh/α   predicted    -0.2934881E-03 ( -15.25%)
   displ. norm   :     0.5618609 α      lambda       -0.3387921E-03
   maximum displ.:     0.2371233 α      in ANC's #9, #7, #5, ...

........................................................................
.............................. CYCLE   16 ..............................
........................................................................
   1   -134.0038904 -0.134004E+03  0.807E-02    3.22       0.0  T
   2   -134.0038940 -0.357653E-05  0.477E-02    3.23       1.0  T
   3   -134.0038854  0.861722E-05  0.112E-02    3.23       1.0  T
   4   -134.0038959 -0.105148E-04  0.161E-03    3.23       6.7  T
   5   -134.0038959 -0.271496E-07  0.882E-04    3.23      12.2  T
   6   -134.0038960 -0.117635E-07  0.300E-04    3.23      36.0  T
     SCC iter.                  ...        0 min,  0.163 sec
     gradient                   ...        0 min,  0.126 sec
 * total energy  :  -132.0689827 Eh     change       -0.1806674E-03 Eh
   gradient norm :     0.0092719 Eh/α   predicted    -0.2228759E-03 (  23.36%)
   displ. norm   :     0.3639196 α      lambda       -0.3705898E-03
   maximum displ.:     0.1818962 α      in ANC's #5, #3, #1, ...

........................................................................
.............................. CYCLE   17 ..............................
........................................................................
   1   -134.0070715 -0.134007E+03  0.498E-02    3.23       0.0  T
   2   -134.0070736 -0.214530E-05  0.293E-02    3.23       1.0  T
   3   -134.0070724  0.126077E-05  0.519E-03    3.24       2.1  T
   4   -134.0070741 -0.175643E-05  0.136E-03    3.24       7.9  T
   5   -134.0070742 -0.661697E-07  0.664E-04    3.24      16.2  T
   6   -134.0070742 -0.321319E-08  0.308E-04    3.24      35.0  T
     SCC iter.                  ...        0 min,  0.158 sec
     gradient                   ...        0 min,  0.116 sec
 * total energy  :  -132.0692048 Eh     change       -0.2220760E-03 Eh
   gradient norm :     0.0059543 Eh/α   predicted    -0.2098402E-03 (  -5.51%)
   displ. norm   :     0.2917401 α      lambda       -0.1873800E-03
   maximum displ.:     0.1634155 α      in ANC's #5, #3, #1, ...

........................................................................
.............................. CYCLE   18 ..............................
........................................................................
   1   -134.0083951 -0.134008E+03  0.412E-02    3.23       0.0  T
   2   -134.0083963 -0.120725E-05  0.242E-02    3.24       1.0  T
   3   -134.0083951  0.117975E-05  0.399E-03    3.24       2.7  T
   4   -134.0083965 -0.141032E-05  0.103E-03    3.24      10.5  T
   5   -134.0083966 -0.771576E-07  0.428E-04    3.24      25.2  T
   6   -134.0083966 -0.111976E-08  0.186E-04    3.24      58.0  T
     SCC iter.                  ...        0 min,  0.158 sec
     gradient                   ...        0 min,  0.142 sec
 * total energy  :  -132.0693565 Eh     change       -0.1517165E-03 Eh
   gradient norm :     0.0044925 Eh/α   predicted    -0.1016648E-03 ( -32.99%)
   displ. norm   :     0.3709670 α      lambda       -0.2645854E-03
   maximum displ.:     0.2204991 α      in ANC's #5, #3, #1, ...

........................................................................
.............................. CYCLE   19 ..............................
........................................................................
   1   -134.0077834 -0.134008E+03  0.562E-02    3.23       0.0  T
   2   -134.0077855 -0.203774E-05  0.330E-02    3.23       1.0  T
   3   -134.0077828  0.271122E-05  0.561E-03    3.23       1.9  T
   4   -134.0077859 -0.315997E-05  0.132E-03    3.23       8.2  T
   5   -134.0077861 -0.136905E-06  0.520E-04    3.23      20.7  T
   6   -134.0077861 -0.175359E-08  0.235E-04    3.23      45.9  T
     SCC iter.                  ...        0 min,  0.152 sec
     gradient                   ...        0 min,  0.147 sec
 * total energy  :  -132.0695488 Eh     change       -0.1923543E-03 Eh
   gradient norm :     0.0042808 Eh/α   predicted    -0.1504999E-03 ( -21.76%)
   displ. norm   :     0.3324041 α      lambda       -0.1796413E-03
   maximum displ.:     0.2056788 α      in ANC's #5, #3, #1, ...

........................................................................
.............................. CYCLE   20 ..............................
........................................................................
   1   -134.0084569 -0.134008E+03  0.512E-02    3.24       0.0  T
   2   -134.0084582 -0.129402E-05  0.301E-02    3.24       1.0  T
   3   -134.0084551  0.311175E-05  0.606E-03    3.24       1.8  T
   4   -134.0084587 -0.367391E-05  0.913E-04    3.24      11.8  T
   5   -134.0084588 -0.318939E-07  0.481E-04    3.24      22.4  T
   6   -134.0084588 -0.226120E-08  0.218E-04    3.24      49.4  T
     SCC iter.                  ...        0 min,  0.161 sec
     gradient                   ...        0 min,  0.148 sec
 * total energy  :  -132.0696858 Eh     change       -0.1369338E-03 Eh
   gradient norm :     0.0057808 Eh/α   predicted    -0.9974923E-04 ( -27.16%)
   displ. norm   :     0.3579293 α      lambda       -0.1874106E-03
   maximum displ.:     0.2221410 α      in ANC's #5, #1, #3, ...
 * RMSD in coord.:     0.7632434 α      energy gain  -0.3142187E-01 Eh

generating ANC from model Hessian ...
Using Lindh-Hessian (1995)
 Shifting diagonal of input Hessian by    9.9112953820587584E-003
 Lowest  eigenvalues of input Hessian
    0.000000    0.000000    0.000000    0.000000    0.000000    0.000000
    0.010000    0.010105    0.010213    0.010288    0.010323    0.010379
    0.010428    0.010482    0.010581    0.010821    0.011282    0.011384
 Highest eigenvalues
    2.025834    2.107096    2.108593    2.312066    2.316838    2.362564


........................................................................
.............................. CYCLE   21 ..............................
........................................................................
   1   -134.0063620 -0.134006E+03  0.489E-02    3.23       0.0  T
   2   -134.0063635 -0.147938E-05  0.288E-02    3.23       1.0  T
   3   -134.0063601  0.342180E-05  0.639E-03    3.23       1.7  T
   4   -134.0063641 -0.402171E-05  0.916E-04    3.23      11.8  T
   5   -134.0063642 -0.331266E-07  0.458E-04    3.23      23.6  T
   6   -134.0063642 -0.269569E-08  0.232E-04    3.23      46.4  T
     SCC iter.                  ...        0 min,  0.160 sec
     gradient                   ...        0 min,  0.125 sec
 * total energy  :  -132.0698297 Eh     change       -0.1439509E-03 Eh
   gradient norm :     0.0056372 Eh/α   predicted     0.0000000E+00 (-100.00%)
   displ. norm   :     0.0628595 α      lambda       -0.9100484E-04
   maximum displ.:     0.0270310 α      in ANC's #5, #23, #4, ...

........................................................................
.............................. CYCLE   22 ..............................
........................................................................
   1   -134.0074637 -0.134007E+03  0.132E-02    3.24       0.0  T
   2   -134.0074643 -0.601746E-06  0.777E-03    3.24       1.4  T
   3   -134.0074642  0.153547E-06  0.220E-03    3.24       4.9  T
   4   -134.0074644 -0.202878E-06  0.589E-04    3.24      18.3  T
   5   -134.0074644 -0.245828E-07  0.172E-04    3.24      62.8  T
     SCC iter.                  ...        0 min,  0.134 sec
     gradient                   ...        0 min,  0.130 sec
 * total energy  :  -132.0699019 Eh     change       -0.7213191E-04 Eh
   gradient norm :     0.0023308 Eh/α   predicted    -0.4570510E-04 ( -36.64%)
   displ. norm   :     0.1544558 α      lambda       -0.1225733E-03
   maximum displ.:     0.0733537 α      in ANC's #5, #23, #4, ...

........................................................................
.............................. CYCLE   23 ..............................
........................................................................
   1   -134.0085846 -0.134009E+03  0.264E-02    3.25       0.0  T
   2   -134.0085858 -0.119506E-05  0.155E-02    3.25       1.0  T
   3   -134.0085853  0.539801E-06  0.332E-03    3.25       3.2  T
   4   -134.0085859 -0.667902E-06  0.869E-04    3.25      12.4  T
   5   -134.0085860 -0.523140E-07  0.283E-04    3.25      38.1  T
     SCC iter.                  ...        0 min,  0.138 sec
     gradient                   ...        0 min,  0.124 sec
 * total energy  :  -132.0699844 Eh     change       -0.8250704E-04 Eh
   gradient norm :     0.0027682 Eh/α   predicted    -0.6278592E-04 ( -23.90%)
   displ. norm   :     0.1429590 α      lambda       -0.6422644E-04
   maximum displ.:     0.0745899 α      in ANC's #5, #4, #23, ...

........................................................................
.............................. CYCLE   24 ..............................
........................................................................
   1   -134.0087975 -0.134009E+03  0.214E-02    3.25       0.0  T
   2   -134.0087978 -0.318393E-06  0.126E-02    3.25       1.0  T
   3   -134.0087973  0.467848E-06  0.243E-03    3.25       4.4  T
   4   -134.0087979 -0.559514E-06  0.450E-04    3.25      24.0  T
   5   -134.0087979 -0.103845E-07  0.207E-04    3.25      52.1  T
     SCC iter.                  ...        0 min,  0.137 sec
     gradient                   ...        0 min,  0.125 sec
 * total energy  :  -132.0700369 Eh     change       -0.5257449E-04 Eh
   gradient norm :     0.0038285 Eh/α   predicted    -0.3277202E-04 ( -37.67%)
   displ. norm   :     0.2297941 α      lambda       -0.9875173E-04
   maximum displ.:     0.1231634 α      in ANC's #5, #4, #1, ...

........................................................................
.............................. CYCLE   25 ..............................
........................................................................
   1   -134.0085261 -0.134009E+03  0.327E-02    3.25       0.0  T
   2   -134.0085267 -0.638939E-06  0.193E-02    3.25       1.0  T
   3   -134.0085251  0.162162E-05  0.435E-03    3.25       2.5  T
   4   -134.0085270 -0.192058E-05  0.603E-04    3.25      17.9  T
   5   -134.0085270 -0.917029E-08  0.326E-04    3.25      33.0  T
   6   -134.0085270 -0.891362E-09  0.138E-04    3.25      78.0  T
     SCC iter.                  ...        0 min,  0.161 sec
     gradient                   ...        0 min,  0.125 sec
 * total energy  :  -132.0701180 Eh     change       -0.8108320E-04 Eh
   gradient norm :     0.0034374 Eh/α   predicted    -0.5199423E-04 ( -35.88%)
   displ. norm   :     0.2989942 α      lambda       -0.1165574E-03
   maximum displ.:     0.1666253 α      in ANC's #5, #4, #1, ...

........................................................................
.............................. CYCLE   26 ..............................
........................................................................
   1   -134.0078953 -0.134008E+03  0.416E-02    3.25       0.0  T
   2   -134.0078965 -0.120098E-05  0.246E-02    3.25       1.0  T
   3   -134.0078933  0.326842E-05  0.616E-03    3.25       1.8  T
   4   -134.0078971 -0.385901E-05  0.809E-04    3.25      13.3  T
   5   -134.0078971 -0.167772E-07  0.440E-04    3.25      24.5  T
   6   -134.0078971 -0.251492E-08  0.199E-04    3.25      54.2  T
     SCC iter.                  ...        0 min,  0.160 sec
     gradient                   ...        0 min,  0.119 sec
 * total energy  :  -132.0702119 Eh     change       -0.9390553E-04 Eh
   gradient norm :     0.0022698 Eh/α   predicted    -0.6348888E-04 ( -32.39%)
   displ. norm   :     0.3110952 α      lambda       -0.1086370E-03
   maximum displ.:     0.1790153 α      in ANC's #5, #4, #1, ...

........................................................................
.............................. CYCLE   27 ..............................
........................................................................
   1   -134.0074549 -0.134007E+03  0.422E-02    3.25       0.0  T
   2   -134.0074562 -0.124620E-05  0.249E-02    3.25       1.0  T
   3   -134.0074524  0.381280E-05  0.658E-03    3.25       1.6  T
   4   -134.0074569 -0.449767E-05  0.837E-04    3.25      12.9  T
   5   -134.0074569 -0.159370E-07  0.473E-04    3.25      22.8  T
   6   -134.0074569 -0.391387E-08  0.214E-04    3.25      50.3  T
     SCC iter.                  ...        0 min,  0.160 sec
     gradient                   ...        0 min,  0.126 sec
 * total energy  :  -132.0703023 Eh     change       -0.9041721E-04 Eh
   gradient norm :     0.0022168 Eh/α   predicted    -0.5957600E-04 ( -34.11%)
   displ. norm   :     0.3250658 α      lambda       -0.1133605E-03
   maximum displ.:     0.1899517 α      in ANC's #5, #4, #1, ...

........................................................................
.............................. CYCLE   28 ..............................
........................................................................
   1   -134.0073985 -0.134007E+03  0.432E-02    3.25       0.0  T
   2   -134.0073998 -0.130234E-05  0.255E-02    3.25       1.0  T
   3   -134.0073951  0.464597E-05  0.712E-03    3.25       1.5  T
   4   -134.0074006 -0.544994E-05  0.848E-04    3.25      12.7  T
   5   -134.0074006 -0.163680E-07  0.492E-04    3.25      21.9  T
   6   -134.0074006 -0.566175E-08  0.222E-04    3.25      48.6  T
     SCC iter.                  ...        0 min,  0.158 sec
     gradient                   ...        0 min,  0.105 sec
 * total energy  :  -132.0704004 Eh     change       -0.9809684E-04 Eh
   gradient norm :     0.0032715 Eh/α   predicted    -0.6267121E-04 ( -36.11%)
   displ. norm   :     0.3822931 α      lambda       -0.1411876E-03
   maximum displ.:     0.2236014 α      in ANC's #5, #4, #1, ...

........................................................................
.............................. CYCLE   29 ..............................
........................................................................
   1   -134.0076369 -0.134008E+03  0.481E-02    3.25       0.0  T
   2   -134.0076385 -0.163157E-05  0.284E-02    3.24       1.0  T
   3   -134.0076320  0.654792E-05  0.840E-03    3.24       1.3  T
   4   -134.0076396 -0.768157E-05  0.967E-04    3.24      11.2  T
   5   -134.0076397 -0.235781E-07  0.570E-04    3.24      18.9  T
   6   -134.0076397 -0.639471E-08  0.245E-04    3.24      44.0  T
     SCC iter.                  ...        0 min,  0.164 sec
     gradient                   ...        0 min,  0.133 sec
 * total energy  :  -132.0705237 Eh     change       -0.1233004E-03 Eh
   gradient norm :     0.0041222 Eh/α   predicted    -0.8091333E-04 ( -34.38%)
   displ. norm   :     0.4769896 α      lambda       -0.1822276E-03
   maximum displ.:     0.2778577 α      in ANC's #5, #4, #1, ...

........................................................................
.............................. CYCLE   30 ..............................
........................................................................
   1   -134.0078597 -0.134008E+03  0.575E-02    3.24       0.0  T
   2   -134.0078623 -0.259092E-05  0.339E-02    3.24       1.0  T
   3   -134.0078518  0.105482E-04  0.107E-02    3.24       1.0  T
   4   -134.0078641 -0.123814E-04  0.116E-03    3.24       9.3  T
   5   -134.0078642 -0.458949E-07  0.671E-04    3.24      16.1  T
   6   -134.0078642 -0.672296E-08  0.309E-04    3.24      34.9  T
     SCC iter.                  ...        0 min,  0.163 sec
     gradient                   ...        0 min,  0.132 sec
 * total energy  :  -132.0706827 Eh     change       -0.1589609E-03 Eh
   gradient norm :     0.0045931 Eh/α   predicted    -0.1118473E-03 ( -29.64%)
   displ. norm   :     0.5634208 α      lambda       -0.2174553E-03
   maximum displ.:     0.3271700 α      in ANC's #5, #1, #4, ...

........................................................................
.............................. CYCLE   31 ..............................
........................................................................
   1   -134.0081962 -0.134008E+03  0.635E-02    3.24       0.0  T
   2   -134.0081996 -0.338649E-05  0.374E-02    3.24       1.0  T
   3   -134.0081858  0.138127E-04  0.124E-02    3.24       1.0  T
   4   -134.0082021 -0.163017E-04  0.130E-03    3.24       8.3  T
   5   -134.0082022 -0.527905E-07  0.766E-04    3.23      14.1  T
   6   -134.0082022 -0.692881E-08  0.356E-04    3.24      30.3  T
     SCC iter.                  ...        0 min,  0.162 sec
     gradient                   ...        0 min,  0.141 sec
 * total energy  :  -132.0708689 Eh     change       -0.1862280E-03 Eh
   gradient norm :     0.0041880 Eh/α   predicted    -0.1432911E-03 ( -23.06%)
   displ. norm   :     0.5993286 α      lambda       -0.2250350E-03
   maximum displ.:     0.3472637 α      in ANC's #5, #1, #4, ...

........................................................................
.............................. CYCLE   32 ..............................
........................................................................
   1   -134.0085667 -0.134009E+03  0.661E-02    3.23       0.0  T
   2   -134.0085708 -0.410306E-05  0.390E-02    3.23       1.0  T
   3   -134.0085546  0.162047E-04  0.135E-02    3.23       1.0  T
   4   -134.0085738 -0.192443E-04  0.132E-03    3.23       8.1  T
   5   -134.0085739 -0.534798E-07  0.781E-04    3.23      13.8  T
   6   -134.0085739 -0.715102E-08  0.374E-04    3.23      28.8  T
     SCC iter.                  ...        0 min,  0.160 sec
     gradient                   ...        0 min,  0.136 sec
 * total energy  :  -132.0710549 Eh     change       -0.1859228E-03 Eh
   gradient norm :     0.0037924 Eh/α   predicted    -0.1529346E-03 ( -17.74%)
   displ. norm   :     0.5653290 α      lambda       -0.2009535E-03
   maximum displ.:     0.3274056 α      in ANC's #5, #1, #4, ...

........................................................................
.............................. CYCLE   33 ..............................
........................................................................
   1   -134.0093993 -0.134009E+03  0.621E-02    3.24       0.0  T
   2   -134.0094035 -0.420287E-05  0.365E-02    3.24       1.0  T
   3   -134.0093887  0.148437E-04  0.131E-02    3.24       1.0  T
   4   -134.0094065 -0.178183E-04  0.127E-03    3.24       8.5  T
   5   -134.0094066 -0.523140E-07  0.739E-04    3.24      14.6  T
   6   -134.0094066 -0.475748E-08  0.354E-04    3.24      30.5  T
     SCC iter.                  ...        0 min,  0.162 sec
     gradient                   ...        0 min,  0.131 sec
 * total energy  :  -132.0712131 Eh     change       -0.1582756E-03 Eh
   gradient norm :     0.0030466 Eh/α   predicted    -0.1326099E-03 ( -16.22%)
   displ. norm   :     0.5039347 α      lambda       -0.1531825E-03
   maximum displ.:     0.2917431 α      in ANC's #5, #1, #4, ...

........................................................................
.............................. CYCLE   34 ..............................
........................................................................
   1   -134.0093417 -0.134009E+03  0.598E-02    3.24       0.0  T
   2   -134.0093460 -0.425279E-05  0.352E-02    3.24       1.0  T
   3   -134.0093317  0.142500E-04  0.129E-02    3.24       1.0  T
   4   -134.0093489 -0.171770E-04  0.120E-03    3.24       9.0  T
   5   -134.0093489 -0.495891E-07  0.672E-04    3.24      16.1  T
   6   -134.0093489 -0.518591E-08  0.322E-04    3.24      33.5  T
     SCC iter.                  ...        0 min,  0.157 sec
     gradient                   ...        0 min,  0.143 sec
 * total energy  :  -132.0713301 Eh     change       -0.1169329E-03 Eh
   gradient norm :     0.0033907 Eh/α   predicted    -0.9605215E-04 ( -17.86%)
   displ. norm   :     0.3779375 α      lambda       -0.1193310E-03
   maximum displ.:     0.2133241 α      in ANC's #5, #1, #4, ...

........................................................................
.............................. CYCLE   35 ..............................
........................................................................
   1   -134.0106086 -0.134011E+03  0.502E-02    3.26       0.0  T
   2   -134.0106122 -0.363250E-05  0.295E-02    3.26       1.0  T
   3   -134.0106025  0.965939E-05  0.108E-02    3.25       1.0  T
   4   -134.0106143 -0.117808E-04  0.113E-03    3.26       9.5  T
   5   -134.0106144 -0.655409E-07  0.568E-04    3.26      19.0  T
   6   -134.0106144 -0.299846E-08  0.263E-04    3.26      40.9  T
     SCC iter.                  ...        0 min,  0.155 sec
     gradient                   ...        0 min,  0.145 sec
 * total energy  :  -132.0714131 Eh     change       -0.8302846E-04 Eh
   gradient norm :     0.0036433 Eh/α   predicted    -0.6819153E-04 ( -17.87%)
   displ. norm   :     0.3540339 α      lambda       -0.8692376E-04
   maximum displ.:     0.2029174 α      in ANC's #5, #1, #4, ...

........................................................................
.............................. CYCLE   36 ..............................
........................................................................
   1   -134.0085160 -0.134009E+03  0.501E-02    3.24       0.0  T
   2   -134.0085197 -0.377091E-05  0.294E-02    3.24       1.0  T
   3   -134.0085102  0.956760E-05  0.108E-02    3.24       1.0  T
   4   -134.0085218 -0.116022E-04  0.110E-03    3.24       9.8  T
   5   -134.0085218 -0.548090E-07  0.560E-04    3.24      19.2  T
   6   -134.0085218 -0.673489E-08  0.296E-04    3.24      36.4  T
     SCC iter.                  ...        0 min,  0.162 sec
     gradient                   ...        0 min,  0.152 sec
 * total energy  :  -132.0714669 Eh     change       -0.5383816E-04 Eh
   gradient norm :     0.0032681 Eh/α   predicted    -0.4891088E-04 (  -9.15%)
   displ. norm   :     0.3540402 α      lambda        0.3088243E-04
   maximum displ.:     0.2029174 α      in ANC's #5, #1, #4, ...

........................................................................
.............................. CYCLE   37 ..............................
........................................................................
   1   -134.0055849 -0.134006E+03  0.502E-02    3.22       0.0  T
   2   -134.0055889 -0.401181E-05  0.295E-02    3.23       1.0  T
   3   -134.0055795  0.945101E-05  0.107E-02    3.23       1.0  T
   4   -134.0055910 -0.114800E-04  0.114E-03    3.23       9.4  T
   5   -134.0055910 -0.636359E-07  0.567E-04    3.23      19.0  T
   6   -134.0055910 -0.739340E-08  0.303E-04    3.23      35.6  T
     SCC iter.                  ...        0 min,  0.164 sec
     gradient                   ...        0 min,  0.149 sec
 * total energy  :  -132.0714424 Eh     change        0.2452864E-04 Eh
   gradient norm :     0.0081001 Eh/α   predicted     0.1737671E-04 ( -29.16%)
   displ. norm   :     0.2011284 α      lambda       -0.1257322E-03
   maximum displ.:     0.1037205 α      in ANC's #5, #4, #1, ...

........................................................................
.............................. CYCLE   38 ..............................
........................................................................
   1   -134.0100030 -0.134010E+03  0.277E-02    3.27       0.0  T
   2   -134.0100050 -0.201061E-05  0.164E-02    3.26       1.0  T
   3   -134.0100037  0.131090E-05  0.476E-03    3.26       2.3  T
   4   -134.0100054 -0.164757E-05  0.946E-04    3.25      11.4  T
   5   -134.0100054 -0.625169E-07  0.417E-04    3.25      25.9  T
   6   -134.0100054 -0.661444E-08  0.220E-04    3.26      48.9  T
     SCC iter.                  ...        0 min,  0.157 sec
     gradient                   ...        0 min,  0.156 sec
 * total energy  :  -132.0715117 Eh     change       -0.6934375E-04 Eh
   gradient norm :     0.0026851 Eh/α   predicted    -0.6540737E-04 (  -5.68%)
   displ. norm   :     0.1021720 α      lambda       -0.3709167E-04
   maximum displ.:     0.0460563 α      in ANC's #5, #1, #4, ...

........................................................................
.............................. CYCLE   39 ..............................
........................................................................
   1   -134.0103359 -0.134010E+03  0.130E-02    3.25       0.0  T
   2   -134.0103361 -0.281553E-06  0.767E-03    3.25       1.4  T
   3   -134.0103356  0.547773E-06  0.263E-03    3.25       4.1  T
   4   -134.0103363 -0.665145E-06  0.368E-04    3.25      29.3  T
   5   -134.0103363 -0.893581E-08  0.162E-04    3.25      66.5  T
     SCC iter.                  ...        0 min,  0.133 sec
     gradient                   ...        0 min,  0.117 sec
 * total energy  :  -132.0715401 Eh     change       -0.2838795E-04 Eh
   gradient norm :     0.0017908 Eh/α   predicted    -0.1874103E-04 ( -33.98%)
   displ. norm   :     0.2149744 α      lambda       -0.5097156E-04
   maximum displ.:     0.0836717 α      in ANC's #16, #3, #7, ...

........................................................................
.............................. CYCLE   40 ..............................
........................................................................
   1   -134.0100710 -0.134010E+03  0.323E-02    3.24       0.0  T
   2   -134.0100719 -0.970592E-06  0.190E-02    3.24       1.0  T
   3   -134.0100696  0.232576E-05  0.516E-03    3.24       2.1  T
   4   -134.0100723 -0.270591E-05  0.821E-04    3.24      13.1  T
   5   -134.0100724 -0.501226E-07  0.352E-04    3.24      30.7  T
   6   -134.0100724 -0.198281E-08  0.164E-04    3.24      65.7  T
     SCC iter.                  ...        0 min,  0.163 sec
     gradient                   ...        0 min,  0.128 sec
 * total energy  :  -132.0715809 Eh     change       -0.4080858E-04 Eh
   gradient norm :     0.0020392 Eh/α   predicted    -0.2600971E-04 ( -36.26%)
   displ. norm   :     0.1050157 α      lambda       -0.1882805E-04
   maximum displ.:     0.0570691 α      in ANC's #5, #16, #9, ...

........................................................................
.............................. CYCLE   41 ..............................
........................................................................
   1   -134.0094354 -0.134009E+03  0.164E-02    3.24       0.0  T
   2   -134.0094357 -0.271012E-06  0.963E-03    3.24       1.1  T
   3   -134.0094348  0.858748E-06  0.311E-03    3.24       3.5  T
   4   -134.0094359 -0.101416E-05  0.320E-04    3.24      33.7  T
   5   -134.0094359 -0.469726E-08  0.163E-04    3.24      66.0  T
   6   -134.0094359 -0.500876E-09  0.873E-05    3.24     123.5  T
     SCC iter.                  ...        0 min,  0.156 sec
     gradient                   ...        0 min,  0.147 sec
 * total energy  :  -132.0715962 Eh     change       -0.1525055E-04 Eh
   gradient norm :     0.0015867 Eh/α   predicted    -0.9521132E-05 ( -37.57%)
   displ. norm   :     0.2429958 α      lambda       -0.2976672E-04
   maximum displ.:     0.1153754 α      in ANC's #5, #16, #3, ...

........................................................................
.............................. CYCLE   42 ..............................
........................................................................
   1   -134.0087751 -0.134009E+03  0.400E-02    3.23       0.0  T
   2   -134.0087763 -0.118492E-05  0.235E-02    3.23       1.0  T
   3   -134.0087716  0.467703E-05  0.714E-03    3.23       1.5  T
   4   -134.0087771 -0.547802E-05  0.692E-04    3.23      15.6  T
   5   -134.0087771 -0.154065E-07  0.381E-04    3.23      28.3  T
   6   -134.0087771 -0.246479E-08  0.178E-04    3.23      60.5  T
     SCC iter.                  ...        0 min,  0.163 sec
     gradient                   ...        0 min,  0.147 sec
 * total energy  :  -132.0716175 Eh     change       -0.2125435E-04 Eh
   gradient norm :     0.0021634 Eh/α   predicted    -0.1527562E-04 ( -28.13%)
   displ. norm   :     0.0357744 α      lambda       -0.9395648E-05
   maximum displ.:     0.0198155 α      in ANC's #5, #3, #9, ...
 * RMSD in coord.:     0.5689729 α      energy gain  -0.1931671E-02 Eh

generating ANC from model Hessian ...
Using Lindh-Hessian (1995)
 Shifting diagonal of input Hessian by    9.9069697747352029E-003
 Lowest  eigenvalues of input Hessian
    0.000000    0.000000    0.000000    0.000000    0.000000    0.000000
    0.010000    0.010122    0.010219    0.010300    0.010306    0.010367
    0.010491    0.010547    0.010630    0.010823    0.011273    0.011394
 Highest eigenvalues
    2.029648    2.106510    2.108305    2.317687    2.318403    2.363534


........................................................................
.............................. CYCLE   43 ..............................
........................................................................
   1   -134.0089614 -0.134009E+03  0.509E-03    3.24       0.0  T
   2   -134.0089615 -0.914443E-07  0.302E-03    3.24       3.6  T
   3   -134.0089615  0.280591E-07  0.841E-04    3.24      12.8  T
   4   -134.0089615 -0.359123E-07  0.209E-04    3.24      51.6  T
     SCC iter.                  ...        0 min,  0.112 sec
     gradient                   ...        0 min,  0.111 sec
 * total energy  :  -132.0716247 Eh     change       -0.7277008E-05 Eh
   gradient norm :     0.0010603 Eh/α   predicted     0.0000000E+00 (-100.00%)
   displ. norm   :     0.0298151 α      lambda       -0.6742761E-05
   maximum displ.:     0.0126973 α      in ANC's #3, #12, #4, ...

........................................................................
.............................. CYCLE   44 ..............................
........................................................................
   1   -134.0097597 -0.134010E+03  0.569E-03    3.24       0.0  T
   2   -134.0097597 -0.302521E-07  0.336E-03    3.24       3.2  T
   3   -134.0097596  0.569329E-07  0.874E-04    3.24      12.3  T
   4   -134.0097597 -0.690411E-07  0.143E-04    3.24      75.5  T
     SCC iter.                  ...        0 min,  0.111 sec
     gradient                   ...        0 min,  0.134 sec
 * total energy  :  -132.0716326 Eh     change       -0.7875638E-05 Eh
   gradient norm :     0.0004156 Eh/α   predicted    -0.3373762E-05 ( -57.16%)
   displ. norm   :     0.0926736 α      lambda       -0.1306948E-04
   maximum displ.:     0.0400519 α      in ANC's #3, #12, #4, ...

........................................................................
.............................. CYCLE   45 ..............................
........................................................................
   1   -134.0103358 -0.134010E+03  0.158E-02    3.24       0.0  T
   2   -134.0103360 -0.162025E-06  0.932E-03    3.24       1.2  T
   3   -134.0103355  0.516387E-06  0.234E-03    3.24       4.6  T
   4   -134.0103361 -0.602467E-06  0.324E-04    3.24      33.2  T
   5   -134.0103361 -0.342902E-08  0.176E-04    3.24      61.2  T
     SCC iter.                  ...        0 min,  0.137 sec
     gradient                   ...        0 min,  0.143 sec
 * total energy  :  -132.0716468 Eh     change       -0.1416274E-04 Eh
   gradient norm :     0.0012742 Eh/α   predicted    -0.6575000E-05 ( -53.58%)
   displ. norm   :     0.1439536 α      lambda       -0.1521726E-04
   maximum displ.:     0.0649858 α      in ANC's #3, #4, #12, ...

........................................................................
.............................. CYCLE   46 ..............................
........................................................................
   1   -134.0101156 -0.134010E+03  0.238E-02    3.24       0.0  T
   2   -134.0101159 -0.254961E-06  0.141E-02    3.24       1.0  T
   3   -134.0101150  0.916099E-06  0.307E-03    3.24       3.5  T
   4   -134.0101160 -0.107427E-05  0.464E-04    3.24      23.2  T
   5   -134.0101160 -0.354493E-08  0.264E-04    3.24      40.8  T
   6   -134.0101160 -0.115111E-08  0.942E-05    3.24     114.4  T
     SCC iter.                  ...        0 min,  0.162 sec
     gradient                   ...        0 min,  0.135 sec
 * total energy  :  -132.0716609 Eh     change       -0.1414227E-04 Eh
   gradient norm :     0.0016611 Eh/α   predicted    -0.7721661E-05 ( -45.40%)
   displ. norm   :     0.1439629 α      lambda        0.6526149E-05
   maximum displ.:     0.0649857 α      in ANC's #3, #4, #12, ...

........................................................................
.............................. CYCLE   47 ..............................
........................................................................
   1   -134.0096628 -0.134010E+03  0.238E-02    3.24       0.0  T
   2   -134.0096630 -0.252416E-06  0.141E-02    3.24       1.0  T
   3   -134.0096621  0.918963E-06  0.306E-03    3.24       3.5  T
   4   -134.0096632 -0.107696E-05  0.466E-04    3.24      23.2  T
   5   -134.0096632 -0.356567E-08  0.265E-04    3.24      40.8  T
   6   -134.0096632 -0.111862E-08  0.932E-05    3.24     115.7  T
     SCC iter.                  ...        0 min,  0.161 sec
     gradient                   ...        0 min,  0.145 sec
 * total energy  :  -132.0716571 Eh     change        0.3760422E-05 Eh
   gradient norm :     0.0027299 Eh/α   predicted     0.3293125E-05 ( -12.43%)
   displ. norm   :     0.0178063 α      lambda       -0.1900774E-04
   maximum displ.:     0.0079648 α      in ANC's #3, #4, #5, ...

........................................................................
.............................. CYCLE   48 ..............................
........................................................................
   1   -134.0097799 -0.134010E+03  0.495E-03    3.24       0.0  T
   2   -134.0097800 -0.324473E-07  0.293E-03    3.24       3.7  T
   3   -134.0097799  0.466296E-07  0.809E-04    3.24      13.3  T
   4   -134.0097800 -0.568581E-07  0.156E-04    3.24      69.2  T
     SCC iter.                  ...        0 min,  0.106 sec
     gradient                   ...        0 min,  0.131 sec
 * total energy  :  -132.0716714 Eh     change       -0.1424231E-04 Eh
   gradient norm :     0.0014625 Eh/α   predicted    -0.9510938E-05 ( -33.22%)
   displ. norm   :     0.0635258 α      lambda       -0.1606286E-04
   maximum displ.:     0.0331554 α      in ANC's #3, #4, #5, ...

........................................................................
.............................. CYCLE   49 ..............................
........................................................................
   1   -134.0099774 -0.134010E+03  0.108E-02    3.24       0.0  T
   2   -134.0099775 -0.154379E-06  0.637E-03    3.24       1.7  T
   3   -134.0099773  0.257126E-06  0.194E-03    3.24       5.6  T
   4   -134.0099776 -0.307944E-06  0.324E-04    3.24      33.3  T
   5   -134.0099776 -0.599945E-08  0.139E-04    3.24      77.5  T
     SCC iter.                  ...        0 min,  0.129 sec
     gradient                   ...        0 min,  0.129 sec
 * total energy  :  -132.0716836 Eh     change       -0.1221361E-04 Eh
   gradient norm :     0.0011872 Eh/α   predicted    -0.8046692E-05 ( -34.12%)
   displ. norm   :     0.0566926 α      lambda       -0.6394199E-05
   maximum displ.:     0.0325581 α      in ANC's #3, #4, #5, ...

........................................................................
.............................. CYCLE   50 ..............................
........................................................................
   1   -134.0098576 -0.134010E+03  0.722E-03    3.24       0.0  T
   2   -134.0098577 -0.313313E-07  0.426E-03    3.24       2.5  T
   3   -134.0098576  0.106482E-06  0.111E-03    3.24       9.7  T
   4   -134.0098577 -0.123555E-06  0.139E-04    3.24      77.7  T
   5   -134.0098577 -0.692893E-09  0.728E-05    3.24     148.2  T
     SCC iter.                  ...        0 min,  0.133 sec
     gradient                   ...        0 min,  0.087 sec
 * total energy  :  -132.0716921 Eh     change       -0.8540564E-05 Eh
   gradient norm :     0.0008272 Eh/α   predicted    -0.3203113E-05 ( -62.50%)
   displ. norm   :     0.1626452 α      lambda       -0.1615696E-04
   maximum displ.:     0.0910314 α      in ANC's #3, #4, #5, ...

........................................................................
.............................. CYCLE   51 ..............................
........................................................................
   1   -134.0095439 -0.134010E+03  0.204E-02    3.24       0.0  T
   2   -134.0095441 -0.228415E-06  0.120E-02    3.24       1.0  T
   3   -134.0095432  0.936154E-06  0.323E-03    3.24       3.3  T
   4   -134.0095442 -0.108588E-05  0.368E-04    3.24      29.3  T
   5   -134.0095442 -0.378003E-08  0.206E-04    3.24      52.4  T
   6   -134.0095442 -0.791204E-09  0.958E-05    3.24     112.6  T
     SCC iter.                  ...        0 min,  0.159 sec
     gradient                   ...        0 min,  0.129 sec
 * total energy  :  -132.0717110 Eh     change       -0.1885111E-04 Eh
   gradient norm :     0.0008301 Eh/α   predicted    -0.8174173E-05 ( -56.64%)
   displ. norm   :     0.2329463 α      lambda       -0.1500262E-04
   maximum displ.:     0.1292216 α      in ANC's #3, #4, #5, ...

........................................................................
.............................. CYCLE   52 ..............................
........................................................................
   1   -134.0092110 -0.134009E+03  0.296E-02    3.24       0.0  T
   2   -134.0092115 -0.431671E-06  0.175E-02    3.24       1.0  T
   3   -134.0092096  0.190095E-05  0.447E-03    3.24       2.4  T
   4   -134.0092118 -0.219823E-05  0.503E-04    3.24      21.4  T
   5   -134.0092118 -0.621043E-08  0.287E-04    3.24      37.5  T
   6   -134.0092118 -0.158005E-08  0.125E-04    3.24      86.0  T
     SCC iter.                  ...        0 min,  0.161 sec
     gradient                   ...        0 min,  0.134 sec
 * total energy  :  -132.0717292 Eh     change       -0.1824389E-04 Eh
   gradient norm :     0.0013770 Eh/α   predicted    -0.7686577E-05 ( -57.87%)
   displ. norm   :     0.2821114 α      lambda       -0.1600091E-04
   maximum displ.:     0.1563871 α      in ANC's #3, #4, #5, ...

........................................................................
.............................. CYCLE   53 ..............................
........................................................................
   1   -134.0091306 -0.134009E+03  0.363E-02    3.24       0.0  T
   2   -134.0091312 -0.634870E-06  0.214E-02    3.24       1.0  T
   3   -134.0091285  0.275837E-05  0.532E-03    3.24       2.0  T
   4   -134.0091317 -0.319341E-05  0.616E-04    3.24      17.5  T
   5   -134.0091317 -0.902943E-08  0.355E-04    3.24      30.4  T
   6   -134.0091317 -0.213950E-08  0.147E-04    3.24      73.6  T
     SCC iter.                  ...        0 min,  0.167 sec
     gradient                   ...        0 min,  0.139 sec
 * total energy  :  -132.0717493 Eh     change       -0.2008664E-04 Eh
   gradient norm :     0.0014603 Eh/α   predicted    -0.8283856E-05 ( -58.76%)
   displ. norm   :     0.3486712 α      lambda       -0.1927697E-04
   maximum displ.:     0.1946171 α      in ANC's #3, #4, #2, ...

........................................................................
.............................. CYCLE   54 ..............................
........................................................................
   1   -134.0092306 -0.134009E+03  0.455E-02    3.24       0.0  T
   2   -134.0092316 -0.998107E-06  0.269E-02    3.24       1.0  T
   3   -134.0092274  0.415400E-05  0.649E-03    3.24       1.7  T
   4   -134.0092322 -0.482231E-05  0.780E-04    3.24      13.8  T
   5   -134.0092322 -0.143359E-07  0.452E-04    3.24      23.9  T
   6   -134.0092322 -0.290197E-08  0.177E-04    3.24      60.8  T
     SCC iter.                  ...        0 min,  0.168 sec
     gradient                   ...        0 min,  0.139 sec
 * total energy  :  -132.0717727 Eh     change       -0.2336999E-04 Eh
   gradient norm :     0.0011763 Eh/α   predicted    -0.1016200E-04 ( -56.52%)
   displ. norm   :     0.3544002 α      lambda       -0.1926923E-04
   maximum displ.:     0.2007844 α      in ANC's #3, #4, #2, ...

........................................................................
.............................. CYCLE   55 ..............................
........................................................................
   1   -134.0095659 -0.134010E+03  0.469E-02    3.24       0.0  T
   2   -134.0095670 -0.108314E-05  0.277E-02    3.24       1.0  T
   3   -134.0095627  0.423455E-05  0.655E-03    3.24       1.6  T
   4   -134.0095677 -0.493376E-05  0.828E-04    3.24      13.0  T
   5   -134.0095677 -0.166823E-07  0.479E-04    3.24      22.5  T
   6   -134.0095677 -0.252265E-08  0.184E-04    3.24      58.7  T
     SCC iter.                  ...        0 min,  0.160 sec
     gradient                   ...        0 min,  0.124 sec
 * total energy  :  -132.0717943 Eh     change       -0.2162208E-04 Eh
   gradient norm :     0.0008337 Eh/α   predicted    -0.1017638E-04 ( -52.94%)
   displ. norm   :     0.3542418 α      lambda       -0.1700789E-04
   maximum displ.:     0.2037375 α      in ANC's #3, #4, #2, ...

........................................................................
.............................. CYCLE   56 ..............................
........................................................................
   1   -134.0098168 -0.134010E+03  0.479E-02    3.24       0.0  T
   2   -134.0098180 -0.115353E-05  0.283E-02    3.24       1.0  T
   3   -134.0098138  0.414850E-05  0.651E-03    3.24       1.7  T
   4   -134.0098187 -0.485409E-05  0.875E-04    3.24      12.3  T
   5   -134.0098187 -0.197000E-07  0.503E-04    3.24      21.5  T
   6   -134.0098187 -0.209047E-08  0.193E-04    3.24      55.8  T
     SCC iter.                  ...        0 min,  0.160 sec
     gradient                   ...        0 min,  0.141 sec
 * total energy  :  -132.0718136 Eh     change       -0.1924902E-04 Eh
   gradient norm :     0.0008683 Eh/α   predicted    -0.8981395E-05 ( -53.34%)
   displ. norm   :     0.3436754 α      lambda       -0.1414106E-04
   maximum displ.:     0.2006114 α      in ANC's #3, #4, #2, ...

........................................................................
.............................. CYCLE   57 ..............................
........................................................................
   1   -134.0099848 -0.134010E+03  0.470E-02    3.24       0.0  T
   2   -134.0099859 -0.118780E-05  0.278E-02    3.24       1.0  T
   3   -134.0099822  0.376317E-05  0.625E-03    3.24       1.7  T
   4   -134.0099866 -0.442405E-05  0.912E-04    3.24      11.8  T
   5   -134.0099866 -0.256813E-07  0.514E-04    3.24      21.0  T
   6   -134.0099866 -0.152392E-08  0.207E-04    3.24      52.1  T
     SCC iter.                  ...        0 min,  0.158 sec
     gradient                   ...        0 min,  0.123 sec
 * total energy  :  -132.0718309 Eh     change       -0.1735630E-04 Eh
   gradient norm :     0.0008206 Eh/α   predicted    -0.7445790E-05 ( -57.10%)
   displ. norm   :     0.2574278 α      lambda       -0.1153483E-04
   maximum displ.:     0.1522713 α      in ANC's #3, #4, #2, ...

........................................................................
.............................. CYCLE   58 ..............................
........................................................................
   1   -134.0101264 -0.134010E+03  0.356E-02    3.24       0.0  T
   2   -134.0101271 -0.730657E-06  0.211E-02    3.24       1.0  T
   3   -134.0101250  0.205599E-05  0.466E-03    3.24       2.3  T
   4   -134.0101275 -0.242536E-05  0.742E-04    3.24      14.5  T
   5   -134.0101275 -0.200384E-07  0.409E-04    3.24      26.4  T
   6   -134.0101275 -0.746127E-09  0.170E-04    3.24      63.5  T
     SCC iter.                  ...        0 min,  0.158 sec
     gradient                   ...        0 min,  0.114 sec
 * total energy  :  -132.0718450 Eh     change       -0.1409537E-04 Eh
   gradient norm :     0.0006082 Eh/α   predicted    -0.5938389E-05 ( -57.87%)
   displ. norm   :     0.2602452 α      lambda       -0.1186229E-04
   maximum displ.:     0.1547429 α      in ANC's #3, #2, #4, ...

........................................................................
.............................. CYCLE   59 ..............................
........................................................................
   1   -134.0098309 -0.134010E+03  0.362E-02    3.23       0.0  T
   2   -134.0098317 -0.760220E-06  0.214E-02    3.24       1.0  T
   3   -134.0098296  0.202639E-05  0.465E-03    3.24       2.3  T
   4   -134.0098320 -0.239187E-05  0.792E-04    3.24      13.6  T
   5   -134.0098321 -0.247778E-07  0.430E-04    3.24      25.1  T
   6   -134.0098321 -0.783331E-09  0.180E-04    3.24      59.8  T
     SCC iter.                  ...        0 min,  0.162 sec
     gradient                   ...        0 min,  0.141 sec
 * total energy  :  -132.0718593 Eh     change       -0.1426074E-04 Eh
   gradient norm :     0.0004699 Eh/α   predicted    -0.6110397E-05 ( -57.15%)
   displ. norm   :     0.2562023 α      lambda       -0.1188669E-04
   maximum displ.:     0.1503188 α      in ANC's #3, #2, #4, ...

........................................................................
.............................. CYCLE   60 ..............................
........................................................................
   1   -134.0100459 -0.134010E+03  0.348E-02    3.24       0.0  T
   2   -134.0100467 -0.741175E-06  0.206E-02    3.24       1.0  T
   3   -134.0100450  0.169530E-05  0.430E-03    3.24       2.5  T
   4   -134.0100470 -0.200735E-05  0.788E-04    3.24      13.7  T
   5   -134.0100470 -0.289279E-07  0.417E-04    3.24      25.8  T
   6   -134.0100470 -0.543196E-09  0.179E-04    3.24      60.4  T
     SCC iter.                  ...        0 min,  0.160 sec
     gradient                   ...        0 min,  0.130 sec
 * total energy  :  -132.0718731 Eh     change       -0.1385495E-04 Eh
   gradient norm :     0.0006425 Eh/α   predicted    -0.6120631E-05 ( -55.82%)
   displ. norm   :     0.2657472 α      lambda       -0.1097214E-04
   maximum displ.:     0.1570706 α      in ANC's #3, #2, #4, ...

........................................................................
.............................. CYCLE   61 ..............................
........................................................................
   1   -134.0091798 -0.134009E+03  0.367E-02    3.23       0.0  T
   2   -134.0091805 -0.661891E-06  0.217E-02    3.23       1.0  T
   3   -134.0091786  0.188502E-05  0.444E-03    3.23       2.4  T
   4   -134.0091808 -0.222285E-05  0.783E-04    3.23      13.8  T
   5   -134.0091809 -0.211242E-07  0.431E-04    3.23      25.0  T
   6   -134.0091809 -0.113189E-08  0.174E-04    3.23      62.1  T
     SCC iter.                  ...        0 min,  0.159 sec
     gradient                   ...        0 min,  0.142 sec
 * total energy  :  -132.0718848 Eh     change       -0.1163123E-04 Eh
   gradient norm :     0.0010394 Eh/α   predicted    -0.5661122E-05 ( -51.33%)
   displ. norm   :     0.2613048 α      lambda       -0.1267391E-04
   maximum displ.:     0.1492271 α      in ANC's #3, #2, #4, ...

........................................................................
.............................. CYCLE   62 ..............................
........................................................................
   1   -134.0094793 -0.134009E+03  0.341E-02    3.23       0.0  T
   2   -134.0094798 -0.506351E-06  0.201E-02    3.23       1.0  T
   3   -134.0094785  0.126809E-05  0.366E-03    3.23       2.9  T
   4   -134.0094800 -0.150342E-05  0.653E-04    3.23      16.5  T
   5   -134.0094800 -0.159913E-07  0.360E-04    3.23      30.0  T
   6   -134.0094800 -0.411887E-09  0.149E-04    3.23      72.1  T
     SCC iter.                  ...        0 min,  0.158 sec
     gradient                   ...        0 min,  0.140 sec
 * total energy  :  -132.0718994 Eh     change       -0.1464443E-04 Eh
   gradient norm :     0.0008461 Eh/α   predicted    -0.6531679E-05 ( -55.40%)
   displ. norm   :     0.2729258 α      lambda       -0.1399865E-04
   maximum displ.:     0.1561284 α      in ANC's #3, #2, #4, ...

........................................................................
.............................. CYCLE   63 ..............................
........................................................................
   1   -134.0094614 -0.134009E+03  0.356E-02    3.23       0.0  T
   2   -134.0094619 -0.458625E-06  0.210E-02    3.23       1.0  T
   3   -134.0094603  0.159602E-05  0.399E-03    3.23       2.7  T
   4   -134.0094622 -0.187504E-05  0.614E-04    3.23      17.6  T
   5   -134.0094622 -0.805255E-08  0.357E-04    3.23      30.2  T
   6   -134.0094622 -0.124911E-08  0.132E-04    3.23      81.9  T
     SCC iter.                  ...        0 min,  0.159 sec
     gradient                   ...        0 min,  0.133 sec
 * total energy  :  -132.0719151 Eh     change       -0.1569040E-04 Eh
   gradient norm :     0.0007966 Eh/α   predicted    -0.7234652E-05 ( -53.89%)
   displ. norm   :     0.2841057 α      lambda       -0.1583372E-04
   maximum displ.:     0.1571262 α      in ANC's #3, #2, #4, ...

........................................................................
.............................. CYCLE   64 ..............................
........................................................................
   1   -134.0098725 -0.134010E+03  0.362E-02    3.24       0.0  T
   2   -134.0098729 -0.462799E-06  0.213E-02    3.24       1.0  T
   3   -134.0098713  0.164611E-05  0.404E-03    3.24       2.7  T
   4   -134.0098732 -0.193352E-05  0.560E-04    3.24      19.3  T
   5   -134.0098732 -0.479341E-08  0.328E-04    3.24      32.8  T
   6   -134.0098732 -0.162530E-08  0.118E-04    3.24      91.2  T
     SCC iter.                  ...        0 min,  0.165 sec
     gradient                   ...        0 min,  0.135 sec
 * total energy  :  -132.0719321 Eh     change       -0.1698152E-04 Eh
   gradient norm :     0.0005983 Eh/α   predicted    -0.8202182E-05 ( -51.70%)
   displ. norm   :     0.2811213 α      lambda       -0.9778959E-05
   maximum displ.:     0.1601498 α      in ANC's #3, #2, #4, ...

........................................................................
.............................. CYCLE   65 ..............................
........................................................................
   1   -134.0095014 -0.134010E+03  0.360E-02    3.23       0.0  T
   2   -134.0095020 -0.570124E-06  0.212E-02    3.24       1.0  T
   3   -134.0095001  0.193390E-05  0.444E-03    3.24       2.4  T
   4   -134.0095023 -0.227128E-05  0.604E-04    3.24      17.9  T
   5   -134.0095023 -0.784433E-08  0.351E-04    3.24      30.7  T
   6   -134.0095023 -0.156177E-08  0.131E-04    3.24      82.0  T
     SCC iter.                  ...        0 min,  0.167 sec
     gradient                   ...        0 min,  0.129 sec
 * total energy  :  -132.0719427 Eh     change       -0.1064961E-04 Eh
   gradient norm :     0.0008887 Eh/α   predicted    -0.5064277E-05 ( -52.45%)
   displ. norm   :     0.1601799 α      lambda       -0.7603543E-05
   maximum displ.:     0.0855959 α      in ANC's #2, #3, #4, ...

........................................................................
.............................. CYCLE   66 ..............................
........................................................................
   1   -134.0103413 -0.134010E+03  0.206E-02    3.25       0.0  T
[...]
    15   6 C        2.918    -0.064    29.600     8.922
    16   6 C        2.869     0.148    24.789     8.161
    17   8 O        1.705    -0.263    18.353     5.784
    18   6 C        3.644     0.037    20.293     6.475
    19   7 N        2.760    -0.150    24.238     7.312
    20   6 C        2.760     0.270    22.448     7.759
    21   6 C        2.981    -0.035    28.871     8.814
    22   6 C        2.974     0.009    27.803     8.649
    23   6 C        3.854    -0.007    20.669     6.466
    24   6 C        3.755    -0.106    22.585     6.776
    25   6 C        3.758    -0.103    22.528     6.767
    26   6 C        2.924    -0.036    28.887     8.814
    27   6 C        2.919    -0.029    28.715     8.787
    28   6 C        2.919    -0.029    28.731     8.790
    29   6 C        2.923    -0.032    28.806     8.802
    30   8 O        0.859    -0.414    21.959     6.283
    31   6 C        3.774     0.075    19.358     6.269
    32   6 C        2.685     0.344    21.151     7.526
    33   8 O        1.658    -0.356    20.009     6.039
    34   8 O        0.856    -0.352    20.749     6.107
    35   7 N        2.767    -0.124    23.686     7.228
    36   6 C        2.756     0.279    22.283     7.730
    37   6 C        2.977    -0.027    28.671     8.783
    38   6 C        2.921    -0.041    29.012     8.833
    39   6 C        2.919    -0.033    28.827     8.804
    40   6 C        2.917    -0.031    28.785     8.798
    41   6 C        2.926    -0.033    28.833     8.806
    42   6 C        2.974     0.018    27.606     8.618
    43   6 C        3.855    -0.018    20.855     6.495
    44   6 C        3.756    -0.102    22.502     6.764
    45   6 C        3.755    -0.097    22.408     6.750
    46   8 O        0.859    -0.413    21.944     6.281
    47   1 H        0.925     0.063     2.162     2.299
    48   1 H        0.924     0.039     2.459     2.452
    49   1 H        0.924     0.048     2.348     2.396
    50   1 H        0.926     0.040     2.445     2.445
    51   1 H        0.926     0.038     2.476     2.461
    52   1 H        0.926     0.036     2.496     2.471
    53   1 H        0.926     0.038     2.477     2.461
    54   1 H        0.924     0.063     2.165     2.301
    55   1 H        0.924     0.078     2.001     2.212
    56   1 H        0.926     0.043     2.413     2.429
    57   1 H        0.926     0.040     2.450     2.448
    58   1 H        0.926     0.039     2.456     2.451
    59   1 H        0.926     0.041     2.429     2.437
    60   1 H        0.924     0.040     2.445     2.445
    61   1 H        0.925     0.064     2.148     2.292
    62   1 H        0.924     0.049     2.335     2.390
    63   1 H        0.924     0.018     2.758     2.597
    64   1 H        0.925     0.041     2.438     2.442
    65   1 H        0.925     0.034     2.533     2.489
    66   1 H        0.925     0.041     2.442     2.444
    67   1 H        0.925     0.037     2.485     2.465
    68   1 H        0.925     0.040     2.451     2.448
    69   1 H        0.925     0.052     2.289     2.366
    70   1 H        0.926     0.046     2.376     2.410
    71   1 H        0.926     0.039     2.459     2.452
    72   1 H        0.926     0.042     2.425     2.435
    73   1 H        0.926     0.033     2.541     2.493
    74   1 H        0.923     0.070     2.089     2.260
    75   1 H        0.803     0.339     0.614     1.231
    76   1 H        0.926     0.057     2.229     2.335
    77   1 H        0.926     0.035     2.520     2.482
    78   1 H        0.926     0.032     2.553     2.499
    79   1 H        0.926     0.038     2.473     2.459
    80   1 H        0.924     0.048     2.340     2.392
    81   1 H        0.925     0.035     2.512     2.478
    82   1 H        0.925     0.042     2.422     2.434
    83   1 H        0.925     0.037     2.483     2.464
    84   1 H        0.925     0.025     2.656     2.548
    85   1 H        0.925     0.037     2.487     2.466
    86   1 H        0.925     0.035     2.518     2.481

 Mol. C6AA /au·bohr⁶  :      84060.080351
 Mol. C8AA /au·bohr⁸  :    1995010.897658
 Mol. α(0) /au        :        451.515105


Wiberg/Mayer (AO) data.
largest (>0.10) Wiberg bond orders for each atom

 ---------------------------------------------------------------------------
     #   Z sym  total        # sym  WBO       # sym  WBO       # sym  WBO
 ---------------------------------------------------------------------------
     1   6 C    3.935 --     4 C    1.378     8 C    1.326     2 O    1.063
     2   8 O    2.234 --     1 C    1.063     3 C    0.982
     3   6 C    3.944 --     2 O    0.982    47 H    0.979    49 H    0.977
                            48 H    0.976
     4   6 C    3.987 --     5 C    1.438     1 C    1.378    50 H    0.965
                             7 C    0.102
     5   6 C    3.990 --     6 C    1.440     4 C    1.438    51 H    0.971
                             8 C    0.106
     6   6 C    3.991 --     5 C    1.440     7 C    1.428    52 H    0.971
     7   6 C    3.991 --     8 C    1.433     6 C    1.428    53 H    0.964
                             4 C    0.102
     8   6 C    3.983 --     7 C    1.433     1 C    1.326     9 C    0.998
                             5 C    0.106
     9   6 C    3.963 --     8 C    0.998    10 C    0.954    35 N    0.951
                            54 H    0.949
    10   6 C    3.957 --    11 C    0.996     9 C    0.954    55 H    0.947
                            19 N    0.940
    11   6 C    3.982 --    12 C    1.439    16 C    1.318    10 C    0.996
                            14 C    0.105
    12   6 C    3.990 --    11 C    1.439    13 C    1.425    56 H    0.961
                            15 C    0.102
    13   6 C    3.991 --    14 C    1.442    12 C    1.425    57 H    0.971
    14   6 C    3.990 --    13 C    1.442    15 C    1.438    58 H    0.971
                            11 C    0.105
    15   6 C    3.987 --    14 C    1.438    16 C    1.377    59 H    0.965
                            12 C    0.102
    16   6 C    3.936 --    15 C    1.377    11 C    1.318    17 O    1.073
    17   8 O    2.247 --    16 C    1.073    18 C    0.981
    18   6 C    3.943 --    17 O    0.981    61 H    0.979    62 H    0.976
                            60 H    0.976
    19   7 N    3.447 --    20 C    1.182    31 C    0.983    10 C    0.940
                            30 O    0.184
    20   6 C    3.941 --    30 O    1.713    19 N    1.182    21 C    0.953
    21   6 C    3.985 --    29 C    1.412    22 C    1.376    20 C    0.953
                            27 C    0.109
    22   6 C    3.986 --    26 C    1.414    21 C    1.376    23 C    0.999
                            28 C    0.108
    23   6 C    3.996 --    24 C    1.007    22 C    0.999    25 C    0.988
                            63 H    0.959
    24   6 C    3.996 --    23 C    1.007    66 H    0.984    65 H    0.984
                            64 H    0.984
    25   6 C    3.994 --    23 C    0.988    67 H    0.987    68 H    0.984
                            69 H    0.984
    26   6 C    3.991 --    27 C    1.443    22 C    1.414    70 H    0.965
                            29 C    0.109
    27   6 C    3.991 --    26 C    1.443    28 C    1.438    71 H    0.971
                            21 C    0.109
    28   6 C    3.991 --    27 C    1.438    29 C    1.437    72 H    0.970
                            22 C    0.108
    29   6 C    3.991 --    28 C    1.437    21 C    1.412    73 H    0.967
                            26 C    0.109
    30   8 O    2.032 --    20 C    1.713    19 N    0.184
    31   6 C    3.968 --    35 N    0.994    19 N    0.983    74 H    0.932
                            32 C    0.891
    32   6 C    3.923 --    34 O    1.796    33 O    1.168    31 C    0.891
    33   8 O    2.235 --    32 C    1.168    75 H    0.827    34 O    0.173
    34   8 O    2.095 --    32 C    1.796    33 O    0.173
    35   7 N    3.440 --    36 C    1.181    31 C    0.994     9 C    0.951
                            46 O    0.181
    36   6 C    3.938 --    46 O    1.703    35 N    1.181    37 C    0.963
    37   6 C    3.985 --    38 C    1.405    42 C    1.377    36 C    0.963
                            40 C    0.106
    38   6 C    3.989 --    39 C    1.442    37 C    1.405    76 H    0.960
                            41 C    0.109
    39   6 C    3.991 --    38 C    1.442    40 C    1.432    77 H    0.970
                            42 C    0.109
    40   6 C    3.992 --    41 C    1.445    39 C    1.432    78 H    0.971
                            37 C    0.106
    41   6 C    3.991 --    40 C    1.445    42 C    1.412    79 H    0.965
                            38 C    0.109
    42   6 C    3.985 --    41 C    1.412    37 C    1.377    43 C    0.999
                            39 C    0.109
    43   6 C    3.993 --    42 C    0.999    44 C    0.997    45 C    0.996
                            80 H    0.960
    44   6 C    3.996 --    43 C    0.997    82 H    0.987    83 H    0.985
                            81 H    0.985
    45   6 C    3.997 --    43 C    0.996    85 H    0.985    84 H    0.985
                            86 H    0.985
    46   8 O    2.033 --    36 C    1.703    35 N    0.181
    47   1 H    0.996 --     3 C    0.979
    48   1 H    0.998 --     3 C    0.976
    49   1 H    0.998 --     3 C    0.977
    50   1 H    0.998 --     4 C    0.965
    51   1 H    0.998 --     5 C    0.971
    52   1 H    0.998 --     6 C    0.971
    53   1 H    0.998 --     7 C    0.964
    54   1 H    0.995 --     9 C    0.949
    55   1 H    0.994 --    10 C    0.947
    56   1 H    0.998 --    12 C    0.961
    57   1 H    0.998 --    13 C    0.971
    58   1 H    0.998 --    14 C    0.971
    59   1 H    0.998 --    15 C    0.965
    60   1 H    0.998 --    18 C    0.976
    61   1 H    0.995 --    18 C    0.979
    62   1 H    0.998 --    18 C    0.976
    63   1 H    0.999 --    23 C    0.959
    64   1 H    0.998 --    24 C    0.984
    65   1 H    0.999 --    24 C    0.984
    66   1 H    0.998 --    24 C    0.984
    67   1 H    0.999 --    25 C    0.987
    68   1 H    0.997 --    25 C    0.984
    69   1 H    0.997 --    25 C    0.984
    70   1 H    0.997 --    26 C    0.965
    71   1 H    0.998 --    27 C    0.971
    72   1 H    0.998 --    28 C    0.970
    73   1 H    0.999 --    29 C    0.967
    74   1 H    0.994 --    31 C    0.932
    75   1 H    0.885 --    33 O    0.827
    76   1 H    0.996 --    38 C    0.960
    77   1 H    0.998 --    39 C    0.970
    78   1 H    0.998 --    40 C    0.971
    79   1 H    0.998 --    41 C    0.965
    80   1 H    0.997 --    43 C    0.960
    81   1 H    0.999 --    44 C    0.985
    82   1 H    0.998 --    44 C    0.987
    83   1 H    0.998 --    44 C    0.985
    84   1 H    0.999 --    45 C    0.985
    85   1 H    0.998 --    45 C    0.985
    86   1 H    0.999 --    45 C    0.985
 ---------------------------------------------------------------------------

Topologies differ in total number of bonds
Writing topology from bond orders to xtbtopo.mol

molecular dipole:
                 x           y           z       tot (Debye)
 q only:       -0.351       0.787      -1.276
   full:       -0.498       0.843      -1.455       4.458
molecular quadrupole (traceless):
                xx          xy          yy          xz          yz          zz
 q only:      -10.534       9.802      23.801      -8.235      12.981     -13.267
  q+dip:      -15.168      13.574      30.938     -14.189      17.323     -15.770
   full:      -12.189      12.093      28.705      -9.272      15.332     -16.516

           -------------------------------------------------
          |                Geometry Summary                 |
           -------------------------------------------------

      molecular mass/u    :      620.7354301
   center of mass at/Å    :       -0.1365083       0.1040588       0.3351814
  moments of inertia/u·Å² :        0.5546384E+04   0.6828850E+04   0.9025948E+04
rotational constants/cm⁻¹ :        0.3039392E-02   0.2468590E-02   0.1867685E-02

 * 83 selected distances

     #   Z          #   Z                                           value/Å
     1   6 C        2   8 O                                       1.3621096
     2   8 O        3   6 C                                       1.4069071
     1   6 C        4   6 C                                       1.3900504
     4   6 C        5   6 C                                       1.3838949
     5   6 C        6   6 C                                       1.3813241
     6   6 C        7   6 C                                       1.3831146
     1   6 C        8   6 C                                       1.4020084
     7   6 C        8   6 C                                       1.3844221
     9   6 C       10   6 C                                       1.5432665 (max)
    11   6 C       12   6 C                                       1.3850900
    12   6 C       13   6 C                                       1.3845365
    13   6 C       14   6 C                                       1.3810500
    14   6 C       15   6 C                                       1.3839060
    11   6 C       16   6 C                                       1.4052534
    15   6 C       16   6 C                                       1.3905379
    16   6 C       17   8 O                                       1.3581799
    17   8 O       18   6 C                                       1.4067966
    10   6 C       19   7 N                                       1.4711917
    19   7 N       20   6 C                                       1.3693479
    21   6 C       22   6 C                                       1.3970159
    23   6 C       24   6 C                                       1.5270227
    23   6 C       25   6 C                                       1.5334860
    22   6 C       26   6 C                                       1.3889682
    26   6 C       27   6 C                                       1.3836767
    27   6 C       28   6 C                                       1.3830735
    21   6 C       29   6 C                                       1.3893441
    28   6 C       29   6 C                                       1.3828602
    20   6 C       30   8 O                                       1.2105283
    19   7 N       31   6 C                                       1.4485767
    32   6 C       33   8 O                                       1.3258534
    32   6 C       34   8 O                                       1.1945130
     9   6 C       35   7 N                                       1.4633370
    31   6 C       35   7 N                                       1.4386769
    35   7 N       36   6 C                                       1.3667502
    37   6 C       38   6 C                                       1.3914337
    38   6 C       39   6 C                                       1.3830313
    39   6 C       40   6 C                                       1.3838744
    40   6 C       41   6 C                                       1.3824968
    37   6 C       42   6 C                                       1.3998387
    41   6 C       42   6 C                                       1.3906141
    43   6 C       44   6 C                                       1.5302435
    43   6 C       45   6 C                                       1.5304608
    36   6 C       46   8 O                                       1.2119983
     3   6 C       47   1 H                                       1.0890363
     3   6 C       48   1 H                                       1.0950189
     3   6 C       49   1 H                                       1.0940127
     4   6 C       50   1 H                                       1.0783836
     5   6 C       51   1 H                                       1.0799656
     6   6 C       52   1 H                                       1.0792121
     7   6 C       53   1 H                                       1.0799489
     9   6 C       54   1 H                                       1.0965402
    10   6 C       55   1 H                                       1.0951062
    12   6 C       56   1 H                                       1.0794935
    13   6 C       57   1 H                                       1.0788357
    14   6 C       58   1 H                                       1.0797607
    15   6 C       59   1 H                                       1.0782298
    18   6 C       60   1 H                                       1.0949509
    18   6 C       61   1 H                                       1.0888829
    18   6 C       62   1 H                                       1.0939032
    23   6 C       63   1 H                                       1.0977003
    24   6 C       64   1 H                                       1.0868999
    24   6 C       65   1 H                                       1.0879869
    24   6 C       66   1 H                                       1.0870648
    25   6 C       67   1 H                                       1.0879583
    25   6 C       68   1 H                                       1.0877547
    25   6 C       69   1 H                                       1.0872285
    26   6 C       70   1 H                                       1.0779685
    27   6 C       71   1 H                                       1.0797402
    28   6 C       72   1 H                                       1.0789841
    29   6 C       73   1 H                                       1.0807884
    31   6 C       74   1 H                                       1.0980008
    33   8 O       75   1 H                                       0.9776957 (min)
    38   6 C       76   1 H                                       1.0785468
    39   6 C       77   1 H                                       1.0795796
    40   6 C       78   1 H                                       1.0804111
    41   6 C       79   1 H                                       1.0796078
    43   6 C       80   1 H                                       1.0914457
    44   6 C       81   1 H                                       1.0874166
    44   6 C       82   1 H                                       1.0869898
    44   6 C       83   1 H                                       1.0876787
    45   6 C       84   1 H                                       1.0885646
    45   6 C       85   1 H                                       1.0878749
    45   6 C       86   1 H                                       1.0878517

 * 5 distinct bonds (by element types)

   Z      Z             #   av. dist./Å        max./Å        min./Å
   1 H    6 C          39     1.0860339     1.0980008     1.0779685
   6 C    6 C          29     1.4129619     1.5432665     1.3810500
   6 C    7 N           6     1.4263134     1.4711917     1.3667502
   1 H    8 O           1     0.9776957     0.9776957     0.9776957
   6 C    8 O           8     1.3096108     1.4069071     1.1945130


optimized geometry written to: xtbopt.xyz


           -------------------------------------------------
          | TOTAL ENERGY             -132.071960426692 Eh   |
          | GRADIENT NORM               0.000425476358 Eh/α |
          | HOMO-LUMO GAP               3.242176814690 eV   |
           -------------------------------------------------

------------------------------------------------------------------------
 * finished run on 2022/03/17 at 00:47:46.492     
------------------------------------------------------------------------
 total:
 * wall-time:     0 d,  0 h,  0 min, 33.262 sec
 *  cpu-time:     0 d,  0 h, 11 min, 23.116 sec
 * ratio c/w:    20.537 speedup
 SCF:
 * wall-time:     0 d,  0 h,  0 min,  0.559 sec
 *  cpu-time:     0 d,  0 h,  0 min,  8.594 sec
 * ratio c/w:    15.375 speedup
 ANC optimizer:
 * wall-time:     0 d,  0 h,  0 min, 32.567 sec
 *  cpu-time:     0 d,  0 h, 11 min, 10.446 sec
 * ratio c/w:    20.587 speedup

