70
 energy: -151.228886738249 gnorm: 0.000701442780 xtb: 6.3.3 (4ae9cef)
C        -2.18206803819579   -0.12322657428944   -1.95958555868104
C        -1.45177962150601    1.10135891257589   -2.44770771672204
F        -1.86727759132875    1.50993003436210   -3.64812927067990
F        -1.61685770206380    2.15711405078526   -1.62197433286077
F        -0.12097593641474    0.93269823068029   -2.56372901648788
C        -3.28770497484462   -0.52856898631780   -2.70072605268290
C        -4.04055670302313   -1.61979524653079   -2.31208876734338
C        -3.69646440790433   -2.30953807656077   -1.16438254939563
C        -2.60752397830820   -1.89943297913180   -0.41863942918537
C        -1.82723153850118   -0.80839665129167   -0.79127933140874
C        -0.64163656549452   -0.50467475068498    0.10102720729214
C         0.70766680268999   -0.93711220559782   -0.52142050918785
C         1.28609660005857   -2.13416403764261    0.20156795258202
C         1.14699971480187   -3.45122246542163   -0.24001514145062
C         0.30311041238168   -3.90523837008473   -1.40371766107519
F         0.02460906208266   -3.00396597535631   -2.35456655984160
F        -0.90655811796059   -4.33053732021304   -0.95625606366909
F         0.84080137819631   -4.95253196105969   -2.04156618574909
C         1.73003197105175   -4.49372289350988    0.47942622507272
C         2.44745065813971   -4.24434430687722    1.63190579507414
C         2.55725956897566   -2.94484473739155    2.09567146455759
C         1.97731292786622   -1.90906427854902    1.38976057987376
N         1.56294420641546    0.23417733064285   -0.38630212244005
C         2.85524403178297    0.17074620699853   -0.79640287998231
C         3.61749290267865    1.45102816003069   -0.64115536847560
C         4.62172724011343    1.52868253258929    0.31874534514188
C         5.35027622124046    2.69683306347256    0.47853157662509
C         5.09074393264327    3.79117325518498   -0.32554407623370
C         4.10335024356435    3.69571597411962   -1.29771187426295
N         3.83112390927671    4.83565948228983   -2.14563656312072
O         4.50019800199347    5.83060010673319   -1.97459142599540
O         2.95049228659814    4.72408290426809   -2.96781640469168
C         3.36386769037200    2.53411036748752   -1.46842149896769
O         3.34839869510388   -0.85047004053752   -1.21884754334307
C         0.87274604568327    1.39116429580150    0.12061837617553
C         1.55750633608318    1.96563154473560    1.38531988546055
O         1.91264250290812    3.22880030336741    1.21950872843117
O         1.83300444584677    1.29108232294804    2.34094177271809
N        -0.44270352287589    0.88800436300101    0.46469288425058
C        -1.12301256509087    1.53278654345903    1.44475807929986
C        -2.42694577379402    0.90071853545206    1.81185880544742
C        -3.49437965946397    0.93285117616624    0.92893908188604
C        -4.67206083114443    0.28580598707459    1.27517137859586
N        -5.75641251031173    0.25122950594705    0.32094886031560
O        -5.54897861428179    0.72028420560904   -0.77690838517841
O        -6.79294298443337   -0.26777855472929    0.66844687349921
C        -4.81268306808172   -0.36085318506069    2.49641911242329
C        -3.75384558740007   -0.35198030002895    3.38616824680517
C        -2.56300721424119    0.27075025676001    3.04541629863351
O        -0.67998395349791    2.53669843574407    1.96322573154494
H        -3.56125557305621    0.01821223866316   -3.58861246662757
H        -4.89324196161626   -1.91839729788291   -2.89972295740736
H        -4.27162294531663   -3.16372607823768   -0.84342295252108
H        -2.35088962025553   -2.44283395879988    0.47876457041345
H        -0.79407536998596   -1.07614361040090    1.02851093699705
H         0.60757465877054   -1.14888638117073   -1.58749433566791
H         1.61898152823785   -5.50598039932037    0.12184162506651
H         2.90625683553865   -5.06073798168776    2.16687188169161
H         3.09516428308702   -2.73410448269934    3.00713441511812
H         2.06358313960384   -0.90033796670003    1.76599871988831
H         4.82280914526193    0.66915695105399    0.94002083595268
H         6.12215787989379    2.75140927433000    1.23029041841106
H         5.63979479247992    4.71451091606291   -0.22158303510764
H         2.61699781712619    2.48816887802606   -2.24698135094541
H         0.79631234727021    2.20611894532710   -0.61447682218575
H         2.26146838112853    3.60483207082211    2.04360639773923
H        -3.43319642057738    1.45944820687928   -0.01008719949404
H        -5.74394872622215   -0.85466939775917    2.72798276109329
H        -3.85213620421567   -0.83727246468046    4.34465991061419
H        -1.73024031555144    0.27297834673885    3.73275167435148
