      -----------------------------------------------------------      
     |                   =====================                   |     
     |                           x T B                           |     
     |                   =====================                   |     
     |                         S. Grimme                         |     
     |          Mulliken Center for Theoretical Chemistry        |     
     |                    University of Bonn                     |     
      -----------------------------------------------------------      

   * xtb version 6.3.3 (4ae9cef) compiled by 'conda@95abc7406d43' on 2020-10-14

   xtb is free software: you can redistribute it and/or modify it under
   the terms of the GNU Lesser General Public License as published by
   the Free Software Foundation, either version 3 of the License, or
   (at your option) any later version.
   
   xtb is distributed in the hope that it will be useful,
   but WITHOUT ANY WARRANTY; without even the implied warranty of
   MERCHANTABILITY or FITNESS FOR A PARTICULAR PURPOSE.  See the
   GNU Lesser General Public License for more details.
   
   Cite this work as:
   * C. Bannwarth, E. Caldeweyher, S. Ehlert, A. Hansen, P. Pracht,
     J. Seibert, S. Spicher, S. Grimme, WIREs Comput. Mol. Sci., 2020,
     e01493. DOI: 10.1002/wcms.1493
   
   for GFN2-xTB:
   * S. Grimme, C. Bannwarth, P. Shushkov, J. Chem. Theory Comput., 2017,
     13, 1989-2009. DOI: 10.1021/acs.jctc.7b00118
   for GFN1-xTB:
   * C. Bannwarth, S. Ehlert and S. Grimme., J. Chem. Theory Comput., 2019,
     15, 1652-1671. DOI: 10.1021/acs.jctc.8b01176
   for GFN0-xTB:
   * P. Pracht, E. Caldeweyher, S. Ehlert, S. Grimme, ChemRxiv, 2019, preprint.
     DOI: 10.26434/chemrxiv.8326202.v1
   for GFN-FF:
   * S. Spicher and S. Grimme, Angew. Chem. Int. Ed., 2020, 59, 15665-15673.
     DOI: 10.1002/anie.202004239
   
   for DFT-D4:
   * E. Caldeweyher, C. Bannwarth and S. Grimme, J. Chem. Phys., 2017,
     147, 034112. DOI: 10.1063/1.4993215
   * E. Caldeweyher, S. Ehlert, A. Hansen, H. Neugebauer, S. Spicher,
     C. Bannwarth and S. Grimme, J. Chem. Phys., 2019, 150, 154122.
     DOI: 10.1063/1.5090222
   * E. Caldeweyher, J.-M. Mewes, S. Ehlert and S. Grimme, Phys. Chem. Chem. Phys.
     2020, 22, 8499-8512. DOI: 10.1039/D0CP00502A
   
   for sTDA-xTB:
   * S. Grimme and C. Bannwarth, J. Chem. Phys., 2016, 145, 054103.
     DOI: 10.1063/1.4959605
   
   in the mass-spec context:
   * V. Asgeirsson, C. Bauer and S. Grimme, Chem. Sci., 2017, 8, 4879.
     DOI: 10.1039/c7sc00601b
   * J. Koopman and S. Grimme, ACS Omega 2019, 4, 12, 15120-15133.
     DOI: 10.1021/acsomega.9b02011
   
   for metadynamics refer to:
   * S. Grimme, J. Chem. Theory Comput., 2019, 155, 2847-2862
     DOI: 10.1021/acs.jctc.9b00143
   
   with help from (in alphabetical order)
   C. Bannwarth, F. Bohle, G. Brandenburg, E. Caldeweyher, M. Checinski,
   S. Dohm, S. Ehlert, S. Ehrlich, F. März, H. Neugebauer, J. Pisarek,
   P. Pracht, P. Shushkov, and S. Spicher.
   
 * started run on 2022/03/16 at 21:45:19.243     

           -------------------------------------------------
          |                Calculation Setup                |
           -------------------------------------------------

          program call               : xtb acid_137.xyz --opt --chrg 0 --uhf 0 --gfn 2
          coordinate file            : acid_137.xyz
          omp threads                :                    64
          number of atoms            :                    78
          number of electrons        :                   262
          charge                     :                     0
          spin                       :                   0.0
          first test random number   :      0.07445368001439

   ID    Z sym.   atoms
    1    6 C      1-22, 24-30, 34, 36, 37, 41-45, 49-51
    2    7 N      23, 40
    3    9 F      31-33, 46-48
    4    8 O      35, 38, 39, 52
    5    1 H      53-78

           -------------------------------------------------
          |                 G F N 2 - x T B                 |
           -------------------------------------------------

        Reference                      10.1021/acs.jctc.8b01176
      * Hamiltonian:
        H0-scaling (s, p, d)           1.850000    2.230000    2.230000
        zeta-weighting                 0.500000
      * Dispersion:
        s8                             2.700000
        a1                             0.520000
        a2                             5.000000
        s9                             5.000000
      * Repulsion:
        kExp                           1.500000    1.000000
        rExp                           1.000000
      * Coulomb:
        alpha                          2.000000
        third order                    shell-resolved
        anisotropic                    true
        a3                             3.000000
        a5                             4.000000
        cn-shift                       1.200000
        cn-exp                         4.000000
        max-rad                        5.000000


          ...................................................
          :                      SETUP                      :
          :.................................................:
          :  # basis functions                 234          :
          :  # atomic orbitals                 234          :
          :  # shells                          130          :
          :  # electrons                       262          :
          :  max. iterations                   250          :
          :  Hamiltonian                  GFN2-xTB          :
          :  restarted?                      false          :
          :  GBSA solvation                  false          :
          :  PC potential                    false          :
          :  electronic temp.          300.0000000     K    :
          :  accuracy                    1.0000000          :
          :  -> integral cutoff          0.2500000E+02      :
          :  -> integral neglect         0.1000000E-07      :
          :  -> SCF convergence          0.1000000E-05 Eh   :
          :  -> wf. convergence          0.1000000E-03 e    :
          :  Broyden damping             0.4000000          :
          ...................................................

 iter      E             dE          RMSdq      gap      omega  full diag
   1   -151.0697173 -0.151070E+03  0.471E+00    2.21       0.0  T
   2   -151.2838241 -0.214107E+00  0.267E+00    2.15       1.0  T
   3   -151.2822540  0.157008E-02  0.128E+00    2.00       1.0  T
   4   -151.3043572 -0.221033E-01  0.256E-01    1.62       1.0  T
   5   -151.3085046 -0.414731E-02  0.988E-02    1.69       1.0  T
   6   -151.3088723 -0.367719E-03  0.514E-02    1.69       1.0  T
   7   -151.3089897 -0.117386E-03  0.207E-02    1.70       1.0  T
   8   -151.3089930 -0.333799E-05  0.113E-02    1.71       1.0  T
   9   -151.3089999 -0.692085E-05  0.372E-03    1.71       3.0  T
  10   -151.3090002 -0.274211E-06  0.179E-03    1.71       6.3  T
  11   -151.3090003 -0.112967E-06  0.773E-04    1.71      14.6  T
  12   -151.3090003 -0.227849E-07  0.311E-04    1.71      36.4  T

   *** convergence criteria satisfied after 12 iterations ***

         #    Occupation            Energy/Eh            Energy/eV
      -------------------------------------------------------------
         1        2.0000           -0.8774320             -23.8761
       ...           ...                  ...                  ...
       125        2.0000           -0.4205987             -11.4451
       126        2.0000           -0.4155484             -11.3076
       127        2.0000           -0.4130402             -11.2394
       128        2.0000           -0.4082887             -11.1101
       129        2.0000           -0.4009192             -10.9096
       130        2.0000           -0.3933360             -10.7032
       131        2.0000           -0.3832160             -10.4278 (HOMO)
       132                         -0.3205442              -8.7225 (LUMO)
       133                         -0.2870060              -7.8098
       134                         -0.2862828              -7.7902
       135                         -0.2822659              -7.6808
       136                         -0.2799669              -7.6183
       ...                                ...                  ...
       234                          0.6778618              18.4456
      -------------------------------------------------------------
                  HL-Gap            0.0626718 Eh            1.7054 eV
             Fermi-level           -0.3518801 Eh           -9.5751 eV

 SCC (total)                   0 d,  0 h,  0 min,  0.659 sec
 SCC setup                      ...        0 min,  0.022 sec (  3.337%)
 Dispersion                     ...        0 min,  0.015 sec (  2.350%)
 classical contributions        ...        0 min,  0.015 sec (  2.252%)
 integral evaluation            ...        0 min,  0.103 sec ( 15.687%)
 iterations                     ...        0 min,  0.355 sec ( 53.859%)
 molecular gradient             ...        0 min,  0.140 sec ( 21.281%)
 printout                       ...        0 min,  0.008 sec (  1.219%)

         :::::::::::::::::::::::::::::::::::::::::::::::::::::
         ::                     SUMMARY                     ::
         :::::::::::::::::::::::::::::::::::::::::::::::::::::
         :: total energy            -149.451197489519 Eh    ::
         :: gradient norm              0.147894461859 Eh/a0 ::
         :: HOMO-LUMO gap              1.705385283479 eV    ::
         ::.................................................::
         :: SCC energy              -151.309000333133 Eh    ::
         :: -> isotropic ES            0.201542628366 Eh    ::
         :: -> anisotropic ES          0.002135002369 Eh    ::
         :: -> anisotropic XC          0.022230416198 Eh    ::
         :: -> dispersion             -0.105346868763 Eh    ::
         :: repulsion energy           1.855412216384 Eh    ::
         :: add. restraining           0.000000000000 Eh    ::
         :: total charge              -0.000000000000 e     ::
         :::::::::::::::::::::::::::::::::::::::::::::::::::::

      ----------------------------------------------------------- 
     |                   =====================                   |
     |                        A N C O P T                        |
     |                   =====================                   |
     |               Approximate Normal Coordinate               |
     |                Rational Function Optimizer                |
      ----------------------------------------------------------- 

          ...................................................
          :                      SETUP                      :
          :.................................................:
          :   optimization level            normal          :
          :   max. optcycles                   234          :
          :   ANC micro-cycles                  20          :
          :   degrees of freedom               228          :
          :.................................................:
          :   RF solver                   davidson          :
          :   write xtbopt.log                true          :
          :   linear?                        false          :
          :   energy convergence         0.5000000E-05 Eh   :
          :   grad. convergence          0.1000000E-02 Eh/α :
          :   maximium RF displ.         1.0000000          :
          :   Hlow (freq-cutoff)         0.1000000E-01      :
          :   Hmax (freq-cutoff)         5.0000000          :
          :   S6 in model hess.         20.0000000          :
          ...................................................

generating ANC from model Hessian ...
Using Lindh-Hessian (1995)
 Shifting diagonal of input Hessian by    9.8911038918854961E-003
 Lowest  eigenvalues of input Hessian
    0.000000    0.000000    0.000000    0.000000    0.000000    0.000000
    0.010000    0.010040    0.010077    0.010099    0.010214    0.010417
    0.010505    0.010569    0.010688    0.010866    0.011063    0.011962
 Highest eigenvalues
    2.003108    2.078427    2.079221    2.196052    2.216145    2.234071


........................................................................
.............................. CYCLE    1 ..............................
........................................................................
   1   -151.3090003 -0.151309E+03  0.166E-04    1.71       0.0  T
   2   -151.3090003 -0.421494E-10  0.134E-04    1.71      84.7  T
   3   -151.3090003 -0.891760E-09  0.717E-05    1.71     157.9  T
     SCC iter.                  ...        0 min,  0.092 sec
     gradient                   ...        0 min,  0.131 sec
 * total energy  :  -149.4511975 Eh     change       -0.3023132E-08 Eh
   gradient norm :     0.1478981 Eh/α   predicted     0.0000000E+00 (-100.00%)
   displ. norm   :     0.3258216 α      lambda       -0.2426837E-01
   maximum displ.:     0.0972465 α      in ANC's #58, #78, #26, ...

........................................................................
.............................. CYCLE    2 ..............................
........................................................................
   1   -151.4042392 -0.151404E+03  0.153E-01    1.85       0.0  T
   2   -151.4044399 -0.200697E-03  0.956E-02    1.83       1.0  T
   3   -151.4044173  0.225243E-04  0.438E-02    1.81       1.0  T
   4   -151.4044785 -0.611607E-04  0.105E-02    1.81       1.1  T
   5   -151.4044864 -0.793593E-05  0.350E-03    1.81       3.2  T
   6   -151.4044869 -0.515175E-06  0.164E-03    1.81       6.9  T
   7   -151.4044870 -0.244698E-07  0.756E-04    1.81      15.0  T
   8   -151.4044870 -0.205123E-07  0.295E-04    1.81      38.4  T
     SCC iter.                  ...        0 min,  0.240 sec
     gradient                   ...        0 min,  0.146 sec
 * total energy  :  -149.4682153 Eh     change       -0.1701784E-01 Eh
   gradient norm :     0.0615510 Eh/α   predicted    -0.1342235E-01 ( -21.13%)
   displ. norm   :     0.3499103 α      lambda       -0.8298195E-02
   maximum displ.:     0.1123777 α      in ANC's #16, #26, #20, ...

........................................................................
.............................. CYCLE    3 ..............................
........................................................................
   1   -151.4553913 -0.151455E+03  0.109E-01    1.89       0.0  T
   2   -151.4554781 -0.868041E-04  0.672E-02    1.88       1.0  T
   3   -151.4554625  0.155448E-04  0.301E-02    1.87       1.0  T
   4   -151.4554959 -0.333652E-04  0.708E-03    1.86       1.6  T
   5   -151.4554996 -0.374008E-05  0.229E-03    1.87       5.0  T
   6   -151.4554998 -0.161699E-06  0.114E-03    1.87       9.9  T
   7   -151.4554998 -0.171015E-07  0.521E-04    1.87      21.7  T
   8   -151.4554998 -0.836377E-08  0.217E-04    1.87      52.2  T
     SCC iter.                  ...        0 min,  0.238 sec
     gradient                   ...        0 min,  0.148 sec
 * total energy  :  -149.4732239 Eh     change       -0.5008558E-02 Eh
   gradient norm :     0.0149675 Eh/α   predicted    -0.4657102E-02 (  -7.02%)
   displ. norm   :     0.3118916 α      lambda       -0.1785201E-02
   maximum displ.:     0.1231457 α      in ANC's #16, #20, #11, ...

........................................................................
.............................. CYCLE    4 ..............................
........................................................................
   1   -151.4615199 -0.151462E+03  0.636E-02    1.86       0.0  T
   2   -151.4615353 -0.154116E-04  0.373E-02    1.86       1.0  T
   3   -151.4615274  0.790274E-05  0.149E-02    1.85       1.0  T
   4   -151.4615384 -0.110552E-04  0.348E-03    1.85       3.3  T
   5   -151.4615394 -0.916583E-06  0.112E-03    1.85      10.1  T
   6   -151.4615394 -0.604112E-08  0.656E-04    1.85      17.3  T
   7   -151.4615394 -0.141949E-07  0.226E-04    1.85      50.0  T
     SCC iter.                  ...        0 min,  0.214 sec
     gradient                   ...        0 min,  0.164 sec
 * total energy  :  -149.4745822 Eh     change       -0.1358259E-02 Eh
   gradient norm :     0.0116910 Eh/α   predicted    -0.9794424E-03 ( -27.89%)
   displ. norm   :     0.4454222 α      lambda       -0.1540798E-02
   maximum displ.:     0.1831976 α      in ANC's #16, #11, #20, ...

........................................................................
.............................. CYCLE    5 ..............................
........................................................................
   1   -151.4623984 -0.151462E+03  0.828E-02    1.83       0.0  T
   2   -151.4624180 -0.196474E-04  0.483E-02    1.83       1.0  T
   3   -151.4624066  0.114348E-04  0.172E-02    1.83       1.0  T
   4   -151.4624218 -0.152238E-04  0.381E-03    1.83       3.0  T
   5   -151.4624228 -0.102737E-05  0.127E-03    1.83       8.9  T
   6   -151.4624228 -0.383207E-08  0.734E-04    1.83      15.4  T
   7   -151.4624228 -0.163792E-07  0.276E-04    1.83      41.1  T
     SCC iter.                  ...        0 min,  0.209 sec
     gradient                   ...        0 min,  0.128 sec
 * total energy  :  -149.4756650 Eh     change       -0.1082857E-02 Eh
   gradient norm :     0.0096961 Eh/α   predicted    -0.9232728E-03 ( -14.74%)
   displ. norm   :     0.4012525 α      lambda       -0.8075994E-03
   maximum displ.:     0.1773906 α      in ANC's #11, #16, #13, ...

........................................................................
.............................. CYCLE    6 ..............................
........................................................................
   1   -151.4631809 -0.151463E+03  0.734E-02    1.81       0.0  T
   2   -151.4631921 -0.111683E-04  0.429E-02    1.82       1.0  T
   3   -151.4631859  0.612463E-05  0.121E-02    1.82       1.0  T
   4   -151.4631938 -0.784052E-05  0.290E-03    1.82       3.9  T
   5   -151.4631943 -0.573105E-06  0.103E-03    1.82      10.9  T
   6   -151.4631944 -0.719498E-08  0.582E-04    1.82      19.4  T
   7   -151.4631944 -0.756134E-08  0.249E-04    1.82      45.4  T
     SCC iter.                  ...        0 min,  0.215 sec
     gradient                   ...        0 min,  0.145 sec
 * total energy  :  -149.4762752 Eh     change       -0.6102147E-03 Eh
   gradient norm :     0.0087729 Eh/α   predicted    -0.4688160E-03 ( -23.17%)
   displ. norm   :     0.4620988 α      lambda       -0.7485656E-03
   maximum displ.:     0.2251119 α      in ANC's #11, #16, #9, ...

........................................................................
.............................. CYCLE    7 ..............................
........................................................................
   1   -151.4642626 -0.151464E+03  0.890E-02    1.81       0.0  T
   2   -151.4642732 -0.106011E-04  0.521E-02    1.82       1.0  T
   3   -151.4642661  0.709813E-05  0.116E-02    1.82       1.0  T
   4   -151.4642750 -0.884986E-05  0.276E-03    1.82       4.1  T
   5   -151.4642755 -0.515155E-06  0.108E-03    1.82      10.5  T
   6   -151.4642755 -0.153820E-07  0.545E-04    1.82      20.8  T
   7   -151.4642755 -0.433872E-08  0.226E-04    1.82      50.2  T
     SCC iter.                  ...        0 min,  0.207 sec
     gradient                   ...        0 min,  0.132 sec
 * total energy  :  -149.4768723 Eh     change       -0.5970671E-03 Eh
   gradient norm :     0.0083850 Eh/α   predicted    -0.4542217E-03 ( -23.92%)
   displ. norm   :     0.5343502 α      lambda       -0.8021220E-03
   maximum displ.:     0.2596492 α      in ANC's #11, #10, #9, ...

........................................................................
.............................. CYCLE    8 ..............................
........................................................................
   1   -151.4655765 -0.151466E+03  0.107E-01    1.82       0.0  T
   2   -151.4655898 -0.133135E-04  0.629E-02    1.83       1.0  T
   3   -151.4655857  0.416901E-05  0.974E-03    1.84       1.2  T
   4   -151.4655912 -0.549481E-05  0.308E-03    1.84       3.7  T
   5   -151.4655918 -0.660505E-06  0.116E-03    1.84       9.7  T
   6   -151.4655918 -0.187899E-07  0.596E-04    1.84      19.0  T
   7   -151.4655918 -0.599968E-08  0.232E-04    1.84      48.7  T
     SCC iter.                  ...        0 min,  0.210 sec
     gradient                   ...        0 min,  0.137 sec
 * total energy  :  -149.4775283 Eh     change       -0.6559934E-03 Eh
   gradient norm :     0.0086594 Eh/α   predicted    -0.5155761E-03 ( -21.41%)
   displ. norm   :     0.5998201 α      lambda       -0.8455863E-03
   maximum displ.:     0.2895882 α      in ANC's #11, #10, #8, ...

........................................................................
.............................. CYCLE    9 ..............................
........................................................................
   1   -151.4660129 -0.151466E+03  0.125E-01    1.84       0.0  T
   2   -151.4660301 -0.171882E-04  0.733E-02    1.86       1.0  T
   3   -151.4660229  0.727352E-05  0.114E-02    1.88       1.0  T
   4   -151.4660318 -0.895767E-05  0.367E-03    1.87       3.1  T
   5   -151.4660329 -0.104043E-05  0.132E-03    1.87       8.6  T
   6   -151.4660329 -0.227761E-07  0.749E-04    1.87      15.1  T
   7   -151.4660329 -0.139992E-07  0.329E-04    1.87      34.5  T
     SCC iter.                  ...        0 min,  0.204 sec
     gradient                   ...        0 min,  0.127 sec
 * total energy  :  -149.4782321 Eh     change       -0.7038075E-03 Eh
   gradient norm :     0.0098503 Eh/α   predicted    -0.5749196E-03 ( -18.31%)
   displ. norm   :     0.6254739 α      lambda       -0.8818712E-03
   maximum displ.:     0.2867602 α      in ANC's #11, #10, #8, ...

........................................................................
.............................. CYCLE   10 ..............................
........................................................................
   1   -151.4674223 -0.151467E+03  0.132E-01    1.89       0.0  T
   2   -151.4674406 -0.182509E-04  0.773E-02    1.91       1.0  T
   3   -151.4674333  0.727410E-05  0.112E-02    1.92       1.0  T
   4   -151.4674418 -0.848220E-05  0.414E-03    1.92       2.7  T
   5   -151.4674433 -0.146176E-05  0.132E-03    1.92       8.6  T
   6   -151.4674433 -0.132954E-07  0.757E-04    1.91      15.0  T
   7   -151.4674433 -0.166875E-07  0.312E-04    1.91      36.3  T
     SCC iter.                  ...        0 min,  0.208 sec
     gradient                   ...        0 min,  0.133 sec
 * total energy  :  -149.4789725 Eh     change       -0.7404314E-03 Eh
   gradient norm :     0.0110749 Eh/α   predicted    -0.6134431E-03 ( -17.15%)
   displ. norm   :     0.6647320 α      lambda       -0.9349036E-03
   maximum displ.:     0.2829177 α      in ANC's #11, #10, #8, ...

........................................................................
.............................. CYCLE   11 ..............................
........................................................................
   1   -151.4669992 -0.151467E+03  0.143E-01    1.93       0.0  T
   2   -151.4670236 -0.244274E-04  0.834E-02    1.95       1.0  T
   3   -151.4670047  0.189393E-04  0.165E-02    1.96       1.0  T
   4   -151.4670266 -0.218893E-04  0.467E-03    1.95       2.4  T
   5   -151.4670285 -0.191999E-05  0.156E-03    1.95       7.3  T
   6   -151.4670285 -0.409157E-07  0.914E-04    1.95      12.4  T
   7   -151.4670286 -0.169327E-07  0.383E-04    1.95      29.5  T
     SCC iter.                  ...        0 min,  0.208 sec
     gradient                   ...        0 min,  0.154 sec
 * total energy  :  -149.4797738 Eh     change       -0.8012358E-03 Eh
   gradient norm :     0.0122197 Eh/α   predicted    -0.6740150E-03 ( -15.88%)
   displ. norm   :     0.6789583 α      lambda       -0.1058228E-02
   maximum displ.:     0.2548377 α      in ANC's #8, #10, #11, ...

........................................................................
.............................. CYCLE   12 ..............................
........................................................................
   1   -151.4698810 -0.151470E+03  0.145E-01    1.99       0.0  T
   2   -151.4698988 -0.177700E-04  0.849E-02    2.00       1.0  T
   3   -151.4698821  0.166600E-04  0.153E-02    2.00       1.0  T
   4   -151.4699014 -0.193323E-04  0.421E-03    2.00       2.7  T
   5   -151.4699029 -0.146311E-05  0.153E-03    2.00       7.4  T
   6   -151.4699029 -0.815660E-08  0.848E-04    2.00      13.4  T
   7   -151.4699029 -0.242614E-07  0.314E-04    2.00      36.0  T
     SCC iter.                  ...        0 min,  0.216 sec
     gradient                   ...        0 min,  0.120 sec
 * total energy  :  -149.4806212 Eh     change       -0.8474214E-03 Eh
   gradient norm :     0.0115143 Eh/α   predicted    -0.7730297E-03 (  -8.78%)
   displ. norm   :     0.7409703 α      lambda       -0.1068026E-02
   maximum displ.:     0.2768935 α      in ANC's #8, #10, #11, ...

........................................................................
.............................. CYCLE   13 ..............................
........................................................................
   1   -151.4635540 -0.151464E+03  0.163E-01    2.00       0.0  T
   2   -151.4636287 -0.746937E-04  0.955E-02    2.01       1.0  T
   3   -151.4635881  0.406547E-04  0.277E-02    2.02       1.0  T
   4   -151.4636353 -0.472299E-04  0.810E-03    2.02       1.4  T
   5   -151.4636418 -0.648261E-05  0.210E-03    2.02       5.4  T
   6   -151.4636419 -0.844412E-07  0.121E-03    2.02       9.4  T
   7   -151.4636419 -0.262170E-07  0.522E-04    2.02      21.7  T
   8   -151.4636419 -0.807020E-08  0.237E-04    2.02      47.9  T
     SCC iter.                  ...        0 min,  0.239 sec
     gradient                   ...        0 min,  0.153 sec
 * total energy  :  -149.4814318 Eh     change       -0.8106426E-03 Eh
   gradient norm :     0.0177304 Eh/α   predicted    -0.8272241E-03 (   2.05%)
   displ. norm   :     0.5725128 α      lambda       -0.1139480E-02
   maximum displ.:     0.2240635 α      in ANC's #3, #8, #1, ...

........................................................................
.............................. CYCLE   14 ..............................
........................................................................
   1   -151.4703470 -0.151470E+03  0.122E-01    2.10       0.0  T
   2   -151.4703778 -0.308385E-04  0.720E-02    2.08       1.0  T
   3   -151.4703511  0.267034E-04  0.213E-02    2.08       1.0  T
   4   -151.4703839 -0.327931E-04  0.437E-03    2.08       2.6  T
   5   -151.4703851 -0.122152E-05  0.201E-03    2.08       5.6  T
   6   -151.4703852 -0.128752E-06  0.110E-03    2.08      10.3  T
   7   -151.4703852 -0.173686E-07  0.549E-04    2.08      20.6  T
   8   -151.4703853 -0.876656E-08  0.192E-04    2.08      59.1  T
     SCC iter.                  ...        0 min,  0.247 sec
     gradient                   ...        0 min,  0.150 sec
 * total energy  :  -149.4819973 Eh     change       -0.5654315E-03 Eh
   gradient norm :     0.0231669 Eh/α   predicted    -0.7564940E-03 (  33.79%)
   displ. norm   :     0.5910676 α      lambda       -0.1301025E-02
   maximum displ.:     0.2360918 α      in ANC's #8, #3, #10, ...

........................................................................
.............................. CYCLE   15 ..............................
........................................................................
   1   -151.4670846 -0.151467E+03  0.132E-01    2.06       0.0  T
   2   -151.4672614 -0.176851E-03  0.787E-02    2.10       1.0  T
   3   -151.4672507  0.107868E-04  0.338E-02    2.11       1.0  T
   4   -151.4672670 -0.162953E-04  0.116E-02    2.11       1.0  T
   5   -151.4672803 -0.133423E-04  0.225E-03    2.11       5.0  T
   6   -151.4672804 -0.149384E-06  0.129E-03    2.11       8.7  T
   7   -151.4672805 -0.488621E-07  0.617E-04    2.11      18.3  T
   8   -151.4672805 -0.580832E-08  0.294E-04    2.11      38.5  T
     SCC iter.                  ...        0 min,  0.239 sec
     gradient                   ...        0 min,  0.157 sec
 * total energy  :  -149.4827912 Eh     change       -0.7939730E-03 Eh
   gradient norm :     0.0198757 Eh/α   predicted    -0.8777811E-03 (  10.56%)
   displ. norm   :     0.5448939 α      lambda       -0.8059437E-03
   maximum displ.:     0.2248855 α      in ANC's #3, #8, #10, ...

........................................................................
.............................. CYCLE   16 ..............................
........................................................................
   1   -151.4630366 -0.151463E+03  0.106E-01    2.14       0.0  T
   2   -151.4630645 -0.278593E-04  0.621E-02    2.15       1.0  T
   3   -151.4630453  0.191196E-04  0.183E-02    2.16       1.0  T
   4   -151.4630675 -0.221702E-04  0.522E-03    2.16       2.2  T
   5   -151.4630701 -0.261945E-05  0.143E-03    2.16       7.9  T
   6   -151.4630702 -0.334582E-07  0.835E-04    2.16      13.6  T
   7   -151.4630702 -0.143906E-07  0.343E-04    2.16      33.0  T
     SCC iter.                  ...        0 min,  0.215 sec
     gradient                   ...        0 min,  0.121 sec
 * total energy  :  -149.4834484 Eh     change       -0.6572163E-03 Eh
   gradient norm :     0.0181841 Eh/α   predicted    -0.5226356E-03 ( -20.48%)
   displ. norm   :     0.5068864 α      lambda       -0.1434218E-02
   maximum displ.:     0.2604214 α      in ANC's #3, #1, #8, ...

........................................................................
.............................. CYCLE   17 ..............................
........................................................................
   1   -151.4819453 -0.151482E+03  0.107E-01    2.23       0.0  T
   2   -151.4819963 -0.510295E-04  0.634E-02    2.24       1.0  T
   3   -151.4819700  0.263166E-04  0.266E-02    2.25       1.0  T
   4   -151.4820061 -0.361129E-04  0.661E-03    2.24       1.7  T
   5   -151.4820101 -0.401856E-05  0.196E-03    2.24       5.8  T
   6   -151.4820102 -0.100921E-06  0.111E-03    2.24      10.2  T
   7   -151.4820103 -0.149912E-07  0.417E-04    2.24      27.2  T
   8   -151.4820103 -0.467094E-08  0.188E-04    2.24      60.4  T
     SCC iter.                  ...        0 min,  0.233 sec
     gradient                   ...        0 min,  0.162 sec
 * total energy  :  -149.4842444 Eh     change       -0.7959219E-03 Eh
   gradient norm :     0.0134952 Eh/α   predicted    -0.9013606E-03 (  13.25%)
   displ. norm   :     0.7230652 α      lambda       -0.1141299E-02
   maximum displ.:     0.3311282 α      in ANC's #3, #8, #1, ...

........................................................................
.............................. CYCLE   18 ..............................
........................................................................
   1   -151.4758574 -0.151476E+03  0.151E-01    2.27       0.0  T
   2   -151.4759443 -0.868946E-04  0.900E-02    2.29       1.0  T
   3   -151.4758900  0.542899E-04  0.328E-02    2.29       1.0  T
   4   -151.4759562 -0.662116E-04  0.943E-03    2.29       1.2  T
   5   -151.4759651 -0.890047E-05  0.248E-03    2.29       4.6  T
   6   -151.4759652 -0.842285E-07  0.148E-03    2.29       7.6  T
   7   -151.4759652 -0.349721E-07  0.573E-04    2.29      19.8  T
   8   -151.4759652 -0.112238E-07  0.239E-04    2.29      47.3  T
     SCC iter.                  ...        0 min,  0.246 sec
     gradient                   ...        0 min,  0.134 sec
 * total energy  :  -149.4851605 Eh     change       -0.9161720E-03 Eh
   gradient norm :     0.0198449 Eh/α   predicted    -0.8690150E-03 (  -5.15%)
   displ. norm   :     0.6196530 α      lambda       -0.1128458E-02
   maximum displ.:     0.3092293 α      in ANC's #3, #1, #8, ...

........................................................................
.............................. CYCLE   19 ..............................
........................................................................
   1   -151.4693805 -0.151469E+03  0.127E-01    2.36       0.0  T
   2   -151.4694067 -0.262499E-04  0.746E-02    2.36       1.0  T
   3   -151.4693786  0.281119E-04  0.217E-02    2.36       1.0  T
   4   -151.4694129 -0.342982E-04  0.494E-03    2.36       2.3  T
   5   -151.4694146 -0.172073E-05  0.223E-03    2.36       5.1  T
   6   -151.4694147 -0.114634E-06  0.118E-03    2.36       9.6  T
   7   -151.4694148 -0.246448E-07  0.484E-04    2.36      23.4  T
   8   -151.4694148 -0.636396E-08  0.203E-04    2.36      55.8  T
     SCC iter.                  ...        0 min,  0.235 sec
     gradient                   ...        0 min,  0.132 sec
 * total energy  :  -149.4859153 Eh     change       -0.7547295E-03 Eh
   gradient norm :     0.0209825 Eh/α   predicted    -0.7808823E-03 (   3.47%)
   displ. norm   :     0.5873188 α      lambda       -0.1081257E-02
   maximum displ.:     0.3099546 α      in ANC's #3, #1, #8, ...

........................................................................
.............................. CYCLE   20 ..............................
........................................................................
   1   -151.4705721 -0.151471E+03  0.119E-01    2.38       0.0  T
   2   -151.4706355 -0.633590E-04  0.716E-02    2.40       1.0  T
   3   -151.4706010  0.344657E-04  0.279E-02    2.40       1.0  T
   4   -151.4706440 -0.429499E-04  0.806E-03    2.40       1.4  T
   5   -151.4706506 -0.661250E-05  0.194E-03    2.40       5.8  T
   6   -151.4706507 -0.679910E-07  0.112E-03    2.40      10.1  T
   7   -151.4706507 -0.253493E-07  0.478E-04    2.40      23.7  T
   8   -151.4706507 -0.505864E-08  0.223E-04    2.40      50.8  T
     SCC iter.                  ...        0 min,  0.239 sec
     gradient                   ...        0 min,  0.162 sec
 * total energy  :  -149.4867721 Eh     change       -0.8567971E-03 Eh
   gradient norm :     0.0229620 Eh/α   predicted    -0.7271153E-03 ( -15.14%)
   displ. norm   :     0.5393646 α      lambda       -0.1644968E-02
   maximum displ.:     0.2753308 α      in ANC's #3, #1, #11, ...
 * RMSD in coord.:     0.9843414 α      energy gain  -0.3557457E-01 Eh

generating ANC from model Hessian ...
Using Lindh-Hessian (1995)
 Shifting diagonal of input Hessian by    9.9018266271380904E-003
 Lowest  eigenvalues of input Hessian
    0.000000    0.000000    0.000000    0.000000    0.000000    0.000000
    0.010000    0.010091    0.010137    0.010166    0.010197    0.010430
    0.010548    0.010615    0.010771    0.010964    0.011316    0.011898
 Highest eigenvalues
    2.051576    2.127461    2.128568    2.299488    2.359300    2.444075


........................................................................
.............................. CYCLE   21 ..............................
........................................................................
   1   -151.4862282 -0.151486E+03  0.109E-01    2.48       0.0  T
   2   -151.4862700 -0.417372E-04  0.648E-02    2.48       1.0  T
   3   -151.4862537  0.162260E-04  0.245E-02    2.48       1.0  T
   4   -151.4862796 -0.258579E-04  0.450E-03    2.48       2.5  T
   5   -151.4862808 -0.119936E-05  0.204E-03    2.48       5.5  T
   6   -151.4862809 -0.890369E-07  0.892E-04    2.48      12.7  T
   7   -151.4862809 -0.184311E-07  0.451E-04    2.48      25.1  T
     SCC iter.                  ...        0 min,  0.207 sec
     gradient                   ...        0 min,  0.131 sec
 * total energy  :  -149.4874799 Eh     change       -0.7078398E-03 Eh
   gradient norm :     0.0226378 Eh/α   predicted     0.0000000E+00 (-100.00%)
   displ. norm   :     0.1361710 α      lambda       -0.8526717E-03
   maximum displ.:     0.0598175 α      in ANC's #3, #1, #36, ...

........................................................................
.............................. CYCLE   22 ..............................
........................................................................
   1   -151.4829113 -0.151483E+03  0.488E-02    2.49       0.0  T
   2   -151.4829216 -0.102838E-04  0.296E-02    2.49       1.0  T
   3   -151.4829174  0.417025E-05  0.113E-02    2.50       1.0  T
   4   -151.4829235 -0.608868E-05  0.268E-03    2.50       4.2  T
   5   -151.4829241 -0.568341E-06  0.100E-03    2.50      11.3  T
   6   -151.4829241 -0.217525E-07  0.545E-04    2.50      20.8  T
     SCC iter.                  ...        0 min,  0.177 sec
     gradient                   ...        0 min,  0.145 sec
 * total energy  :  -149.4880924 Eh     change       -0.6124919E-03 Eh
   gradient norm :     0.0070556 Eh/α   predicted    -0.4342412E-03 ( -29.10%)
   displ. norm   :     0.2509172 α      lambda       -0.6300302E-03
   maximum displ.:     0.1237801 α      in ANC's #3, #1, #36, ...

........................................................................
.............................. CYCLE   23 ..............................
........................................................................
   1   -151.4799407 -0.151480E+03  0.728E-02    2.53       0.0  T
   2   -151.4799581 -0.173696E-04  0.435E-02    2.53       1.0  T
   3   -151.4799465  0.116140E-04  0.154E-02    2.53       1.0  T
   4   -151.4799610 -0.145713E-04  0.417E-03    2.53       2.7  T
   5   -151.4799626 -0.156949E-05  0.135E-03    2.53       8.4  T
   6   -151.4799626 -0.239168E-07  0.801E-04    2.53      14.1  T
   7   -151.4799626 -0.113577E-07  0.293E-04    2.53      38.7  T
     SCC iter.                  ...        0 min,  0.213 sec
     gradient                   ...        0 min,  0.140 sec
 * total energy  :  -149.4885337 Eh     change       -0.4413435E-03 Eh
   gradient norm :     0.0121881 Eh/α   predicted    -0.3349545E-03 ( -24.11%)
   displ. norm   :     0.3016393 α      lambda       -0.4742602E-03
   maximum displ.:     0.1588787 α      in ANC's #3, #1, #8, ...

........................................................................
.............................. CYCLE   24 ..............................
........................................................................
   1   -151.4784344 -0.151478E+03  0.759E-02    2.57       0.0  T
   2   -151.4784540 -0.196101E-04  0.451E-02    2.57       1.0  T
   3   -151.4784398  0.141747E-04  0.167E-02    2.58       1.0  T
   4   -151.4784571 -0.173569E-04  0.463E-03    2.58       2.4  T
   5   -151.4784592 -0.205920E-05  0.134E-03    2.58       8.4  T
   6   -151.4784592 -0.189867E-07  0.819E-04    2.58      13.8  T
   7   -151.4784592 -0.148954E-07  0.288E-04    2.58      39.3  T
     SCC iter.                  ...        0 min,  0.210 sec
     gradient                   ...        0 min,  0.118 sec
 * total energy  :  -149.4889246 Eh     change       -0.3908142E-03 Eh
   gradient norm :     0.0177805 Eh/α   predicted    -0.2587104E-03 ( -33.80%)
   displ. norm   :     0.4847038 α      lambda       -0.7976446E-03
   maximum displ.:     0.2602903 α      in ANC's #3, #1, #8, ...

........................................................................
.............................. CYCLE   25 ..............................
........................................................................
   1   -151.4778021 -0.151478E+03  0.111E-01    2.63       0.0  T
   2   -151.4778478 -0.456729E-04  0.656E-02    2.64       1.0  T
   3   -151.4778183  0.294985E-04  0.251E-02    2.65       1.0  T
   4   -151.4778550 -0.366884E-04  0.702E-03    2.65       1.6  T
   5   -151.4778597 -0.477350E-05  0.198E-03    2.65       5.7  T
   6   -151.4778598 -0.467015E-07  0.119E-03    2.65       9.5  T
   7   -151.4778598 -0.339683E-07  0.459E-04    2.65      24.7  T
   8   -151.4778598 -0.472497E-08  0.202E-04    2.65      56.0  T
     SCC iter.                  ...        0 min,  0.239 sec
     gradient                   ...        0 min,  0.133 sec
 * total energy  :  -149.4896065 Eh     change       -0.6819839E-03 Eh
   gradient norm :     0.0193702 Eh/α   predicted    -0.4925385E-03 ( -27.78%)
   displ. norm   :     0.5987090 α      lambda       -0.1117292E-02
   maximum displ.:     0.3328471 α      in ANC's #3, #1, #8, ...

........................................................................
.............................. CYCLE   26 ..............................
........................................................................
   1   -151.4792808 -0.151479E+03  0.125E-01    2.71       0.0  T
   2   -151.4793292 -0.483857E-04  0.742E-02    2.72       1.0  T
   3   -151.4792887  0.405449E-04  0.280E-02    2.73       1.0  T
   4   -151.4793390 -0.503721E-04  0.715E-03    2.72       1.6  T
   5   -151.4793437 -0.466631E-05  0.226E-03    2.72       5.0  T
   6   -151.4793438 -0.629349E-07  0.131E-03    2.72       8.6  T
   7   -151.4793438 -0.442089E-07  0.511E-04    2.72      22.2  T
   8   -151.4793438 -0.558194E-08  0.236E-04    2.72      48.0  T
     SCC iter.                  ...        0 min,  0.240 sec
     gradient                   ...        0 min,  0.146 sec
 * total energy  :  -149.4905688 Eh     change       -0.9622262E-03 Eh
   gradient norm :     0.0143057 Eh/α   predicted    -0.7588953E-03 ( -21.13%)
   displ. norm   :     0.6791349 α      lambda       -0.1207735E-02
   maximum displ.:     0.3840127 α      in ANC's #3, #1, #8, ...

........................................................................
.............................. CYCLE   27 ..............................
........................................................................
   1   -151.4815133 -0.151482E+03  0.136E-01    2.78       0.0  T
   2   -151.4815615 -0.481696E-04  0.802E-02    2.79       1.0  T
   3   -151.4815116  0.498616E-04  0.295E-02    2.80       1.0  T
   4   -151.4815728 -0.611644E-04  0.729E-03    2.80       1.6  T
   5   -151.4815775 -0.467164E-05  0.248E-03    2.80       4.6  T
   6   -151.4815775 -0.668911E-07  0.141E-03    2.80       8.0  T
   7   -151.4815776 -0.509970E-07  0.536E-04    2.80      21.1  T
   8   -151.4815776 -0.666284E-08  0.246E-04    2.80      46.0  T
     SCC iter.                  ...        0 min,  0.240 sec
     gradient                   ...        0 min,  0.130 sec
 * total energy  :  -149.4916194 Eh     change       -0.1050620E-02 Eh
   gradient norm :     0.0105307 Eh/α   predicted    -0.8823906E-03 ( -16.01%)
   displ. norm   :     0.7291613 α      lambda       -0.1198757E-02
   maximum displ.:     0.4200231 α      in ANC's #3, #1, #8, ...

........................................................................
.............................. CYCLE   28 ..............................
........................................................................
   1   -151.4852467 -0.151485E+03  0.138E-01    2.85       0.0  T
   2   -151.4852828 -0.360647E-04  0.814E-02    2.85       1.0  T
   3   -151.4852293  0.535434E-04  0.283E-02    2.86       1.0  T
   4   -151.4852939 -0.646624E-04  0.641E-03    2.85       1.8  T
   5   -151.4852971 -0.319902E-05  0.250E-03    2.85       4.5  T
   6   -151.4852972 -0.614600E-07  0.135E-03    2.85       8.4  T
   7   -151.4852972 -0.522915E-07  0.518E-04    2.85      21.8  T
   8   -151.4852972 -0.563730E-08  0.243E-04    2.85      46.6  T
     SCC iter.                  ...        0 min,  0.235 sec
     gradient                   ...        0 min,  0.149 sec
 * total energy  :  -149.4926615 Eh     change       -0.1042105E-02 Eh
   gradient norm :     0.0073224 Eh/α   predicted    -0.9180541E-03 ( -11.90%)
   displ. norm   :     0.8261064 α      lambda       -0.1165483E-02
   maximum displ.:     0.4724693 α      in ANC's #3, #1, #8, ...

........................................................................
.............................. CYCLE   29 ..............................
........................................................................
   1   -151.4807955 -0.151481E+03  0.160E-01    2.88       0.0  T
   2   -151.4808644 -0.688999E-04  0.949E-02    2.89       1.0  T
   3   -151.4808002  0.641994E-04  0.322E-02    2.89       1.0  T
   4   -151.4808764 -0.761493E-04  0.897E-03    2.89       1.3  T
   5   -151.4808836 -0.726101E-05  0.304E-03    2.89       3.7  T
   6   -151.4808838 -0.152062E-06  0.177E-03    2.89       6.4  T
   7   -151.4808838 -0.438138E-07  0.708E-04    2.89      16.0  T
   8   -151.4808838 -0.204976E-07  0.241E-04    2.89      47.0  T
     SCC iter.                  ...        0 min,  0.244 sec
     gradient                   ...        0 min,  0.127 sec
 * total energy  :  -149.4934510 Eh     change       -0.7895072E-03 Eh
   gradient norm :     0.0281399 Eh/α   predicted    -0.9804375E-03 (  24.18%)
   displ. norm   :     0.5778991 α      lambda       -0.1634456E-02
   maximum displ.:     0.3338841 α      in ANC's #3, #1, #8, ...

........................................................................
.............................. CYCLE   30 ..............................
........................................................................
   1   -151.4967318 -0.151497E+03  0.106E-01    2.90       0.0  T
   2   -151.4967880 -0.561572E-04  0.634E-02    2.90       1.0  T
   3   -151.4967761  0.118933E-04  0.249E-02    2.90       1.0  T
   4   -151.4967979 -0.217915E-04  0.470E-03    2.90       2.4  T
   5   -151.4967992 -0.137665E-05  0.237E-03    2.90       4.8  T
   6   -151.4967995 -0.263040E-06  0.107E-03    2.90      10.6  T
   7   -151.4967995 -0.145915E-07  0.465E-04    2.90      24.4  T
   8   -151.4967995 -0.444052E-08  0.205E-04    2.90      55.1  T
     SCC iter.                  ...        0 min,  0.238 sec
     gradient                   ...        0 min,  0.141 sec
 * total energy  :  -149.4942455 Eh     change       -0.7945291E-03 Eh
   gradient norm :     0.0232862 Eh/α   predicted    -0.1090162E-02 (  37.21%)
   displ. norm   :     0.6273041 α      lambda       -0.1517533E-02
   maximum displ.:     0.3609064 α      in ANC's #3, #1, #8, ...

........................................................................
.............................. CYCLE   31 ..............................
........................................................................
   1   -151.4890890 -0.151489E+03  0.128E-01    2.91       0.0  T
   2   -151.4893505 -0.261528E-03  0.791E-02    2.90       1.0  T
   3   -151.4893653 -0.148079E-04  0.405E-02    2.91       1.0  T
   4   -151.4893741 -0.874873E-05  0.145E-02    2.91       1.0  T
   5   -151.4893943 -0.202055E-04  0.338E-03    2.91       3.3  T
   6   -151.4893948 -0.513084E-06  0.165E-03    2.91       6.9  T
   7   -151.4893949 -0.680816E-07  0.850E-04    2.91      13.3  T
   8   -151.4893949 -0.111666E-07  0.399E-04    2.91      28.4  T
     SCC iter.                  ...        0 min,  0.238 sec
     gradient                   ...        0 min,  0.143 sec
 * total energy  :  -149.4945966 Eh     change       -0.3510296E-03 Eh
   gradient norm :     0.0349053 Eh/α   predicted    -0.1057365E-02 ( 201.22%)
   displ. norm   :     0.4350807 α      lambda       -0.1687204E-02
   maximum displ.:     0.2527849 α      in ANC's #3, #1, #8, ...

........................................................................
.............................. CYCLE   32 ..............................
........................................................................
   1   -151.4835272 -0.151484E+03  0.920E-02    2.91       0.0  T
   2   -151.4836043 -0.771263E-04  0.545E-02    2.92       1.0  T
   3   -151.4836037  0.598285E-06  0.226E-02    2.91       1.0  T
   4   -151.4836117 -0.799397E-05  0.434E-03    2.92       2.6  T
   5   -151.4836126 -0.813043E-06  0.239E-03    2.92       4.7  T
   6   -151.4836128 -0.221046E-06  0.127E-03    2.92       8.9  T
   7   -151.4836128 -0.282446E-07  0.510E-04    2.92      22.2  T
   8   -151.4836128 -0.523505E-08  0.200E-04    2.92      56.6  T
     SCC iter.                  ...        0 min,  0.243 sec
     gradient                   ...        0 min,  0.121 sec
 * total energy  :  -149.4954254 Eh     change       -0.8288655E-03 Eh
   gradient norm :     0.0230169 Eh/α   predicted    -0.1003296E-02 (  21.04%)
   displ. norm   :     0.3077640 α      lambda       -0.8251839E-03
   maximum displ.:     0.1859334 α      in ANC's #3, #1, #8, ...

........................................................................
.............................. CYCLE   33 ..............................
........................................................................
   1   -151.4896986 -0.151490E+03  0.511E-02    2.92       0.0  T
   2   -151.4897168 -0.182121E-04  0.300E-02    2.92       1.0  T
   3   -151.4897164  0.481603E-06  0.139E-02    2.92       1.0  T
   4   -151.4897205 -0.412867E-05  0.210E-03    2.92       5.4  T
   5   -151.4897207 -0.193415E-06  0.121E-03    2.92       9.4  T
   6   -151.4897208 -0.727197E-07  0.569E-04    2.92      19.9  T
   7   -151.4897208 -0.204872E-08  0.255E-04    2.92      44.3  T
     SCC iter.                  ...        0 min,  0.207 sec
     gradient                   ...        0 min,  0.131 sec
 * total energy  :  -149.4960445 Eh     change       -0.6191115E-03 Eh
   gradient norm :     0.0152907 Eh/α   predicted    -0.4516776E-03 ( -27.04%)
   displ. norm   :     0.7295581 α      lambda       -0.1059113E-02
   maximum displ.:     0.4452637 α      in ANC's #3, #1, #8, ...

........................................................................
.............................. CYCLE   34 ..............................
........................................................................
   1   -151.4929378 -0.151493E+03  0.114E-01    2.92       0.0  T
   2   -151.4929751 -0.372941E-04  0.673E-02    2.92       1.0  T
   3   -151.4929406  0.345275E-04  0.242E-02    2.92       1.0  T
   4   -151.4929812 -0.405861E-04  0.665E-03    2.92       1.7  T
   5   -151.4929854 -0.425482E-05  0.192E-03    2.92       5.9  T
   6   -151.4929855 -0.608026E-07  0.114E-03    2.92      10.0  T
   7   -151.4929855 -0.198732E-07  0.500E-04    2.92      22.7  T
   8   -151.4929855 -0.799818E-08  0.162E-04    2.92      69.8  T
     SCC iter.                  ...        0 min,  0.239 sec
     gradient                   ...        0 min,  0.141 sec
 * total energy  :  -149.4969590 Eh     change       -0.9144601E-03 Eh
   gradient norm :     0.0064533 Eh/α   predicted    -0.8114155E-03 ( -11.27%)
   displ. norm   :     0.8423706 α      lambda       -0.1014289E-02
   maximum displ.:     0.5127648 α      in ANC's #3, #1, #8, ...

........................................................................
.............................. CYCLE   35 ..............................
........................................................................
   1   -151.4918083 -0.151492E+03  0.134E-01    2.91       0.0  T
   2   -151.4918314 -0.231085E-04  0.787E-02    2.92       1.0  T
   3   -151.4917890  0.423848E-04  0.233E-02    2.92       1.0  T
   4   -151.4918390 -0.499699E-04  0.526E-03    2.92       2.2  T
   5   -151.4918411 -0.210620E-05  0.218E-03    2.92       5.2  T
   6   -151.4918412 -0.397029E-07  0.123E-03    2.92       9.2  T
   7   -151.4918412 -0.346958E-07  0.408E-04    2.92      27.7  T
   8   -151.4918412 -0.707718E-08  0.145E-04    2.92      77.9  T
     SCC iter.                  ...        0 min,  0.237 sec
     gradient                   ...        0 min,  0.122 sec
 * total energy  :  -149.4978431 Eh     change       -0.8841194E-03 Eh
   gradient norm :     0.0138793 Eh/α   predicted    -0.8670088E-03 (  -1.94%)
   displ. norm   :     0.7306802 α      lambda       -0.1150812E-02
   maximum displ.:     0.4219832 α      in ANC's #3, #1, #2, ...

........................................................................
.............................. CYCLE   36 ..............................
........................................................................
   1   -151.5041538 -0.151504E+03  0.111E-01    2.91       0.0  T
   2   -151.5042022 -0.484511E-04  0.653E-02    2.91       1.0  T
   3   -151.5041902  0.120668E-04  0.195E-02    2.91       1.0  T
   4   -151.5042051 -0.149391E-04  0.621E-03    2.91       1.8  T
   5   -151.5042082 -0.312870E-05  0.211E-03    2.91       5.4  T
   6   -151.5042084 -0.138372E-06  0.115E-03    2.91       9.9  T
   7   -151.5042084 -0.147283E-07  0.503E-04    2.91      22.5  T
   8   -151.5042084 -0.105175E-07  0.179E-04    2.91      63.2  T
     SCC iter.                  ...        0 min,  0.243 sec
     gradient                   ...        0 min,  0.148 sec
 * total energy  :  -149.4984454 Eh     change       -0.6022416E-03 Eh
   gradient norm :     0.0193758 Eh/α   predicted    -0.8826108E-03 (  46.55%)
   displ. norm   :     0.7120309 α      lambda       -0.1118802E-02
   maximum displ.:     0.4410096 α      in ANC's #3, #1, #8, ...

........................................................................
.............................. CYCLE   37 ..............................
........................................................................
   1   -151.4917244 -0.151492E+03  0.120E-01    2.90       0.0  T
   2   -151.4917568 -0.323568E-04  0.707E-02    2.90       1.0  T
   3   -151.4917344  0.224067E-04  0.199E-02    2.90       1.0  T
   4   -151.4917613 -0.269372E-04  0.554E-03    2.90       2.0  T
   5   -151.4917639 -0.264216E-05  0.201E-03    2.90       5.6  T
   6   -151.4917640 -0.107569E-06  0.112E-03    2.90      10.1  T
   7   -151.4917641 -0.135815E-07  0.466E-04    2.90      24.3  T
   8   -151.4917641 -0.972122E-08  0.155E-04    2.90      73.0  T
     SCC iter.                  ...        0 min,  0.245 sec
     gradient                   ...        0 min,  0.132 sec
 * total energy  :  -149.4992325 Eh     change       -0.7871937E-03 Eh
   gradient norm :     0.0138066 Eh/α   predicted    -0.8430161E-03 (   7.09%)
   displ. norm   :     0.6070219 α      lambda       -0.7357983E-03
   maximum displ.:     0.3708514 α      in ANC's #3, #1, #2, ...

........................................................................
.............................. CYCLE   38 ..............................
........................................................................
   1   -151.4910045 -0.151491E+03  0.937E-02    2.89       0.0  T
   2   -151.4910398 -0.352745E-04  0.550E-02    2.89       1.0  T
   3   -151.4910258  0.140525E-04  0.203E-02    2.89       1.0  T
   4   -151.4910445 -0.187233E-04  0.538E-03    2.89       2.1  T
   5   -151.4910471 -0.261910E-05  0.165E-03    2.89       6.9  T
   6   -151.4910472 -0.906121E-07  0.924E-04    2.89      12.2  T
   7   -151.4910472 -0.795561E-08  0.425E-04    2.89      26.7  T
     SCC iter.                  ...        0 min,  0.210 sec
     gradient                   ...        0 min,  0.168 sec
 * total energy  :  -149.4997973 Eh     change       -0.5647729E-03 Eh
   gradient norm :     0.0181783 Eh/α   predicted    -0.5034639E-03 ( -10.86%)
   displ. norm   :     0.6350941 α      lambda       -0.8625721E-03
   maximum displ.:     0.3885268 α      in ANC's #3, #1, #2, ...

........................................................................
.............................. CYCLE   39 ..............................
........................................................................
   1   -151.4921704 -0.151492E+03  0.951E-02    2.90       0.0  T
   2   -151.4921799 -0.950122E-05  0.562E-02    2.89       1.0  T
   3   -151.4921662  0.137370E-04  0.133E-02    2.89       1.0  T
   4   -151.4921825 -0.162522E-04  0.316E-03    2.89       3.6  T
   5   -151.4921830 -0.581833E-06  0.153E-03    2.89       7.4  T
   6   -151.4921831 -0.611306E-07  0.804E-04    2.89      14.1  T
   7   -151.4921831 -0.954654E-08  0.327E-04    2.89      34.6  T
     SCC iter.                  ...        0 min,  0.210 sec
     gradient                   ...        0 min,  0.150 sec
 * total energy  :  -149.5005133 Eh     change       -0.7160025E-03 Eh
   gradient norm :     0.0094649 Eh/α   predicted    -0.6052462E-03 ( -15.47%)
   displ. norm   :     0.7579934 α      lambda       -0.8805807E-03
   maximum displ.:     0.4552238 α      in ANC's #3, #1, #2, ...

........................................................................
.............................. CYCLE   40 ..............................
........................................................................
   1   -151.4961438 -0.151496E+03  0.111E-01    2.87       0.0  T
   2   -151.4961580 -0.142470E-04  0.659E-02    2.87       1.0  T
   3   -151.4961394  0.186363E-04  0.169E-02    2.86       1.0  T
   4   -151.4961621 -0.227324E-04  0.407E-03    2.86       2.8  T
   5   -151.4961631 -0.102694E-05  0.205E-03    2.87       5.5  T
   6   -151.4961632 -0.953590E-07  0.102E-03    2.87      11.1  T
   7   -151.4961632 -0.108428E-07  0.403E-04    2.87      28.1  T
   8   -151.4961633 -0.784618E-08  0.130E-04    2.87      87.3  T
     SCC iter.                  ...        0 min,  0.246 sec
     gradient                   ...        0 min,  0.133 sec
 * total energy  :  -149.5012146 Eh     change       -0.7012701E-03 Eh
   gradient norm :     0.0131067 Eh/α   predicted    -0.6932654E-03 (  -1.14%)
   displ. norm   :     0.6520626 α      lambda       -0.1011878E-02
   maximum displ.:     0.3513241 α      in ANC's #3, #1, #11, ...

........................................................................
.............................. CYCLE   41 ..............................
........................................................................
   1   -151.5143764 -0.151514E+03  0.104E-01    2.90       0.0  T
   2   -151.5144141 -0.377092E-04  0.617E-02    2.89       1.0  T
   3   -151.5144039  0.101902E-04  0.209E-02    2.90       1.0  T
   4   -151.5144208 -0.169287E-04  0.351E-03    2.89       3.2  T
   5   -151.5144214 -0.630296E-06  0.192E-03    2.89       5.9  T
   6   -151.5144216 -0.133394E-06  0.860E-04    2.89      13.2  T
   7   -151.5144216 -0.136988E-07  0.344E-04    2.89      32.9  T
     SCC iter.                  ...        0 min,  0.215 sec
     gradient                   ...        0 min,  0.134 sec
 * total energy  :  -149.5014722 Eh     change       -0.2575872E-03 Eh
   gradient norm :     0.0261498 Eh/α   predicted    -0.7210564E-03 ( 179.93%)
   displ. norm   :     0.6306493 α      lambda       -0.1338620E-02
   maximum displ.:     0.3911642 α      in ANC's #3, #1, #2, ...

........................................................................
.............................. CYCLE   42 ..............................
........................................................................
   1   -151.4980615 -0.151498E+03  0.105E-01    2.86       0.0  T
   2   -151.4980861 -0.245889E-04  0.620E-02    2.86       1.0  T
   3   -151.4980629  0.232122E-04  0.203E-02    2.86       1.0  T
   4   -151.4980917 -0.288369E-04  0.475E-03    2.86       2.4  T
   5   -151.4980936 -0.188767E-05  0.179E-03    2.86       6.3  T
   6   -151.4980937 -0.568249E-07  0.970E-04    2.86      11.7  T
   7   -151.4980937 -0.131490E-07  0.402E-04    2.86      28.2  T
     SCC iter.                  ...        0 min,  0.215 sec
     gradient                   ...        0 min,  0.121 sec
 * total energy  :  -149.5023326 Eh     change       -0.8603967E-03 Eh
   gradient norm :     0.0099745 Eh/α   predicted    -0.9355086E-03 (   8.73%)
   displ. norm   :     0.7549858 α      lambda       -0.7832490E-03
   maximum displ.:     0.4561378 α      in ANC's #3, #1, #2, ...
 * RMSD in coord.:     1.3773612 α      energy gain  -0.1556051E-01 Eh

generating ANC from model Hessian ...
Using Lindh-Hessian (1995)
 Shifting diagonal of input Hessian by    9.9181128734736265E-003
 Lowest  eigenvalues of input Hessian
    0.000000    0.000000    0.000000    0.000000    0.000000    0.000000
    0.010000    0.010122    0.010130    0.010221    0.010232    0.010427
    0.010623    0.010747    0.010855    0.011159    0.011295    0.011780
 Highest eigenvalues
    2.047113    2.125665    2.125909    2.318925    2.346881    2.381906


........................................................................
.............................. CYCLE   43 ..............................
........................................................................
   1   -151.4946149 -0.151495E+03  0.107E-01    2.84       0.0  T
   2   -151.4946327 -0.178436E-04  0.634E-02    2.84       1.0  T
   3   -151.4946138  0.189010E-04  0.165E-02    2.84       1.0  T
   4   -151.4946366 -0.227780E-04  0.438E-03    2.84       2.6  T
   5   -151.4946381 -0.149178E-05  0.179E-03    2.84       6.3  T
   6   -151.4946381 -0.843278E-08  0.924E-04    2.84      12.2  T
   7   -151.4946381 -0.327916E-07  0.278E-04    2.84      40.7  T
     SCC iter.                  ...        0 min,  0.215 sec
     gradient                   ...        0 min,  0.137 sec
 * total energy  :  -149.5028721 Eh     change       -0.5395247E-03 Eh
   gradient norm :     0.0128748 Eh/α   predicted     0.0000000E+00 (-100.00%)
   displ. norm   :     0.1219549 α      lambda       -0.4768315E-03
   maximum displ.:     0.0542121 α      in ANC's #5, #13, #11, ...

........................................................................
.............................. CYCLE   44 ..............................
........................................................................
   1   -151.5004515 -0.151500E+03  0.271E-02    2.85       0.0  T
   2   -151.5004558 -0.429828E-05  0.162E-02    2.85       1.0  T
   3   -151.5004554  0.438154E-06  0.627E-03    2.85       1.8  T
   4   -151.5004565 -0.109341E-05  0.107E-03    2.85      10.6  T
   5   -151.5004565 -0.594437E-07  0.508E-04    2.85      22.3  T
   6   -151.5004565 -0.580587E-08  0.247E-04    2.85      45.9  T
     SCC iter.                  ...        0 min,  0.182 sec
     gradient                   ...        0 min,  0.148 sec
 * total energy  :  -149.5032057 Eh     change       -0.3335876E-03 Eh
   gradient norm :     0.0052496 Eh/α   predicted    -0.2420929E-03 ( -27.43%)
   displ. norm   :     0.1988186 α      lambda       -0.3432519E-03
   maximum displ.:     0.1056524 α      in ANC's #5, #13, #11, ...

........................................................................
.............................. CYCLE   45 ..............................
........................................................................
   1   -151.5050935 -0.151505E+03  0.395E-02    2.85       0.0  T
   2   -151.5050989 -0.538939E-05  0.233E-02    2.85       1.0  T
   3   -151.5050979  0.987836E-06  0.696E-03    2.85       1.6  T
   4   -151.5050996 -0.169653E-05  0.129E-03    2.85       8.8  T
   5   -151.5050997 -0.821890E-07  0.614E-04    2.85      18.4  T
   6   -151.5050997 -0.892351E-08  0.322E-04    2.85      35.2  T
     SCC iter.                  ...        0 min,  0.180 sec
     gradient                   ...        0 min,  0.156 sec
 * total energy  :  -149.5034494 Eh     change       -0.2436696E-03 Eh
   gradient norm :     0.0047947 Eh/α   predicted    -0.1784954E-03 ( -26.75%)
   displ. norm   :     0.2899799 α      lambda       -0.3013373E-03
   maximum displ.:     0.1525762 α      in ANC's #5, #13, #11, ...

........................................................................
.............................. CYCLE   46 ..............................
........................................................................
   1   -151.5064216 -0.151506E+03  0.519E-02    2.85       0.0  T
   2   -151.5064241 -0.252089E-05  0.304E-02    2.85       1.0  T
   3   -151.5064218  0.231378E-05  0.601E-03    2.85       1.9  T
   4   -151.5064246 -0.280635E-05  0.187E-03    2.85       6.1  T
   5   -151.5064249 -0.241250E-06  0.821E-04    2.85      13.8  T
   6   -151.5064249 -0.367612E-08  0.392E-04    2.85      28.9  T
     SCC iter.                  ...        0 min,  0.179 sec
     gradient                   ...        0 min,  0.153 sec
 * total energy  :  -149.5037114 Eh     change       -0.2620271E-03 Eh
   gradient norm :     0.0066742 Eh/α   predicted    -0.1634018E-03 ( -37.64%)
   displ. norm   :     0.5784003 α      lambda       -0.5864953E-03
   maximum displ.:     0.2979547 α      in ANC's #5, #13, #11, ...

........................................................................
.............................. CYCLE   47 ..............................
........................................................................
   1   -151.5047380 -0.151505E+03  0.107E-01    2.82       0.0  T
   2   -151.5047468 -0.879167E-05  0.633E-02    2.82       1.0  T
   3   -151.5047299  0.168475E-04  0.149E-02    2.82       1.0  T
   4   -151.5047503 -0.204231E-04  0.364E-03    2.82       3.1  T
   5   -151.5047510 -0.666958E-06  0.193E-03    2.82       5.9  T
   6   -151.5047510 -0.189642E-07  0.838E-04    2.82      13.5  T
   7   -151.5047510 -0.277656E-07  0.263E-04    2.82      43.1  T
     SCC iter.                  ...        0 min,  0.207 sec
     gradient                   ...        0 min,  0.160 sec
 * total energy  :  -149.5042017 Eh     change       -0.4903405E-03 Eh
   gradient norm :     0.0119590 Eh/α   predicted    -0.3913541E-03 ( -20.19%)
   displ. norm   :     0.5922837 α      lambda       -0.5879116E-03
   maximum displ.:     0.3184170 α      in ANC's #5, #11, #13, ...

........................................................................
.............................. CYCLE   48 ..............................
........................................................................
   1   -151.5008715 -0.151501E+03  0.102E-01    2.79       0.0  T
   2   -151.5008816 -0.101050E-04  0.605E-02    2.80       1.0  T
   3   -151.5008605  0.211199E-04  0.165E-02    2.80       1.0  T
   4   -151.5008858 -0.253053E-04  0.368E-03    2.80       3.1  T
   5   -151.5008865 -0.726660E-06  0.191E-03    2.80       5.9  T
   6   -151.5008865 -0.233474E-07  0.943E-04    2.80      12.0  T
   7   -151.5008865 -0.262590E-07  0.310E-04    2.80      36.5  T
     SCC iter.                  ...        0 min,  0.205 sec
     gradient                   ...        0 min,  0.160 sec
 * total energy  :  -149.5046452 Eh     change       -0.4434567E-03 Eh
   gradient norm :     0.0190221 Eh/α   predicted    -0.3970890E-03 ( -10.46%)
   displ. norm   :     0.4438328 α      lambda       -0.7347580E-03
   maximum displ.:     0.2579198 α      in ANC's #5, #11, #4, ...

........................................................................
.............................. CYCLE   49 ..............................
........................................................................
   1   -151.4991902 -0.151499E+03  0.623E-02    2.81       0.0  T
   2   -151.4992005 -0.103255E-04  0.370E-02    2.81       1.0  T
   3   -151.4991928  0.774272E-05  0.128E-02    2.81       1.0  T
   4   -151.4992030 -0.101714E-04  0.294E-03    2.81       3.9  T
   5   -151.4992036 -0.640539E-06  0.123E-03    2.81       9.2  T
   6   -151.4992036 -0.192766E-07  0.648E-04    2.81      17.5  T
   7   -151.4992036 -0.122147E-07  0.239E-04    2.81      47.4  T
     SCC iter.                  ...        0 min,  0.203 sec
     gradient                   ...        0 min,  0.119 sec
 * total energy  :  -149.5052163 Eh     change       -0.5711564E-03 Eh
   gradient norm :     0.0127993 Eh/α   predicted    -0.4397497E-03 ( -23.01%)
   displ. norm   :     0.5504540 α      lambda       -0.7156765E-03
   maximum displ.:     0.3197422 α      in ANC's #5, #11, #4, ...

........................................................................
.............................. CYCLE   50 ..............................
........................................................................
   1   -151.4996130 -0.151500E+03  0.774E-02    2.82       0.0  T
   2   -151.4996203 -0.722259E-05  0.456E-02    2.81       1.0  T
   3   -151.4996080  0.122308E-04  0.134E-02    2.82       1.0  T
   4   -151.4996229 -0.148230E-04  0.297E-03    2.81       3.8  T
   5   -151.4996234 -0.544147E-06  0.143E-03    2.81       7.9  T
   6   -151.4996234 -0.224153E-07  0.699E-04    2.81      16.2  T
   7   -151.4996234 -0.148935E-07  0.260E-04    2.81      43.5  T
     SCC iter.                  ...        0 min,  0.213 sec
     gradient                   ...        0 min,  0.145 sec
 * total energy  :  -149.5058170 Eh     change       -0.6006981E-03 Eh
   gradient norm :     0.0111270 Eh/α   predicted    -0.4662806E-03 ( -22.38%)
   displ. norm   :     0.6291052 α      lambda       -0.8221059E-03
   maximum displ.:     0.3656822 α      in ANC's #5, #4, #11, ...

........................................................................
.............................. CYCLE   51 ..............................
........................................................................
   1   -151.5022616 -0.151502E+03  0.938E-02    2.82       0.0  T
   2   -151.5022703 -0.872097E-05  0.549E-02    2.82       1.0  T
   3   -151.5022546  0.156922E-04  0.150E-02    2.82       1.0  T
   4   -151.5022734 -0.187738E-04  0.343E-03    2.82       3.3  T
   5   -151.5022742 -0.754519E-06  0.166E-03    2.82       6.8  T
   6   -151.5022742 -0.483061E-07  0.816E-04    2.82      13.9  T
   7   -151.5022742 -0.110573E-07  0.340E-04    2.82      33.3  T
     SCC iter.                  ...        0 min,  0.216 sec
     gradient                   ...        0 min,  0.132 sec
 * total energy  :  -149.5065119 Eh     change       -0.6949057E-03 Eh
   gradient norm :     0.0096439 Eh/α   predicted    -0.5737376E-03 ( -17.44%)
   displ. norm   :     0.7170799 α      lambda       -0.8160823E-03
   maximum displ.:     0.4143164 α      in ANC's #5, #4, #11, ...

........................................................................
.............................. CYCLE   52 ..............................
........................................................................
   1   -151.5029161 -0.151503E+03  0.111E-01    2.82       0.0  T
   2   -151.5029228 -0.670389E-05  0.653E-02    2.82       1.0  T
   3   -151.5028984  0.244316E-04  0.165E-02    2.82       1.0  T
   4   -151.5029272 -0.288265E-04  0.310E-03    2.82       3.7  T
   5   -151.5029275 -0.322014E-06  0.185E-03    2.82       6.1  T
   6   -151.5029275 -0.304733E-07  0.826E-04    2.82      13.7  T
   7   -151.5029276 -0.271772E-07  0.261E-04    2.82      43.3  T
     SCC iter.                  ...        0 min,  0.213 sec
     gradient                   ...        0 min,  0.153 sec
 * total energy  :  -149.5071963 Eh     change       -0.6843583E-03 Eh
   gradient norm :     0.0112161 Eh/α   predicted    -0.6178587E-03 (  -9.72%)
   displ. norm   :     0.6080305 α      lambda       -0.1019393E-02
   maximum displ.:     0.3358918 α      in ANC's #5, #4, #1, ...

........................................................................
.............................. CYCLE   53 ..............................
........................................................................
   1   -151.5170692 -0.151517E+03  0.111E-01    2.84       0.0  T
   2   -151.5171406 -0.713501E-04  0.655E-02    2.84       1.0  T
   3   -151.5171346  0.596164E-05  0.272E-02    2.84       1.0  T
   4   -151.5171527 -0.181144E-04  0.440E-03    2.84       2.6  T
   5   -151.5171540 -0.123720E-05  0.219E-03    2.84       5.2  T
   6   -151.5171542 -0.213064E-06  0.108E-03    2.84      10.5  T
   7   -151.5171542 -0.782310E-08  0.514E-04    2.84      22.1  T
   8   -151.5171542 -0.111203E-07  0.178E-04    2.84      63.5  T
     SCC iter.                  ...        0 min,  0.240 sec
     gradient                   ...        0 min,  0.139 sec
 * total energy  :  -149.5073941 Eh     change       -0.1978482E-03 Eh
   gradient norm :     0.0216797 Eh/α   predicted    -0.6981339E-03 ( 252.86%)
   displ. norm   :     0.5431126 α      lambda       -0.1258224E-02
   maximum displ.:     0.3033437 α      in ANC's #5, #13, #4, ...

........................................................................
.............................. CYCLE   54 ..............................
........................................................................
   1   -151.5065218 -0.151507E+03  0.928E-02    2.82       0.0  T
   2   -151.5065542 -0.324343E-04  0.562E-02    2.83       1.0  T
   3   -151.5065408  0.134542E-04  0.218E-02    2.83       1.0  T
   4   -151.5065624 -0.216304E-04  0.447E-03    2.83       2.5  T
   5   -151.5065637 -0.129670E-05  0.218E-03    2.83       5.2  T
   6   -151.5065638 -0.907461E-07  0.109E-03    2.83      10.4  T
   7   -151.5065638 -0.181969E-07  0.483E-04    2.83      23.4  T
   8   -151.5065638 -0.106119E-07  0.147E-04    2.83      77.2  T
     SCC iter.                  ...        0 min,  0.238 sec
     gradient                   ...        0 min,  0.131 sec
 * total energy  :  -149.5082171 Eh     change       -0.8229762E-03 Eh
   gradient norm :     0.0136648 Eh/α   predicted    -0.8146909E-03 (  -1.01%)
   displ. norm   :     0.6215126 α      lambda       -0.6160414E-03
   maximum displ.:     0.3582567 α      in ANC's #5, #4, #13, ...

........................................................................
.............................. CYCLE   55 ..............................
........................................................................
   1   -151.5026446 -0.151503E+03  0.893E-02    2.83       0.0  T
   2   -151.5026659 -0.213185E-04  0.533E-02    2.83       1.0  T
   3   -151.5026517  0.141803E-04  0.154E-02    2.83       1.0  T
   4   -151.5026674 -0.156200E-04  0.518E-03    2.83       2.2  T
   5   -151.5026699 -0.252281E-05  0.163E-03    2.83       6.9  T
   6   -151.5026700 -0.771840E-07  0.944E-04    2.83      12.0  T
   7   -151.5026700 -0.939139E-08  0.385E-04    2.83      29.4  T
     SCC iter.                  ...        0 min,  0.214 sec
     gradient                   ...        0 min,  0.176 sec
 * total energy  :  -149.5086879 Eh     change       -0.4707357E-03 Eh
   gradient norm :     0.0146668 Eh/α   predicted    -0.4270073E-03 (  -9.29%)
   displ. norm   :     0.4949736 α      lambda       -0.8067103E-03
   maximum displ.:     0.2583320 α      in ANC's #5, #4, #13, ...

........................................................................
.............................. CYCLE   56 ..............................
........................................................................
   1   -151.5051490 -0.151505E+03  0.810E-02    2.83       0.0  T
   2   -151.5051600 -0.109948E-04  0.482E-02    2.82       1.0  T
   3   -151.5051547  0.524742E-05  0.112E-02    2.83       1.0  T
   4   -151.5051623 -0.751718E-05  0.267E-03    2.82       4.2  T
   5   -151.5051626 -0.303776E-06  0.153E-03    2.82       7.4  T
   6   -151.5051626 -0.837421E-07  0.644E-04    2.82      17.6  T
   7   -151.5051626 -0.961532E-08  0.283E-04    2.83      40.0  T
     SCC iter.                  ...        0 min,  0.211 sec
     gradient                   ...        0 min,  0.149 sec
 * total energy  :  -149.5092325 Eh     change       -0.5446757E-03 Eh
   gradient norm :     0.0128327 Eh/α   predicted    -0.5021777E-03 (  -7.80%)
   displ. norm   :     0.6157062 α      lambda       -0.7745489E-03
   maximum displ.:     0.3192544 α      in ANC's #5, #4, #13, ...

........................................................................
.............................. CYCLE   57 ..............................
........................................................................
   1   -151.5055612 -0.151506E+03  0.105E-01    2.82       0.0  T
   2   -151.5055819 -0.206887E-04  0.615E-02    2.82       1.0  T
   3   -151.5055701  0.117954E-04  0.166E-02    2.82       1.0  T
   4   -151.5055854 -0.153606E-04  0.394E-03    2.82       2.9  T
   5   -151.5055865 -0.106773E-05  0.185E-03    2.82       6.1  T
   6   -151.5055866 -0.119062E-06  0.896E-04    2.82      12.6  T
   7   -151.5055866 -0.108935E-07  0.408E-04    2.82      27.8  T
     SCC iter.                  ...        0 min,  0.210 sec
     gradient                   ...        0 min,  0.147 sec
 * total energy  :  -149.5097798 Eh     change       -0.5472248E-03 Eh
   gradient norm :     0.0126629 Eh/α   predicted    -0.5340906E-03 (  -2.40%)
   displ. norm   :     0.5404562 α      lambda       -0.7026426E-03
   maximum displ.:     0.2435331 α      in ANC's #5, #4, #3, ...

........................................................................
.............................. CYCLE   58 ..............................
........................................................................
   1   -151.5123043 -0.151512E+03  0.946E-02    2.82       0.0  T
   2   -151.5123276 -0.232985E-04  0.561E-02    2.82       1.0  T
   3   -151.5123208  0.681364E-05  0.131E-02    2.82       1.0  T
   4   -151.5123296 -0.883739E-05  0.381E-03    2.81       3.0  T
   5   -151.5123308 -0.115393E-05  0.168E-03    2.82       6.7  T
   6   -151.5123309 -0.129416E-06  0.807E-04    2.82      14.0  T
   7   -151.5123309 -0.803652E-08  0.343E-04    2.82      33.0  T
     SCC iter.                  ...        0 min,  0.208 sec
     gradient                   ...        0 min,  0.142 sec
 * total energy  :  -149.5102022 Eh     change       -0.4224862E-03 Eh
   gradient norm :     0.0093927 Eh/α   predicted    -0.4539414E-03 (   7.45%)
   displ. norm   :     0.7266196 α      lambda       -0.6268119E-03
   maximum displ.:     0.3877732 α      in ANC's #5, #4, #13, ...

........................................................................
.............................. CYCLE   59 ..............................
........................................................................
   1   -151.5057254 -0.151506E+03  0.118E-01    2.77       0.0  T
   2   -151.5057552 -0.297531E-04  0.695E-02    2.76       1.0  T
   3   -151.5057469  0.826346E-05  0.151E-02    2.76       1.0  T
   4   -151.5057576 -0.106606E-04  0.523E-03    2.76       2.2  T
   5   -151.5057596 -0.201923E-05  0.213E-03    2.76       5.3  T
   6   -151.5057597 -0.116121E-06  0.116E-03    2.76       9.8  T
   7   -151.5057597 -0.233739E-07  0.499E-04    2.76      22.7  T
   8   -151.5057598 -0.845566E-08  0.164E-04    2.76      68.9  T
     SCC iter.                  ...        0 min,  0.247 sec
     gradient                   ...        0 min,  0.146 sec
 * total energy  :  -149.5105144 Eh     change       -0.3121526E-03 Eh
   gradient norm :     0.0167827 Eh/α   predicted    -0.4788779E-03 (  53.41%)
   displ. norm   :     0.3471195 α      lambda       -0.6116962E-03
   maximum displ.:     0.1454781 α      in ANC's #4, #3, #12, ...

........................................................................
.............................. CYCLE   60 ..............................
........................................................................
   1   -151.5115956 -0.151512E+03  0.675E-02    2.76       0.0  T
   2   -151.5116300 -0.343824E-04  0.399E-02    2.76       1.0  T
   3   -151.5116295  0.527819E-06  0.175E-02    2.76       1.0  T
   4   -151.5116344 -0.488695E-05  0.341E-03    2.76       3.3  T
   5   -151.5116352 -0.876315E-06  0.146E-03    2.76       7.7  T
   6   -151.5116353 -0.873660E-07  0.764E-04    2.76      14.8  T
   7   -151.5116353 -0.117345E-07  0.319E-04    2.76      35.5  T
     SCC iter.                  ...        0 min,  0.214 sec
     gradient                   ...        0 min,  0.134 sec
 * total energy  :  -149.5107039 Eh     change       -0.1894593E-03 Eh
   gradient norm :     0.0151453 Eh/α   predicted    -0.3427026E-03 (  80.88%)
   displ. norm   :     0.2849742 α      lambda       -0.4933100E-03
   maximum displ.:     0.1305455 α      in ANC's #4, #5, #3, ...

........................................................................
[...]
       140                         -0.2374204              -6.4605
       141                         -0.2317711              -6.3068
       142                         -0.2245498              -6.1103
       ...                                ...                  ...
       234                          0.6897897              18.7701
      -------------------------------------------------------------
                  HL-Gap            0.0961405 Eh            2.6161 eV
             Fermi-level           -0.3380547 Eh           -9.1989 eV

     #   Z          covCN         q      C6AA      α(0)
     1   6 C        2.918    -0.042    29.036     8.836
     2   6 C        2.918    -0.035    28.874     8.812
     3   6 C        2.987     0.011    27.762     8.643
     4   6 C        2.918    -0.035    28.867     8.811
     5   6 C        2.916    -0.028    28.694     8.784
     6   6 C        2.916    -0.027    28.666     8.780
     7   6 C        2.918    -0.034    28.842     8.807
     8   6 C        2.988     0.012    27.740     8.640
     9   6 C        2.923    -0.046    29.134     8.852
    10   6 C        2.970    -0.006    28.173     8.706
    11   6 C        3.819     0.038    19.918     6.352
    12   6 C        3.829     0.048    19.743     6.322
    13   6 C        2.970     0.011    27.776     8.645
    14   6 C        2.923    -0.037    28.911     8.818
    15   6 C        2.987     0.017    27.630     8.622
    16   6 C        2.918    -0.034    28.839     8.806
    17   6 C        2.916    -0.028    28.703     8.785
    18   6 C        2.916    -0.028    28.707     8.786
    19   6 C        2.918    -0.033    28.810     8.802
    20   6 C        2.988     0.016    27.651     8.626
    21   6 C        2.918    -0.030    28.760     8.794
    22   6 C        2.919    -0.030    28.759     8.794
    23   7 N        2.763    -0.116    23.535     7.205
    24   6 C        2.763     0.274    22.376     7.747
    25   6 C        2.978    -0.008    28.203     8.711
    26   6 C        2.922    -0.020    28.501     8.755
    27   6 C        2.921    -0.019    28.490     8.753
    28   6 C        2.920    -0.021    28.520     8.757
    29   6 C        2.978    -0.020    28.489     8.755
    30   6 C        3.337     0.486    17.267     6.579
    31   9 F        0.791    -0.201    11.250     3.962
    32   9 F        0.791    -0.216    11.402     3.989
    33   9 F        0.791    -0.202    11.253     3.963
    34   6 C        2.926    -0.015    28.391     8.738
    35   8 O        0.859    -0.399    21.661     6.240
    36   6 C        3.773     0.093    19.071     6.223
    37   6 C        2.689     0.368    20.765     7.458
    38   8 O        1.659    -0.363    20.140     6.058
    39   8 O        0.856    -0.400    21.678     6.242
    40   7 N        2.763    -0.107    23.345     7.176
    41   6 C        2.777     0.273    22.379     7.748
    42   6 C        2.975    -0.000    28.034     8.685
    43   6 C        2.923    -0.022    28.548     8.762
    44   6 C        2.977    -0.022    28.548     8.764
    45   6 C        3.336     0.486    17.277     6.582
    46   9 F        0.791    -0.206    11.299     3.971
    47   9 F        0.791    -0.208    11.320     3.974
    48   9 F        0.791    -0.203    11.267     3.965
    49   6 C        2.921    -0.020    28.496     8.754
    50   6 C        2.920    -0.020    28.499     8.754
    51   6 C        2.925    -0.011    28.285     8.722
    52   8 O        0.861    -0.424    22.164     6.312
    53   1 H        0.926     0.054     2.265     2.353
    54   1 H        0.926     0.043     2.405     2.425
    55   1 H        0.926     0.037     2.488     2.467
    56   1 H        0.926     0.038     2.480     2.462
    57   1 H        0.926     0.040     2.444     2.444
    58   1 H        0.926     0.041     2.435     2.440
    59   1 H        0.926     0.039     2.467     2.456
    60   1 H        0.923     0.052     2.294     2.369
    61   1 H        0.923     0.063     2.166     2.302
    62   1 H        0.925     0.027     2.635     2.538
    63   1 H        0.926     0.031     2.573     2.508
    64   1 H        0.926     0.034     2.532     2.488
    65   1 H        0.926     0.034     2.524     2.484
    66   1 H        0.926     0.036     2.504     2.474
    67   1 H        0.926     0.042     2.426     2.436
    68   1 H        0.926     0.036     2.498     2.471
    69   1 H        0.926     0.052     2.301     2.372
    70   1 H        0.926     0.061     2.186     2.312
    71   1 H        0.926     0.069     2.098     2.265
    72   1 H        0.926     0.065     2.144     2.289
    73   1 H        0.923     0.069     2.097     2.265
    74   1 H        0.804     0.353     0.581     1.197
    75   1 H        0.926     0.060     2.203     2.321
    76   1 H        0.926     0.067     2.116     2.275
    77   1 H        0.926     0.064     2.154     2.295
    78   1 H        0.926     0.074     2.041     2.234

 Mol. C6AA /au·bohr⁶  :      85664.691505
 Mol. C8AA /au·bohr⁸  :    2111161.062071
 Mol. α(0) /au        :        459.070894


Wiberg/Mayer (AO) data.
largest (>0.10) Wiberg bond orders for each atom

 ---------------------------------------------------------------------------
     #   Z sym  total        # sym  WBO       # sym  WBO       # sym  WBO
 ---------------------------------------------------------------------------
     1   6 C    3.989 --     2 C    1.565    10 C    1.290    53 H    0.963
     2   6 C    3.991 --     1 C    1.565     3 C    1.274    54 H    0.967
                             9 C    0.112
     3   6 C    3.990 --     4 C    1.283     2 C    1.274     8 C    1.250
     4   6 C    3.991 --     5 C    1.554     3 C    1.283    55 H    0.968
                             7 C    0.118
     5   6 C    3.989 --     4 C    1.554     6 C    1.322    56 H    0.971
     6   6 C    3.992 --     7 C    1.556     5 C    1.322    57 H    0.970
     7   6 C    3.989 --     6 C    1.556     8 C    1.280    58 H    0.968
                             4 C    0.118
     8   6 C    3.990 --     9 C    1.280     7 C    1.280     3 C    1.250
     9   6 C    3.989 --    10 C    1.526     8 C    1.280    59 H    0.965
                             2 C    0.112
    10   6 C    3.984 --     9 C    1.526     1 C    1.290    11 C    0.992
    11   6 C    3.958 --    10 C    0.992    40 N    0.954    60 H    0.953
                            12 C    0.950
    12   6 C    3.956 --    13 C    0.991    23 N    0.953    61 H    0.951
                            11 C    0.950
    13   6 C    3.983 --    14 C    1.521    22 C    1.298    12 C    0.991
    14   6 C    3.990 --    13 C    1.521    15 C    1.285    62 H    0.966
                            21 C    0.116
    15   6 C    3.990 --    14 C    1.285    16 C    1.278    20 C    1.249
    16   6 C    3.990 --    17 C    1.559    15 C    1.278    63 H    0.968
                            19 C    0.118
    17   6 C    3.992 --    16 C    1.559    18 C    1.320    64 H    0.971
    18   6 C    3.990 --    19 C    1.557    17 C    1.320    65 H    0.971
    19   6 C    3.992 --    18 C    1.557    20 C    1.281    66 H    0.968
                            16 C    0.118
    20   6 C    3.990 --    19 C    1.281    21 C    1.279    15 C    1.249
    21   6 C    3.991 --    22 C    1.560    20 C    1.279    67 H    0.967
                            14 C    0.116
    22   6 C    3.990 --    21 C    1.560    13 C    1.298    68 H    0.968
    23   7 N    3.458 --    24 C    1.203    36 C    0.986    12 C    0.953
                            35 O    0.193
    24   6 C    3.951 --    35 O    1.712    23 N    1.203    25 C    0.953
    25   6 C    3.987 --    34 C    1.416    26 C    1.402    24 C    0.953
                            28 C    0.109
    26   6 C    3.990 --    27 C    1.447    25 C    1.402    69 H    0.968
                            29 C    0.107
    27   6 C    3.990 --    26 C    1.447    28 C    1.435    70 H    0.968
                            34 C    0.112
    28   6 C    3.987 --    27 C    1.435    29 C    1.418    71 H    0.966
                            25 C    0.109
    29   6 C    3.975 --    28 C    1.418    34 C    1.410    30 C    0.951
                            26 C    0.107
    30   6 C    3.825 --    31 F    0.955    33 F    0.951    29 C    0.951
                            32 F    0.932
    31   9 F    1.078 --    30 C    0.955
    32   9 F    1.060 --    30 C    0.932
    33   9 F    1.078 --    30 C    0.951
    34   6 C    3.989 --    25 C    1.416    29 C    1.410    72 H    0.966
                            27 C    0.112
    35   8 O    2.043 --    24 C    1.712    23 N    0.193
    36   6 C    3.964 --    23 N    0.986    40 N    0.977    73 H    0.947
                            37 C    0.901
    37   6 C    3.923 --    39 O    1.754    38 O    1.162    36 C    0.901
    38   8 O    2.219 --    37 C    1.162    74 H    0.849    39 O    0.175
    39   8 O    2.048 --    37 C    1.754    38 O    0.175
    40   7 N    3.472 --    41 C    1.231    36 C    0.977    11 C    0.954
                            52 O    0.189
    41   6 C    3.948 --    52 O    1.643    40 N    1.231    42 C    0.982
    42   6 C    3.989 --    43 C    1.403    51 C    1.397    41 C    0.982
                            49 C    0.106
    43   6 C    3.989 --    44 C    1.419    42 C    1.403    75 H    0.965
                            50 C    0.109
    44   6 C    3.975 --    43 C    1.419    49 C    1.409    45 C    0.951
                            51 C    0.104
    45   6 C    3.826 --    48 F    0.952    44 C    0.951    47 F    0.945
                            46 F    0.942
    46   9 F    1.072 --    45 C    0.942
    47   9 F    1.069 --    45 C    0.945
    48   9 F    1.076 --    45 C    0.952
    49   6 C    3.987 --    50 C    1.438    44 C    1.409    76 H    0.966
                            42 C    0.106
    50   6 C    3.989 --    51 C    1.445    49 C    1.438    77 H    0.967
                            43 C    0.109
    51   6 C    3.986 --    50 C    1.445    42 C    1.397    78 H    0.965
                            44 C    0.104
    52   8 O    2.042 --    41 C    1.643    40 N    0.189
    53   1 H    0.997 --     1 C    0.963
    54   1 H    0.997 --     2 C    0.967
    55   1 H    0.998 --     4 C    0.968
    56   1 H    0.998 --     5 C    0.971
    57   1 H    0.998 --     6 C    0.970
    58   1 H    0.998 --     7 C    0.968
    59   1 H    0.998 --     9 C    0.965
    60   1 H    0.997 --    11 C    0.953
    61   1 H    0.995 --    12 C    0.951
    62   1 H    0.999 --    14 C    0.966
    63   1 H    0.999 --    16 C    0.968
    64   1 H    0.998 --    17 C    0.971
    65   1 H    0.998 --    18 C    0.971
    66   1 H    0.998 --    19 C    0.968
    67   1 H    0.997 --    21 C    0.967
    68   1 H    0.998 --    22 C    0.968
    69   1 H    0.997 --    26 C    0.968
    70   1 H    0.995 --    27 C    0.968
    71   1 H    0.995 --    28 C    0.966
    72   1 H    0.996 --    34 C    0.966
    73   1 H    0.994 --    36 C    0.947
    74   1 H    0.875 --    38 O    0.849
    75   1 H    0.996 --    43 C    0.965
    76   1 H    0.995 --    49 C    0.966
    77   1 H    0.995 --    50 C    0.967
    78   1 H    0.994 --    51 C    0.965
 ---------------------------------------------------------------------------

Topologies differ in total number of bonds
Writing topology from bond orders to xtbtopo.mol

molecular dipole:
                 x           y           z       tot (Debye)
 q only:        0.259       1.325       1.086
   full:        0.383       1.050       1.154       4.083
molecular quadrupole (traceless):
                xx          xy          yy          xz          yz          zz
 q only:       28.327       8.052      -0.864     -21.914     -34.117     -27.463
  q+dip:       24.372       9.569       0.921     -33.713     -30.846     -25.292
   full:       26.051       8.660      -1.024     -26.034     -32.519     -25.027

           -------------------------------------------------
          |                Geometry Summary                 |
           -------------------------------------------------

      molecular mass/u    :      712.6373406
   center of mass at/Å    :        0.0957482      -0.4261183      -0.0351222
  moments of inertia/u·Å² :        0.6781415E+04   0.1321370E+05   0.1663986E+05
rotational constants/cm⁻¹ :        0.2485857E-02   0.1275769E-02   0.1013088E-02

 * 77 selected distances

     #   Z          #   Z                                           value/Å
     1   6 C        2   6 C                                       1.3647471
     2   6 C        3   6 C                                       1.4111556
     3   6 C        4   6 C                                       1.4096352
     4   6 C        5   6 C                                       1.3671978
     5   6 C        6   6 C                                       1.4037827
     6   6 C        7   6 C                                       1.3666468
     3   6 C        8   6 C                                       1.4191287
     7   6 C        8   6 C                                       1.4100225
     8   6 C        9   6 C                                       1.4088465
     1   6 C       10   6 C                                       1.4097341
     9   6 C       10   6 C                                       1.3691272
    11   6 C       12   6 C                                       1.5443467 (max)
    13   6 C       14   6 C                                       1.3704923
    14   6 C       15   6 C                                       1.4080424
    15   6 C       16   6 C                                       1.4107250
    16   6 C       17   6 C                                       1.3663996
    17   6 C       18   6 C                                       1.4039868
    18   6 C       19   6 C                                       1.3666790
    15   6 C       20   6 C                                       1.4193744
    19   6 C       20   6 C                                       1.4102102
    20   6 C       21   6 C                                       1.4100145
    13   6 C       22   6 C                                       1.4061434
    21   6 C       22   6 C                                       1.3652684
    12   6 C       23   7 N                                       1.4579086
    23   7 N       24   6 C                                       1.3602291
    25   6 C       26   6 C                                       1.3899190
    26   6 C       27   6 C                                       1.3834074
    27   6 C       28   6 C                                       1.3843660
    28   6 C       29   6 C                                       1.3867310
    30   6 C       31   9 F                                       1.3380500
    30   6 C       32   9 F                                       1.3524701
    30   6 C       33   9 F                                       1.3405190
    25   6 C       34   6 C                                       1.3856705
    29   6 C       34   6 C                                       1.3884311
    24   6 C       35   8 O                                       1.2093418
    23   7 N       36   6 C                                       1.4413971
    37   6 C       38   8 O                                       1.3242705
    37   6 C       39   8 O                                       1.2005969
    11   6 C       40   7 N                                       1.4568252
    36   6 C       40   7 N                                       1.4509820
    40   7 N       41   6 C                                       1.3539147
    42   6 C       43   6 C                                       1.3875490
    43   6 C       44   6 C                                       1.3870525
    45   6 C       46   9 F                                       1.3464518
    45   6 C       47   9 F                                       1.3444002
    45   6 C       48   9 F                                       1.3397684
    44   6 C       49   6 C                                       1.3882615
    49   6 C       50   6 C                                       1.3837842
    42   6 C       51   6 C                                       1.3910181
    50   6 C       51   6 C                                       1.3827795
    41   6 C       52   8 O                                       1.2207669
     1   6 C       53   1 H                                       1.0808050
     2   6 C       54   1 H                                       1.0801396
     4   6 C       55   1 H                                       1.0805286
     5   6 C       56   1 H                                       1.0800071
     6   6 C       57   1 H                                       1.0795912
     7   6 C       58   1 H                                       1.0801242
     9   6 C       59   1 H                                       1.0809320
    11   6 C       60   1 H                                       1.0992971
    12   6 C       61   1 H                                       1.0979568
    14   6 C       62   1 H                                       1.0818711
    16   6 C       63   1 H                                       1.0809486
    17   6 C       64   1 H                                       1.0801783
    18   6 C       65   1 H                                       1.0800845
    19   6 C       66   1 H                                       1.0806001
    21   6 C       67   1 H                                       1.0803177
    22   6 C       68   1 H                                       1.0799395
    26   6 C       69   1 H                                       1.0800984
    27   6 C       70   1 H                                       1.0789077
    28   6 C       71   1 H                                       1.0788379
    34   6 C       72   1 H                                       1.0798712
    36   6 C       73   1 H                                       1.0996851
    38   8 O       74   1 H                                       0.9721401 (min)
    43   6 C       75   1 H                                       1.0789956
    49   6 C       76   1 H                                       1.0788714
    50   6 C       77   1 H                                       1.0785055
    51   6 C       78   1 H                                       1.0790154

 * 6 distinct bonds (by element types)

   Z      Z             #   av. dist./Å        max./Å        min./Å
   1 H    6 C          25     1.0822444     1.0996851     1.0785055
   6 C    6 C          35     1.3960193     1.5443467     1.3647471
   6 C    7 N           6     1.4202094     1.4579086     1.3539147
   1 H    8 O           1     0.9721401     0.9721401     0.9721401
   6 C    8 O           4     1.2387440     1.3242705     1.2005969
   6 C    9 F           6     1.3436099     1.3524701     1.3380500


optimized geometry written to: xtbopt.xyz


           -------------------------------------------------
          | TOTAL ENERGY             -149.513661390821 Eh   |
          | GRADIENT NORM               0.000970331244 Eh/α |
          | HOMO-LUMO GAP               2.616115475772 eV   |
           -------------------------------------------------

------------------------------------------------------------------------
 * finished run on 2022/03/16 at 21:46:16.564     
------------------------------------------------------------------------
 total:
 * wall-time:     0 d,  0 h,  0 min, 57.321 sec
 *  cpu-time:     0 d,  0 h, 18 min,  4.679 sec
 * ratio c/w:    18.923 speedup
 SCF:
 * wall-time:     0 d,  0 h,  0 min,  0.660 sec
 *  cpu-time:     0 d,  0 h,  0 min, 10.069 sec
 * ratio c/w:    15.265 speedup
 ANC optimizer:
 * wall-time:     0 d,  0 h,  0 min, 56.518 sec
 *  cpu-time:     0 d,  0 h, 17 min, 50.551 sec
 * ratio c/w:    18.942 speedup

