78
 energy: -114.951830341878 gnorm: 0.087061182387 xtb: 6.3.3 (4ae9cef)
C         1.54739300000000   -1.93754800000000    1.01991600000000
O         1.32936400000000   -0.89136200000000    1.88103800000000
C         2.34263900000000   -0.72003300000000    2.87091400000000
C         2.05435800000000   -3.17073300000000    1.45078200000000
C         2.23433500000000   -4.21512400000000    0.54323200000000
C         1.89944100000000   -4.03997500000000   -0.79531200000000
C         1.37209500000000   -2.82258900000000   -1.22643300000000
C         1.18682600000000   -1.75401900000000   -0.32820700000000
C         0.58838600000000   -0.45906200000000   -0.86499300000000
C        -0.83015800000000   -0.21908600000000   -0.28092700000000
C        -1.92211700000000   -0.67711200000000   -1.23739000000000
C        -2.26516000000000    0.08658800000000   -2.36631200000000
C        -3.25122600000000   -0.34555000000000   -3.25122100000000
C        -3.90860800000000   -1.54998800000000   -3.02319000000000
C        -3.57731000000000   -2.32763500000000   -1.91245100000000
C        -2.58537300000000   -1.90494800000000   -1.02186400000000
O        -2.19087200000000   -2.61077000000000    0.08275800000000
C        -2.83437600000000   -3.85042000000000    0.34819300000000
N        -0.86255200000000    1.20951500000000    0.05879400000000
C        -1.79561300000000    1.84692500000000    0.84755800000000
C        -3.08276600000000    1.09550200000000    1.15748500000000
C        -3.95749100000000    1.82190600000000    2.18004900000000
C        -5.32193100000000    1.15733200000000    2.38879900000000
C        -5.23631600000000   -0.27168100000000    2.92611300000000
C        -6.61906800000000   -0.84406000000000    3.20819700000000
O        -1.59721700000000    2.99192300000000    1.25644800000000
C         0.44994600000000    1.81938100000000   -0.09629700000000
C         0.31899200000000    2.91120300000000   -1.19329700000000
O         0.68346700000000    4.14114200000000   -0.76524200000000
O        -0.04686700000000    2.75774600000000   -2.35088500000000
N         1.34030700000000    0.75312600000000   -0.53249800000000
C         2.68995900000000    0.87442100000000   -0.77639800000000
C         3.38582900000000    2.08862800000000   -0.17447400000000
C         4.89143900000000    2.13224100000000   -0.45617300000000
C         5.19610000000000    2.58449800000000   -1.88932000000000
C         6.69316200000000    2.72270300000000   -2.17589600000000
C         7.44172900000000    1.39807200000000   -2.13862900000000
O         3.31682700000000    0.02910700000000   -1.41245200000000
H         3.34879600000000   -0.83751200000000    2.45215200000000
H         2.18287900000000   -1.40436300000000    3.70933700000000
H         2.25867400000000    0.30100100000000    3.25364300000000
H         2.30021600000000   -3.34623900000000    2.49289400000000
H         2.64194000000000   -5.16585500000000    0.87853700000000
H         2.04805800000000   -4.84911100000000   -1.50545800000000
H         1.11825700000000   -2.70490200000000   -2.27816800000000
H         0.56761900000000   -0.48938600000000   -1.96220500000000
H        -0.95262900000000   -0.72517400000000    0.68261000000000
H        -1.76677300000000    1.03037300000000   -2.57074800000000
H        -3.50313800000000    0.25644800000000   -4.12351400000000
H        -4.67965700000000   -1.88571900000000   -3.71269400000000
H        -4.11126900000000   -3.26125500000000   -1.77176100000000
H        -2.39137000000000   -4.26529000000000    1.25959100000000
H        -3.90395200000000   -3.70905700000000    0.53394200000000
H        -2.66555800000000   -4.56869100000000   -0.46148000000000
H        -2.82436100000000    0.10801900000000    1.54529100000000
H        -3.64446700000000    0.98589700000000    0.22391200000000
H        -4.12966700000000    2.85488700000000    1.85505800000000
H        -3.42646800000000    1.88557000000000    3.13659400000000
H        -5.89499000000000    1.76923700000000    3.09552900000000
H        -5.87933300000000    1.16269600000000    1.44358200000000
H        -4.64933200000000   -0.28778600000000    3.85251100000000
H        -4.73053300000000   -0.92432900000000    2.20549200000000
H        -6.53138900000000   -1.88101000000000    3.55074600000000
H        -7.24117800000000   -0.83115200000000    2.30745900000000
H        -7.13008700000000   -0.27240400000000    3.98851700000000
H         0.80612000000000    2.25009100000000    0.84548500000000
H         0.48558100000000    4.73035800000000   -1.52271600000000
H         3.23988600000000    2.03966000000000    0.91194100000000
H         2.92743900000000    3.00666900000000   -0.54292300000000
H         5.33904500000000    1.15173900000000   -0.25699800000000
H         5.35341900000000    2.84158100000000    0.24226400000000
H         4.75250900000000    1.89044300000000   -2.61361500000000
H         4.72294700000000    3.55981200000000   -2.06145300000000
H         6.81595000000000    3.16337800000000   -3.17294800000000
H         7.14725800000000    3.42240300000000   -1.46458200000000
H         7.47869300000000    0.98812400000000   -1.12583100000000
H         8.47423100000000    1.53826800000000   -2.47508200000000
H         6.96906000000000    0.66231800000000   -2.79532500000000
78
 energy: -114.962926654902 gnorm: 0.029354534508 xtb: 6.3.3 (4ae9cef)
C         1.54459942587370   -1.92822361933525    1.00111516014325
O         1.35398123771808   -0.87178672978637    1.85849661068441
C         2.33698140403872   -0.71351177317142    2.87034435219220
C         2.04978889078910   -3.15482997718176    1.43153694448943
C         2.22595199978991   -4.19598114401327    0.53545853416550
C         1.88996284097851   -4.02474589594312   -0.79567516877566
C         1.36929931832583   -2.81404669180119   -1.22436383002287
C         1.19029631203313   -1.74964536310544   -0.34391796484047
C         0.58144984894403   -0.46062647343021   -0.86317982507150
C        -0.83245772042930   -0.22522566250936   -0.27449030251736
C        -1.91973134257881   -0.67102137451008   -1.23341634281129
C        -2.25796456747018    0.08575729792830   -2.35150277283682
C        -3.23826771562352   -0.34279678246469   -3.23508803674190
C        -3.89262492402508   -1.54097810529436   -3.00963059296263
C        -3.56478467560939   -2.31625715661499   -1.90759244508509
C        -2.57844877682393   -1.89645253851571   -1.01862374049277
O        -2.19392219062002   -2.60530496984732    0.08605258241546
C        -2.83146363061038   -3.84086895946458    0.34667329466205
N        -0.85729269578904    1.20011288764718    0.06542913532231
C        -1.78675086871872    1.84086754959563    0.84222453308792
C        -3.07106189511173    1.08922574556589    1.14808287018165
C        -3.94473527446047    1.81999261584772    2.17144796894350
C        -5.30873250538260    1.15566495732034    2.38262463804368
C        -5.23522818855619   -0.27084173426354    2.92363280509462
C        -6.61740554976630   -0.84592753638918    3.20960118927261
O        -1.58042400685960    2.97488948385169    1.23504540246019
C         0.44873911133262    1.81630992338519   -0.09988143427339
C         0.33123402918591    2.89985225482453   -1.18931374341280
O         0.68495924561268    4.12285070942650   -0.76754756524592
O        -0.05313428134708    2.72061432742209   -2.31630050851516
N         1.33463792764128    0.74677347643008   -0.51128535285396
C         2.67532404279909    0.86432785619767   -0.76545865832716
C         3.37025501778565    2.08378825901453   -0.17193483015828
C         4.87543052026987    2.13173183499238   -0.46290863957256
C         5.19132521895979    2.58203962684422   -1.88895690739844
C         6.68810085897316    2.71989930419090   -2.17578492080456
C         7.44215173537443    1.39763527152158   -2.13684644090609
O         3.28104004998774    0.00340789306769   -1.37418740832343
H         3.34084848383422   -0.85103876406993    2.45956461400278
H         2.17579272959801   -1.40449901290010    3.70244805492042
H         2.24171233626187    0.30784185145112    3.24370408825897
H         2.30584072174537   -3.31548826439178    2.46981265091995
H         2.62926200518328   -5.14091596531888    0.87704149302522
H         2.03827729446513   -4.83141846898681   -1.50082263703318
H         1.11320694631119   -2.69198092979765   -2.26750177154845
H         0.53577817163456   -0.51605492497515   -1.95918310100646
H        -0.93579180698281   -0.78240278522247    0.66508592791325
H        -1.75320830994513    1.02252658868225   -2.54386833487351
H        -3.48912530500882    0.25645598399389   -4.10063857194099
H        -4.66013017375135   -1.87906093278229   -3.69395377536111
H        -4.09270346913246   -3.24777940358697   -1.76255279766391
H        -2.37464942943324   -4.23697746126135    1.25559370122998
H        -3.90337333842377   -3.70634886362629    0.52059239398877
H        -2.66775467598182   -4.55427436268890   -0.46600245984874
H        -2.81485269388751    0.09888920447469    1.52638131100732
H        -3.62651121539868    0.96818997933382    0.21436960299863
H        -4.10580622577842    2.84896147959303    1.83895609100591
H        -3.41580247879039    1.87585514730413    3.12648359673512
H        -5.88138497466621    1.76434183304440    3.08918554928433
H        -5.86300374227223    1.15312259418239    1.43898921661431
H        -4.64624904601074   -0.27954918188210    3.84526617887032
H        -4.72982179761886   -0.91648570630978    2.20113329727116
H        -6.53890320853183   -1.87787737343003    3.55232550266073
H        -7.23467069232520   -0.83056982169988    2.31190589181629
H        -7.12621413387919   -0.26985138260778    3.98145650765703
H         0.78625488629603    2.28540547562888    0.83353096218071
H         0.49240495761682    4.73608373201097   -1.50172993926792
H         3.21774965513715    2.04350937847960    0.91160845301118
H         2.90839887885967    3.00037533806360   -0.54003617943852
H         5.31110078843922    1.14761382867881   -0.27892162275397
H         5.33965763778462    2.83758038470361    0.23447651442837
H         4.75218866603919    1.87453996681683   -2.59638176589804
H         4.71763401532642    3.55551001212891   -2.05772188176799
H         6.80791295262015    3.16053204047312   -3.17064182311353
H         7.13661289628116    3.41542518664472   -1.45966290231734
H         7.47252462561093    0.98829844412130   -1.12893623147386
H         8.47026958582054    1.53734309190487   -2.47254959455744
H         6.96544925632232    0.66750427639093   -2.78868379914444
78
 energy: -114.966810732565 gnorm: 0.014512119531 xtb: 6.3.3 (4ae9cef)
C         1.55065130634327   -1.90855174688201    0.97941401535889
O         1.37944641041397   -0.84190348869597    1.82840455175048
C         2.32910288857841   -0.70388296830700    2.86694669007917
C         2.05602037857672   -3.12972449736147    1.41194228708544
C         2.21850478897634   -4.17655737757003    0.52566103731540
C         1.87896874697133   -4.01233884891221   -0.80296871173794
C         1.36150710173481   -2.80473392773342   -1.23203525276905
C         1.18981594437001   -1.74117666219475   -0.36293498281673
C         0.57744541105932   -0.45674603498307   -0.86755630015958
C        -0.82892642198749   -0.23127297492681   -0.26361633144911
C        -1.91396018026254   -0.66272943995731   -1.22278758674569
C        -2.24518545726845    0.09290995262646   -2.33397786230714
C        -3.22257478237833   -0.33094312757665   -3.21956088136186
C        -3.87506082094779   -1.52734460522706   -2.99735029677853
C        -3.55188918481131   -2.30385609941180   -1.89911848643513
C        -2.57133611690041   -1.88573566612815   -1.00794906039228
O        -2.19468145175015   -2.59708994401325    0.09636231019326
C        -2.82525486166322   -3.83089004966105    0.34900010484520
N        -0.85016845808036    1.18500988008930    0.08025321773607
C        -1.78009724404914    1.83317451781544    0.84097385667776
C        -3.05756075070704    1.07251521962693    1.13823476802729
C        -3.92967661882909    1.80731356069765    2.16017042154717
C        -5.29753617816620    1.15276256068273    2.37037288863372
C        -5.22504674270076   -0.27171660222279    2.91854854665476
C        -6.61079647056694   -0.83978836693501    3.20698904703403
O        -1.57251381967103    2.96742608251507    1.21668146237844
C         0.44798750379062    1.80877457648808   -0.09541283552811
C         0.31747841116414    2.88276465969945   -1.18649109955300
O         0.69169527058346    4.09184983916005   -0.77100845617433
O        -0.07159117196231    2.67442347772988   -2.30053227761968
N         1.33062442812105    0.73973732223582   -0.49029211959430
C         2.66719345672134    0.84563192327323   -0.74754870962353
C         3.35249558025100    2.07976350717705   -0.17270797138680
C         4.85795925928965    2.12432789462455   -0.46428984733984
C         5.17346416085456    2.57230794958139   -1.89008651302737
C         6.67173580810952    2.71598263800264   -2.16979274621268
C         7.43173648083459    1.39535179161489   -2.13216201168951
O         3.26033886026201   -0.03364756006702   -1.33244911483860
H         3.34102872593162   -0.85546697378929    2.48082789314404
H         2.14902255845096   -1.39902929982504    3.69272682781328
H         2.22356685862224    0.31547700938876    3.23581323171785
H         2.31865233140898   -3.27410854265435    2.44902738447916
H         2.61651004039025   -5.11757758027832    0.87563037390774
H         2.02231822765245   -4.82021292833540   -1.50333795223872
H         1.10163816447421   -2.67786414263520   -2.27063009180155
H         0.51442915347985   -0.51676506032730   -1.96285131380797
H        -0.92001884762981   -0.82454508138186    0.65692516759661
H        -1.73206469862544    1.02532093514676   -2.51168884576019
H        -3.47091599056210    0.26852993086139   -4.08055194385102
H        -4.63970831392063   -1.86782266124907   -3.67925081688304
H        -4.07307272515548   -3.23603135784488   -1.75105837378203
H        -2.36020725220408   -4.21416519162813    1.25569807736034
H        -3.89992701417601   -3.70546945993713    0.51516635220057
H        -2.66199741801566   -4.54061832476796   -0.46671058964247
H        -2.79839156980559    0.08052230752037    1.50922232177540
H        -3.60648598800360    0.94536990464144    0.20201856386135
H        -4.07823652819251    2.83365326656844    1.82024028788412
H        -3.39924757615465    1.85758803727825    3.11282859638530
H        -5.86674202620489    1.76602577950301    3.07394577109421
H        -5.84611962832152    1.14502960751975    1.42532195452309
H        -4.63609260433791   -0.27521494480553    3.83840946333692
H        -4.72313610217017   -0.91786464656875    2.19649372085777
H        -6.53761469992384   -1.86759802875437    3.55419770786486
H        -7.22469827560443   -0.82576595762842    2.30949845097075
H        -7.11639096146380   -0.25673254182121    3.97297746570078
H         0.76612867033225    2.30518661095857    0.83533687031033
H         0.51449648857506    4.73858541770265   -1.47776404265220
H         3.19555164103015    2.05011803956521    0.90918733354544
H         2.88249503499106    2.99035006066767   -0.54729690679704
H         5.27958999436429    1.13441398517601   -0.29149465077421
H         5.32333237353361    2.82453982510025    0.23560931550331
H         4.74276130459079    1.85509426020800   -2.58949392783091
H         4.70108267608136    3.54396656259158   -2.06380447611625
H         6.79111469218491    3.15757353163015   -3.16247901147353
H         7.11426234536830    3.40930570401089   -1.44921693310380
H         7.45935495752750    0.98686147845778   -1.12640130960934
H         8.45694555576934    1.54034405795962   -2.46623534231994
H         6.95646996140939    0.66760004690189   -2.78416135316528
78
 energy: -114.968405116042 gnorm: 0.010413152497 xtb: 6.3.3 (4ae9cef)
C         1.56610848991295   -1.88789900834406    0.95872460099386
O         1.40375861272468   -0.81210099809863    1.79632389143735
C         2.31940300439980   -0.69155129108626    2.86481601817804
C         2.07095607214910   -3.10641497733522    1.39465192265768
C         2.21653513126020   -4.16209083209301    0.51466070581645
C         1.86726923923633   -4.00777204054173   -0.81304068830938
C         1.35243087044414   -2.80032797468583   -1.24597606256060
C         1.19236643046302   -1.73307407297521   -0.38160436225259
C         0.57623312638298   -0.45107922390369   -0.87379526535990
C        -0.82278696154286   -0.23593645969296   -0.25296211227373
C        -1.90946322400197   -0.65691164502335   -1.20967444205562
C        -2.23411625707190    0.10380226485088   -2.31778026539288
C        -3.20976078088742   -0.31530160593566   -3.20721177340726
C        -3.86206787662382   -1.51258597409434   -2.98936709006671
C        -3.54414018906759   -2.29368857281662   -1.89221973730923
C        -2.56762926271396   -1.87821554203902   -0.99644658228968
O        -2.19578028129440   -2.58911575482100    0.10908447165010
C        -2.81821009560699   -3.82513502512572    0.35569343887417
N        -0.84133497991761    1.17199649413752    0.09691915231408
C        -1.77633590112663    1.82754658832666    0.83942093898800
C        -3.04569315326869    1.05694322757389    1.13173194619564
C        -3.91601231901975    1.79527484795612    2.14999496624344
C        -5.28606136459482    1.14821490481043    2.35679036255804
C        -5.21601191480562   -0.27386146277704    2.91198092358640
C        -6.60415103795938   -0.83479513266560    3.20388056192639
O        -1.57502543862967    2.96918668669266    1.19918333090941
C         0.45066317387721    1.80256325822005   -0.08919534932318
C         0.31642315656737    2.86706921775401   -1.19122973669104
O         0.69674504865650    4.06959887044150   -0.77854295642774
O        -0.10180151372797    2.64288010200063   -2.29348279809773
N         1.32888687527372    0.73561003318955   -0.47967503653443
C         2.66529835086010    0.82922075541433   -0.73086483828377
C         3.33933280317930    2.07350517176440   -0.16952386687933
C         4.84327042930967    2.11455892156733   -0.46135398818823
C         5.15395367032295    2.55982039649280   -1.88890058731849
C         6.65227352450037    2.71165640904615   -2.16512271388848
C         7.41676091020505    1.39276204379116   -2.12638136335184
O         3.25872113672238   -0.06816614593086   -1.28886283631892
H         3.34441703243330   -0.85248110557572    2.51315667193687
H         2.10648171418375   -1.38953521594310    3.68243640342477
H         2.20899775824009    0.32621049032045    3.23422564656743
H         2.34348820399028   -3.23794853272860    2.43053485713543
H         2.61005257099363   -5.10160414776775    0.87174429301153
H         2.00077840420753   -4.82065688801758   -1.50883728905822
H         1.08306078584107   -2.67310175648232   -2.28254335796529
H         0.50250557310081   -0.49934966763863   -1.96875363267502
H        -0.90478959082811   -0.84484756723275    0.65730041670281
H        -1.71288015944939    1.03365248388459   -2.48487995488727
H        -3.45429431488258    0.28733118647186   -4.06629056601725
H        -4.62385721715190   -1.85344528001733   -3.67343227806052
H        -4.06249077930579   -3.22693243660603   -1.74503580416935
H        -2.35124475864854   -4.20447111859066    1.26176617791957
H        -3.89510512818752   -3.70871114860512    0.51809518958485
H        -2.64965218520829   -4.53184432816715   -0.46220226307347
H        -2.78008064196579    0.06572952722854    1.50050526828027
H        -3.58976664968592    0.92620715903798    0.19293381862425
H        -4.05330214638851    2.82132062045444    1.80555070884059
H        -3.38489426595116    1.84102426748632    3.10204515399118
H        -5.85514513790260    1.76664285075800    3.05506573135260
H        -5.82874584808150    1.13604408671280    1.40896007218244
H        -4.62652982430477   -0.27283596863946    3.83100289257045
H        -4.71637709313822   -0.92366607776618    2.19221620351814
H        -6.53651165026946   -1.86006806011686    3.55912944103496
H        -7.21566432636470   -0.82309794181350    2.30486731611857
H        -7.10632813289471   -0.24163750551236    3.96433279710353
H         0.76178630873423    2.31020995132562    0.83869451066871
H         0.52184585467187    4.74076219150431   -1.46193870346868
H         3.17582149453260    2.05666569624551    0.91172866879189
H         2.86318687613205    2.97464650418786   -0.55873112759100
H         5.25494260807804    1.11988883135670   -0.29530925334920
H         5.31377387426161    2.80992297007311    0.23841250564808
H         4.72987606749330    1.83502046812996   -2.58393612677528
H         4.67609816628679    3.52718510533661   -2.06861905717570
H         6.77301753347871    3.15590610140115   -3.15603378607645
H         7.08768821439478    3.40394705576666   -1.43976217976106
H         7.44216828296586    0.98414320199591   -1.12076921543903
H         8.44172207030455    1.54268508457899   -2.45772565826219
H         6.94494195169800    0.66490345891943   -2.78054627095212
78
 energy: -114.969340428234 gnorm: 0.008952944800 xtb: 6.3.3 (4ae9cef)
C         1.58853573816708   -1.86942166468491    0.93766796402739
O         1.43061852464268   -0.78453516396311    1.76185515643857
C         2.30689442702193   -0.67801998044768    2.86438054263459
C         2.09564348427482   -3.08545400324373    1.37652219529603
C         2.22094797973859   -4.15025376298511    0.50175407807554
C         1.85409221967730   -4.00817762185085   -0.82337494932913
C         1.34018393289566   -2.80096136316609   -1.26135373921697
C         1.19698225702413   -1.72772852042311   -0.40023892488774
C         0.57796609538480   -0.44602231411413   -0.88205692082234
C        -0.81434042749432   -0.23942505642603   -0.24548069624973
C        -1.90600353349309   -0.65371813004663   -1.19688804239431
C        -2.22529105558653    0.11423078047384   -2.30292557213509
C        -3.19993720213923   -0.29981111343337   -3.19570047091065
C        -3.85280075284762   -1.49845608757315   -2.98295406855058
C        -3.54082298167037   -2.28479902631518   -1.88621499423330
C        -2.56712344650307   -1.87282619064530   -0.98525140945964
O        -2.19875005638261   -2.58118077809266    0.12292937810319
C        -2.81128719633663   -3.82242270221150    0.36461427856115
N        -0.83017227540585    1.16205551722703    0.11251939265718
C        -1.77408887002968    1.82428691447844    0.83358044014812
C        -3.03471469931391    1.04443148594925    1.12794413813504
C        -3.90503795933863    1.78359011298107    2.14231847654244
C        -5.27650956977726    1.14217681930687    2.34241293645010
C        -5.20783725316896   -0.27699705678573    2.90474084215372
C        -6.59786735619052   -0.83014012026567    3.20029068496113
O        -1.58375837193097    2.97473512419351    1.17770696966338
C         0.45525305728274    1.79876169511517   -0.08607974905744
C         0.30035139982353    2.86157361841931   -1.19201559803420
O         0.70662746217108    4.05613081534996   -0.78896821136168
O        -0.12995290984625    2.62821480890868   -2.28791953401882
N         1.33018573569609    0.73351253840422   -0.47852347883303
C         2.66958225190996    0.81352955508446   -0.70875836978797
C         3.33187670415551    2.06728571792293   -0.16191293802685
C         4.83309184541576    2.10468288918976   -0.45477464795636
C         5.13357026992051    2.54509377237868   -1.88594054498963
C         6.63043985354039    2.70662428739623   -2.16136007954694
C         7.39879670244143    1.39003135777601   -2.12044012078976
O         3.26933967598892   -0.09383890413386   -1.24467196044580
H         3.34593733132082   -0.84588426777482    2.55377087161451
H         2.05275849960339   -1.37798799097381    3.67084338344165
H         2.19277984342585    0.33899065250523    3.23545373599556
H         2.38364868574639   -3.20726149151055    2.40956450900688
H         2.61156241926212   -5.08913572215024    0.86407890129002
H         1.97179039327164   -4.82907033445095   -1.51359687000840
H         1.05599811448474   -2.67724035621280   -2.29569649482774
H         0.49549759174455   -0.47732527292271   -1.97687697021237
H        -0.88676187554434   -0.85391538770478    0.65979740685055
H        -1.69904327015972    1.04306062883008   -2.46152716175139
H        -3.44083630277470    0.30768100225157   -4.05322906354746
H        -4.61181388246304   -1.83764986985498   -3.67146750685662
H        -4.05933799342472   -3.21870927020309   -1.74264760237683
H        -2.34499691199743   -4.20165167177264    1.27129542057652
H        -3.88993298975312   -3.71594400294894    0.52496468707605
H        -2.63358502670527   -4.52600965804069   -0.45469274948293
H        -2.76086101475641    0.05564180996784    1.49750155062363
H        -3.57677708506113    0.90946962524162    0.18827545181907
H        -4.03323263574064    2.81039206944047    1.79628454850415
H        -3.37533678577054    1.82605262172210    3.09556250630217
H        -5.84947683360995    1.76495699656922    3.03338267668746
H        -5.81180987919988    1.12546658614376    1.39024893600792
H        -4.61736249780738   -0.27190825590618    3.82333991467544
H        -4.70967554971617   -0.93200602645680    2.18826640974307
H        -6.53539380198274   -1.85258579638346    3.56615055443281
H        -7.20794255817002   -0.82367000919421    2.29968035380392
H        -7.09753658749715   -0.22606906730098    3.95454031803469
H         0.76699018382637    2.31054769508852    0.83763612327412
H         0.53846488561065    4.74298122496441   -1.45658562176059
H         3.16279197820800    2.06511640108445    0.91885228792647
H         2.85021386958634    2.95742749821764   -0.56886059299022
H         5.23804364694258    1.10652347301823   -0.29230895973923
H         5.31170816224301    2.79666663061739    0.24193378767141
H         4.71461290173216    1.81220087346050   -2.57648196930439
H         4.64540396094227    3.50633643644587   -2.07188618558730
H         6.75191496332584    3.15298632565964   -3.15123752643389
H         7.05912874112284    3.39967071969894   -1.43283354966459
H         7.42137768687676    0.98126850323925   -1.11429044608692
H         8.42488194256558    1.54338400725971   -2.44784369054849
H         6.93152298057534    0.66044542058864   -2.77679282698811
78
 energy: -114.969928564901 gnorm: 0.009525636295 xtb: 6.3.3 (4ae9cef)
C         1.61165646632728   -1.85697325726480    0.91993917429523
O         1.45553264199734   -0.76542213613874    1.73283509198391
C         2.29389224232066   -0.66757089809045    2.86502761476237
C         2.12547737599516   -3.06999414915894    1.35941412911043
C         2.23113814348371   -4.14176340735449    0.48876660293273
C         1.84091636114558   -4.01123098917256   -0.83130249102860
C         1.32612670692249   -2.80459483211291   -1.27286649035605
C         1.20175122385810   -1.72523759312553   -0.41501593979885
C         0.58043505604059   -0.44264541207463   -0.89077933192019
C        -0.80650838938530   -0.24143377369956   -0.24128450921914
C        -1.90415939961659   -0.65266425679622   -1.18680612965309
C        -2.22105207738222    0.12106409983016   -2.29124311331761
C        -3.19551601938893   -0.28897028025485   -3.18567301905308
C        -3.84897549327702   -1.48859565928629   -2.97698409129471
C        -3.54144462413562   -2.27845126177168   -1.88050898097902
C        -2.56886262844734   -1.86960559806516   -0.97602352919740
O        -2.20303121394002   -2.57472187172127    0.13522674945333
C        -2.80622508504308   -3.82217987821471    0.37260747624673
N        -0.81926491941390    1.15737159504133    0.12364219282508
C        -1.77264057008385    1.82470935718514    0.82415743550222
C        -3.02652734419364    1.03814318210737    1.12609751636936
C        -3.89839108021951    1.77630714453292    2.13777246531052
C        -5.27014876593522    1.13610312668130    2.32910715359144
C        -5.20279582842675   -0.28030046073349    2.89788381230151
C        -6.59371013577945   -0.82741452265695    3.19692511725800
O        -1.59413210235426    2.98335706249575    1.15233527028528
C         0.46136030846674    1.79835141643930   -0.08780099069733
C         0.29872234703698    2.86234112823010   -1.19572025160540
O         0.71713981228853    4.05324510909885   -0.79693037434104
O        -0.15565880718501    2.63317924100060   -2.28366710989071
N         1.33295582072882    0.73482607304155   -0.48855769418480
C         2.67702462017991    0.80382647671215   -0.68930828533484
C         3.33083377951377    2.06268015303013   -0.14967060291081
C         4.82930753848321    2.09701086090060   -0.44494856495791
C         5.11769410830674    2.53077234061944   -1.88065037407148
C         6.61165270884312    2.70138064133294   -2.15999319621026
C         7.38284535019824    1.38717886605288   -2.11579823783169
O         3.28682670374699   -0.10915457756447   -1.20530431174276
H         3.34286876956425   -0.83907734709263    2.59192200168412
H         2.00309108077631   -1.36825504095665    3.65884344025657
H         2.17493877169189    0.34942187356286    3.23658980249237
H         2.43345175714224   -3.18612540046153    2.38770936783108
H         2.62374348437084   -5.07962973109577    0.85252404085126
H         1.94040368209026   -4.84044889908681   -1.51581391782849
H         1.02437708463480   -2.68715765416354   -2.30398624169396
H         0.49017878134171   -0.46218846780751   -1.98533150899187
H        -0.86989016770506   -0.85636609455586    0.66323539708068
H        -1.69307854336748    1.04945530383707   -2.44592665089408
H        -3.43410215254788    0.32273816563510   -4.04188485356072
H        -4.60602149640059   -1.82502645045452   -3.66982146605276
H        -4.06232468758443   -3.21216251992575   -1.74090239376985