      -----------------------------------------------------------      
     |                   =====================                   |     
     |                           x T B                           |     
     |                   =====================                   |     
     |                         S. Grimme                         |     
     |          Mulliken Center for Theoretical Chemistry        |     
     |                    University of Bonn                     |     
      -----------------------------------------------------------      

   * xtb version 6.3.3 (4ae9cef) compiled by 'conda@95abc7406d43' on 2020-10-14

   xtb is free software: you can redistribute it and/or modify it under
   the terms of the GNU Lesser General Public License as published by
   the Free Software Foundation, either version 3 of the License, or
   (at your option) any later version.
   
   xtb is distributed in the hope that it will be useful,
   but WITHOUT ANY WARRANTY; without even the implied warranty of
   MERCHANTABILITY or FITNESS FOR A PARTICULAR PURPOSE.  See the
   GNU Lesser General Public License for more details.
   
   Cite this work as:
   * C. Bannwarth, E. Caldeweyher, S. Ehlert, A. Hansen, P. Pracht,
     J. Seibert, S. Spicher, S. Grimme, WIREs Comput. Mol. Sci., 2020,
     e01493. DOI: 10.1002/wcms.1493
   
   for GFN2-xTB:
   * S. Grimme, C. Bannwarth, P. Shushkov, J. Chem. Theory Comput., 2017,
     13, 1989-2009. DOI: 10.1021/acs.jctc.7b00118
   for GFN1-xTB:
   * C. Bannwarth, S. Ehlert and S. Grimme., J. Chem. Theory Comput., 2019,
     15, 1652-1671. DOI: 10.1021/acs.jctc.8b01176
   for GFN0-xTB:
   * P. Pracht, E. Caldeweyher, S. Ehlert, S. Grimme, ChemRxiv, 2019, preprint.
     DOI: 10.26434/chemrxiv.8326202.v1
   for GFN-FF:
   * S. Spicher and S. Grimme, Angew. Chem. Int. Ed., 2020, 59, 15665-15673.
     DOI: 10.1002/anie.202004239
   
   for DFT-D4:
   * E. Caldeweyher, C. Bannwarth and S. Grimme, J. Chem. Phys., 2017,
     147, 034112. DOI: 10.1063/1.4993215
   * E. Caldeweyher, S. Ehlert, A. Hansen, H. Neugebauer, S. Spicher,
     C. Bannwarth and S. Grimme, J. Chem. Phys., 2019, 150, 154122.
     DOI: 10.1063/1.5090222
   * E. Caldeweyher, J.-M. Mewes, S. Ehlert and S. Grimme, Phys. Chem. Chem. Phys.
     2020, 22, 8499-8512. DOI: 10.1039/D0CP00502A
   
   for sTDA-xTB:
   * S. Grimme and C. Bannwarth, J. Chem. Phys., 2016, 145, 054103.
     DOI: 10.1063/1.4959605
   
   in the mass-spec context:
   * V. Asgeirsson, C. Bauer and S. Grimme, Chem. Sci., 2017, 8, 4879.
     DOI: 10.1039/c7sc00601b
   * J. Koopman and S. Grimme, ACS Omega 2019, 4, 12, 15120-15133.
     DOI: 10.1021/acsomega.9b02011
   
   for metadynamics refer to:
   * S. Grimme, J. Chem. Theory Comput., 2019, 155, 2847-2862
     DOI: 10.1021/acs.jctc.9b00143
   
   with help from (in alphabetical order)
   C. Bannwarth, F. Bohle, G. Brandenburg, E. Caldeweyher, M. Checinski,
   S. Dohm, S. Ehlert, S. Ehrlich, F. März, H. Neugebauer, J. Pisarek,
   P. Pracht, P. Shushkov, and S. Spicher.
   
 * started run on 2022/03/16 at 23:03:24.958     

           -------------------------------------------------
          |                Calculation Setup                |
           -------------------------------------------------

          program call               : xtb acid_255.xyz --opt --chrg 0 --uhf 0 --gfn 2
          coordinate file            : acid_255.xyz
          omp threads                :                    64
          number of atoms            :                    74
          number of electrons        :                   214
          charge                     :                     0
          spin                       :                   0.0
          first test random number   :      0.93346972420614

   ID    Z sym.   atoms
    1    6 C      1, 3-16, 18, 20-27, 29, 30, 34-41
    2    8 O      2, 17, 28, 31, 32, 42
    3    7 N      19, 33
    4    1 H      43-74

           -------------------------------------------------
          |                 G F N 2 - x T B                 |
           -------------------------------------------------

        Reference                      10.1021/acs.jctc.8b01176
      * Hamiltonian:
        H0-scaling (s, p, d)           1.850000    2.230000    2.230000
        zeta-weighting                 0.500000
      * Dispersion:
        s8                             2.700000
        a1                             0.520000
        a2                             5.000000
        s9                             5.000000
      * Repulsion:
        kExp                           1.500000    1.000000
        rExp                           1.000000
      * Coulomb:
        alpha                          2.000000
        third order                    shell-resolved
        anisotropic                    true
        a3                             3.000000
        a5                             4.000000
        cn-shift                       1.200000
        cn-exp                         4.000000
        max-rad                        5.000000


          ...................................................
          :                      SETUP                      :
          :.................................................:
          :  # basis functions                 200          :
          :  # atomic orbitals                 200          :
          :  # shells                          116          :
          :  # electrons                       214          :
          :  max. iterations                   250          :
          :  Hamiltonian                  GFN2-xTB          :
          :  restarted?                      false          :
          :  GBSA solvation                  false          :
          :  PC potential                    false          :
          :  electronic temp.          300.0000000     K    :
          :  accuracy                    1.0000000          :
          :  -> integral cutoff          0.2500000E+02      :
          :  -> integral neglect         0.1000000E-07      :
          :  -> SCF convergence          0.1000000E-05 Eh   :
          :  -> wf. convergence          0.1000000E-03 e    :
          :  Broyden damping             0.4000000          :
          ...................................................

 iter      E             dE          RMSdq      gap      omega  full diag
   1   -120.7996411 -0.120800E+03  0.452E+00    3.39       0.0  T
   2   -120.9829699 -0.183329E+00  0.259E+00    3.48       1.0  T
   3   -120.9807047  0.226524E-02  0.130E+00    3.74       1.0  T
   4   -121.0060861 -0.253814E-01  0.271E-01    3.33       1.0  T
   5   -121.0094071 -0.332094E-02  0.925E-02    3.36       1.0  T
   6   -121.0096524 -0.245293E-03  0.476E-02    3.38       1.0  T
   7   -121.0096900 -0.376326E-04  0.206E-02    3.39       1.0  T
   8   -121.0096928 -0.285819E-05  0.612E-03    3.40       1.9  T
   9   -121.0096941 -0.125177E-05  0.295E-03    3.40       3.9  T
  10   -121.0096944 -0.304099E-06  0.109E-03    3.39      10.7  T
  11   -121.0096944 -0.125702E-07  0.551E-04    3.39      21.1  T
  12   -121.0096944 -0.543234E-08  0.220E-04    3.39      52.9  T

   *** convergence criteria satisfied after 12 iterations ***

         #    Occupation            Energy/Eh            Energy/eV
      -------------------------------------------------------------
         1        2.0000           -0.7511041             -20.4386
       ...           ...                  ...                  ...
       101        2.0000           -0.3994190             -10.8687
       102        2.0000           -0.3983310             -10.8391
       103        2.0000           -0.3965658             -10.7911
       104        2.0000           -0.3945608             -10.7365
       105        2.0000           -0.3907236             -10.6321
       106        2.0000           -0.3893938             -10.5959
       107        2.0000           -0.3868710             -10.5273 (HOMO)
       108                         -0.2621454              -7.1333 (LUMO)
       109                         -0.2457134              -6.6862
       110                         -0.2407307              -6.5506
       111                         -0.2339871              -6.3671
       112                         -0.2314434              -6.2979
       ...                                ...                  ...
       200                          0.6351115              17.2823
      -------------------------------------------------------------
                  HL-Gap            0.1247256 Eh            3.3940 eV
             Fermi-level           -0.3245082 Eh           -8.8303 eV

 SCC (total)                   0 d,  0 h,  0 min,  0.556 sec
 SCC setup                      ...        0 min,  0.012 sec (  2.146%)
 Dispersion                     ...        0 min,  0.018 sec (  3.216%)
 classical contributions        ...        0 min,  0.022 sec (  3.966%)
 integral evaluation            ...        0 min,  0.101 sec ( 18.100%)
 iterations                     ...        0 min,  0.240 sec ( 43.155%)
 molecular gradient             ...        0 min,  0.147 sec ( 26.387%)
 printout                       ...        0 min,  0.017 sec (  3.012%)

         :::::::::::::::::::::::::::::::::::::::::::::::::::::
         ::                     SUMMARY                     ::
         :::::::::::::::::::::::::::::::::::::::::::::::::::::
         :: total energy            -119.387039416326 Eh    ::
         :: gradient norm              0.106304328478 Eh/a0 ::
         :: HOMO-LUMO gap              3.393957363600 eV    ::
         ::.................................................::
         :: SCC energy              -121.009694420404 Eh    ::
         :: -> isotropic ES            0.150491454588 Eh    ::
         :: -> anisotropic ES          0.012512660919 Eh    ::
         :: -> anisotropic XC          0.046499143867 Eh    ::
         :: -> dispersion             -0.095956162316 Eh    ::
         :: repulsion energy           1.619722361916 Eh    ::
         :: add. restraining           0.000000000000 Eh    ::
         :: total charge              -0.000000000000 e     ::
         :::::::::::::::::::::::::::::::::::::::::::::::::::::

      ----------------------------------------------------------- 
     |                   =====================                   |
     |                        A N C O P T                        |
     |                   =====================                   |
     |               Approximate Normal Coordinate               |
     |                Rational Function Optimizer                |
      ----------------------------------------------------------- 

          ...................................................
          :                      SETUP                      :
          :.................................................:
          :   optimization level            normal          :
          :   max. optcycles                   222          :
          :   ANC micro-cycles                  20          :
          :   degrees of freedom               216          :
          :.................................................:
          :   RF solver                   davidson          :
          :   write xtbopt.log                true          :
          :   linear?                        false          :
          :   energy convergence         0.5000000E-05 Eh   :
          :   grad. convergence          0.1000000E-02 Eh/α :
          :   maximium RF displ.         1.0000000          :
          :   Hlow (freq-cutoff)         0.1000000E-01      :
          :   Hmax (freq-cutoff)         5.0000000          :
          :   S6 in model hess.         20.0000000          :
          ...................................................

generating ANC from model Hessian ...
Using Lindh-Hessian (1995)
 Shifting diagonal of input Hessian by    9.8403943578513394E-003
 Lowest  eigenvalues of input Hessian
    0.000000    0.000000    0.000000    0.000000    0.000000    0.000000
    0.010000    0.010021    0.010094    0.010154    0.010168    0.010280
    0.010443    0.010506    0.010646    0.010862    0.011270    0.011654
 Highest eigenvalues
    1.946685    2.017719    2.018400    2.172319    2.174015    2.197586


........................................................................
.............................. CYCLE    1 ..............................
........................................................................
   1   -121.0096944 -0.121010E+03  0.944E-05    3.39       0.0  T
   2   -121.0096944 -0.158224E-09  0.641E-05    3.39     181.2  T
   3   -121.0096944 -0.138755E-09  0.394E-05    3.39     295.3  T
     SCC iter.                  ...        0 min,  0.061 sec
     gradient                   ...        0 min,  0.144 sec
 * total energy  :  -119.3870394 Eh     change       -0.1534673E-08 Eh
   gradient norm :     0.1063069 Eh/α   predicted     0.0000000E+00 (-100.00%)
   displ. norm   :     0.3595417 α      lambda       -0.1878249E-01
   maximum displ.:     0.0896573 α      in ANC's #25, #18, #65, ...

........................................................................
.............................. CYCLE    2 ..............................
........................................................................
   1   -121.1034494 -0.121103E+03  0.169E-01    3.73       0.0  T
   2   -121.1036112 -0.161799E-03  0.101E-01    3.68       1.0  T
   3   -121.1035917  0.194352E-04  0.412E-02    3.68       1.0  T
   4   -121.1036425 -0.507812E-04  0.629E-03    3.67       1.8  T
   5   -121.1036440 -0.150820E-05  0.345E-03    3.67       3.4  T
   6   -121.1036443 -0.319682E-06  0.145E-03    3.67       8.0  T
   7   -121.1036444 -0.446536E-07  0.580E-04    3.67      20.0  T
   8   -121.1036444 -0.328477E-08  0.253E-04    3.67      45.9  T
     SCC iter.                  ...        0 min,  0.160 sec
     gradient                   ...        0 min,  0.134 sec
 * total energy  :  -119.3994955 Eh     change       -0.1245606E-01 Eh
   gradient norm :     0.0308205 Eh/α   predicted    -0.1060526E-01 ( -14.86%)
   displ. norm   :     0.3947144 α      lambda       -0.5278486E-02
   maximum displ.:     0.1441399 α      in ANC's #25, #18, #31, ...

........................................................................
.............................. CYCLE    3 ..............................
........................................................................
   1   -121.1456221 -0.121146E+03  0.111E-01    3.76       0.0  T
   2   -121.1456674 -0.452974E-04  0.664E-02    3.75       1.0  T
   3   -121.1456400  0.273638E-04  0.265E-02    3.75       1.0  T
   4   -121.1456790 -0.389784E-04  0.571E-03    3.74       2.0  T
   5   -121.1456811 -0.214056E-05  0.200E-03    3.74       5.8  T
   6   -121.1456812 -0.113817E-06  0.923E-04    3.74      12.6  T
   7   -121.1456813 -0.119969E-07  0.337E-04    3.74      34.5  T
     SCC iter.                  ...        0 min,  0.143 sec
     gradient                   ...        0 min,  0.155 sec
 * total energy  :  -119.4029171 Eh     change       -0.3421596E-02 Eh
   gradient norm :     0.0163234 Eh/α   predicted    -0.3050438E-02 ( -10.85%)
   displ. norm   :     0.4003071 α      lambda       -0.2271720E-02
   maximum displ.:     0.1893899 α      in ANC's #18, #25, #13, ...

........................................................................
.............................. CYCLE    4 ..............................
........................................................................
   1   -121.1560775 -0.121156E+03  0.823E-02    3.72       0.0  T
   2   -121.1561205 -0.429461E-04  0.506E-02    3.71       1.0  T
   3   -121.1561098  0.106852E-04  0.212E-02    3.72       1.0  T
   4   -121.1561272 -0.174705E-04  0.616E-03    3.72       1.9  T
   5   -121.1561302 -0.298027E-05  0.141E-03    3.72       8.2  T
   6   -121.1561303 -0.495161E-07  0.730E-04    3.72      15.9  T
   7   -121.1561303 -0.539600E-08  0.263E-04    3.72      44.2  T
     SCC iter.                  ...        0 min,  0.147 sec
     gradient                   ...        0 min,  0.162 sec
 * total energy  :  -119.4044348 Eh     change       -0.1517681E-02 Eh
   gradient norm :     0.0111823 Eh/α   predicted    -0.1317933E-02 ( -13.16%)
   displ. norm   :     0.4311483 α      lambda       -0.1483022E-02
   maximum displ.:     0.2086699 α      in ANC's #18, #25, #13, ...

........................................................................
.............................. CYCLE    5 ..............................
........................................................................
   1   -121.1558925 -0.121156E+03  0.722E-02    3.69       0.0  T
   2   -121.1559243 -0.318343E-04  0.436E-02    3.68       1.0  T
   3   -121.1559157  0.857561E-05  0.192E-02    3.68       1.0  T
   4   -121.1559307 -0.149475E-04  0.515E-03    3.68       2.3  T
   5   -121.1559327 -0.206307E-05  0.132E-03    3.68       8.8  T
   6   -121.1559328 -0.144550E-07  0.748E-04    3.68      15.5  T
   7   -121.1559328 -0.809200E-08  0.232E-04    3.68      50.0  T
     SCC iter.                  ...        0 min,  0.138 sec
     gradient                   ...        0 min,  0.129 sec
 * total energy  :  -119.4054344 Eh     change       -0.9996615E-03 Eh
   gradient norm :     0.0084568 Eh/α   predicted    -0.8793515E-03 ( -12.04%)
   displ. norm   :     0.3742991 α      lambda       -0.8055742E-03
   maximum displ.:     0.1812895 α      in ANC's #18, #10, #13, ...

........................................................................
.............................. CYCLE    6 ..............................
........................................................................
   1   -121.1529926 -0.121153E+03  0.613E-02    3.66       0.0  T
   2   -121.1530017 -0.909385E-05  0.362E-02    3.66       1.0  T
   3   -121.1529941  0.750952E-05  0.127E-02    3.66       1.0  T
   4   -121.1530039 -0.971749E-05  0.252E-03    3.66       4.6  T
   5   -121.1530043 -0.417527E-06  0.900E-04    3.66      12.9  T
   6   -121.1530043 -0.858365E-08  0.445E-04    3.66      26.1  T
     SCC iter.                  ...        0 min,  0.121 sec
     gradient                   ...        0 min,  0.134 sec
 * total energy  :  -119.4060118 Eh     change       -0.5774008E-03 Eh
   gradient norm :     0.0070914 Eh/α   predicted    -0.4592824E-03 ( -20.46%)
   displ. norm   :     0.3483944 α      lambda       -0.5194219E-03
   maximum displ.:     0.1536467 α      in ANC's #10, #18, #13, ...

........................................................................
.............................. CYCLE    7 ..............................
........................................................................
   1   -121.1518396 -0.121152E+03  0.633E-02    3.65       0.0  T
   2   -121.1518430 -0.339395E-05  0.372E-02    3.65       1.0  T
   3   -121.1518364  0.655556E-05  0.999E-03    3.65       1.2  T
   4   -121.1518444 -0.799681E-05  0.148E-03    3.65       7.9  T
   5   -121.1518445 -0.641902E-07  0.773E-04    3.65      15.0  T
   6   -121.1518445 -0.793709E-08  0.355E-04    3.65      32.7  T
     SCC iter.                  ...        0 min,  0.125 sec
     gradient                   ...        0 min,  0.133 sec
 * total energy  :  -119.4063911 Eh     change       -0.3792340E-03 Eh
   gradient norm :     0.0060330 Eh/α   predicted    -0.2912354E-03 ( -23.20%)
   displ. norm   :     0.3213427 α      lambda       -0.3673222E-03
   maximum displ.:     0.1552787 α      in ANC's #10, #12, #13, ...

........................................................................
.............................. CYCLE    8 ..............................
........................................................................
   1   -121.1526978 -0.121153E+03  0.686E-02    3.64       0.0  T
   2   -121.1527014 -0.357743E-05  0.403E-02    3.64       1.0  T
   3   -121.1526953  0.611681E-05  0.949E-03    3.64       1.2  T
   4   -121.1527028 -0.749165E-05  0.145E-03    3.64       8.0  T
   5   -121.1527028 -0.738093E-07  0.755E-04    3.64      15.4  T
   6   -121.1527028 -0.831781E-08  0.311E-04    3.64      37.4  T
     SCC iter.                  ...        0 min,  0.119 sec
     gradient                   ...        0 min,  0.155 sec
 * total energy  :  -119.4066636 Eh     change       -0.2725336E-03 Eh
   gradient norm :     0.0046388 Eh/α   predicted    -0.2026386E-03 ( -25.65%)
   displ. norm   :     0.3104618 α      lambda       -0.2843821E-03
   maximum displ.:     0.1604004 α      in ANC's #10, #12, #13, ...

........................................................................
.............................. CYCLE    9 ..............................
........................................................................
   1   -121.1541990 -0.121154E+03  0.717E-02    3.63       0.0  T
   2   -121.1542033 -0.427485E-05  0.421E-02    3.64       1.0  T
   3   -121.1541973  0.596384E-05  0.947E-03    3.64       1.2  T
   4   -121.1542046 -0.733580E-05  0.156E-03    3.64       7.5  T
   5   -121.1542047 -0.110537E-06  0.764E-04    3.64      15.2  T
   6   -121.1542047 -0.730692E-08  0.328E-04    3.64      35.4  T
     SCC iter.                  ...        0 min,  0.121 sec
     gradient                   ...        0 min,  0.155 sec
 * total energy  :  -119.4068762 Eh     change       -0.2126299E-03 Eh
   gradient norm :     0.0045581 Eh/α   predicted    -0.1558965E-03 ( -26.68%)
   displ. norm   :     0.3051098 α      lambda       -0.2345916E-03
   maximum displ.:     0.1637198 α      in ANC's #10, #12, #13, ...

........................................................................
.............................. CYCLE   10 ..............................
........................................................................
   1   -121.1558229 -0.121156E+03  0.697E-02    3.63       0.0  T
   2   -121.1558290 -0.611422E-05  0.408E-02    3.63       1.0  T
   3   -121.1558243  0.468063E-05  0.922E-03    3.63       1.3  T
   4   -121.1558302 -0.587200E-05  0.179E-03    3.63       6.5  T
   5   -121.1558304 -0.208358E-06  0.747E-04    3.63      15.6  T
   6   -121.1558304 -0.108914E-07  0.364E-04    3.63      31.9  T
     SCC iter.                  ...        0 min,  0.121 sec
     gradient                   ...        0 min,  0.139 sec
 * total energy  :  -119.4070540 Eh     change       -0.1778197E-03 Eh
   gradient norm :     0.0043888 Eh/α   predicted    -0.1282173E-03 ( -27.89%)
   displ. norm   :     0.3275438 α      lambda       -0.2145117E-03
   maximum displ.:     0.1773872 α      in ANC's #10, #12, #13, ...

........................................................................
.............................. CYCLE   11 ..............................
........................................................................
   1   -121.1560504 -0.121156E+03  0.688E-02    3.62       0.0  T
   2   -121.1560543 -0.390442E-05  0.403E-02    3.62       1.0  T
   3   -121.1560496  0.478848E-05  0.861E-03    3.62       1.3  T
   4   -121.1560554 -0.587759E-05  0.149E-03    3.62       7.8  T
   5   -121.1560555 -0.104363E-06  0.710E-04    3.62      16.4  T
   6   -121.1560555 -0.762482E-08  0.348E-04    3.62      33.4  T
     SCC iter.                  ...        0 min,  0.121 sec
     gradient                   ...        0 min,  0.139 sec
 * total energy  :  -119.4072148 Eh     change       -0.1607664E-03 Eh
   gradient norm :     0.0050504 Eh/α   predicted    -0.1187657E-03 ( -26.13%)
   displ. norm   :     0.3389404 α      lambda       -0.1996555E-03
   maximum displ.:     0.1846680 α      in ANC's #10, #13, #4, ...

........................................................................
.............................. CYCLE   12 ..............................
........................................................................
   1   -121.1565893 -0.121157E+03  0.629E-02    3.61       0.0  T
   2   -121.1565967 -0.735166E-05  0.367E-02    3.62       1.0  T
   3   -121.1565929  0.375484E-05  0.922E-03    3.62       1.3  T
   4   -121.1565978 -0.491299E-05  0.183E-03    3.62       6.3  T
   5   -121.1565980 -0.207436E-06  0.762E-04    3.62      15.3  T
   6   -121.1565980 -0.165398E-07  0.366E-04    3.62      31.7  T
     SCC iter.                  ...        0 min,  0.119 sec
     gradient                   ...        0 min,  0.123 sec
 * total energy  :  -119.4073535 Eh     change       -0.1387048E-03 Eh
   gradient norm :     0.0045954 Eh/α   predicted    -0.1112986E-03 ( -19.76%)
   displ. norm   :     0.3132224 α      lambda       -0.1473361E-03
   maximum displ.:     0.1711849 α      in ANC's #10, #13, #4, ...

........................................................................
.............................. CYCLE   13 ..............................
........................................................................
   1   -121.1549685 -0.121155E+03  0.550E-02    3.60       0.0  T
   2   -121.1549705 -0.193298E-05  0.324E-02    3.61       1.0  T
   3   -121.1549671  0.338351E-05  0.717E-03    3.61       1.6  T
   4   -121.1549712 -0.413005E-05  0.113E-03    3.61      10.3  T
   5   -121.1549712 -0.392542E-07  0.594E-04    3.61      19.6  T
   6   -121.1549713 -0.322903E-08  0.256E-04    3.61      45.4  T
     SCC iter.                  ...        0 min,  0.120 sec
     gradient                   ...        0 min,  0.103 sec
 * total energy  :  -119.4074547 Eh     change       -0.1011417E-03 Eh
   gradient norm :     0.0036578 Eh/α   predicted    -0.8089611E-04 ( -20.02%)
   displ. norm   :     0.2538718 α      lambda       -0.1185751E-03
   maximum displ.:     0.1326335 α      in ANC's #10, #4, #13, ...

........................................................................
.............................. CYCLE   14 ..............................
........................................................................
   1   -121.1553191 -0.121155E+03  0.405E-02    3.60       0.0  T
   2   -121.1553205 -0.137279E-05  0.238E-02    3.61       1.0  T
   3   -121.1553192  0.125301E-05  0.476E-03    3.61       2.4  T
   4   -121.1553208 -0.160407E-05  0.908E-04    3.61      12.8  T
   5   -121.1553209 -0.307754E-07  0.465E-04    3.61      25.0  T
   6   -121.1553209 -0.463032E-08  0.196E-04    3.61      59.3  T
     SCC iter.                  ...        0 min,  0.121 sec
     gradient                   ...        0 min,  0.146 sec
 * total energy  :  -119.4075456 Eh     change       -0.9096802E-04 Eh
   gradient norm :     0.0032152 Eh/α   predicted    -0.6311966E-04 ( -30.61%)
   displ. norm   :     0.2908154 α      lambda       -0.1305574E-03
   maximum displ.:     0.1421481 α      in ANC's #10, #4, #13, ...

........................................................................
.............................. CYCLE   15 ..............................
........................................................................
   1   -121.1550980 -0.121155E+03  0.473E-02    3.60       0.0  T
   2   -121.1550995 -0.155791E-05  0.279E-02    3.61       1.0  T
   3   -121.1550972  0.229335E-05  0.569E-03    3.61       2.0  T
   4   -121.1551000 -0.275586E-05  0.113E-03    3.61      10.2  T
   5   -121.1551000 -0.708639E-07  0.526E-04    3.61      22.1  T
   6   -121.1551000 -0.363384E-08  0.242E-04    3.61      48.0  T
     SCC iter.                  ...        0 min,  0.126 sec
     gradient                   ...        0 min,  0.126 sec
 * total energy  :  -119.4076490 Eh     change       -0.1033461E-03 Eh
   gradient norm :     0.0038009 Eh/α   predicted    -0.7080435E-04 ( -31.49%)
   displ. norm   :     0.3719419 α      lambda       -0.1516567E-03
   maximum displ.:     0.1668586 α      in ANC's #10, #4, #13, ...

........................................................................
.............................. CYCLE   16 ..............................
........................................................................
   1   -121.1549675 -0.121155E+03  0.619E-02    3.60       0.0  T
   2   -121.1549697 -0.219607E-05  0.365E-02    3.61       1.0  T
   3   -121.1549652  0.453873E-05  0.766E-03    3.61       1.5  T
   4   -121.1549706 -0.540991E-05  0.137E-03    3.61       8.5  T
   5   -121.1549707 -0.825563E-07  0.697E-04    3.61      16.7  T
   6   -121.1549707 -0.613643E-08  0.307E-04    3.61      37.8  T
     SCC iter.                  ...        0 min,  0.121 sec
     gradient                   ...        0 min,  0.138 sec
 * total energy  :  -119.4077656 Eh     change       -0.1166704E-03 Eh
   gradient norm :     0.0042508 Eh/α   predicted    -0.8632567E-04 ( -26.01%)
   displ. norm   :     0.3794716 α      lambda       -0.1366006E-03
   maximum displ.:     0.1566426 α      in ANC's #10, #4, #13, ...

........................................................................
.............................. CYCLE   17 ..............................
........................................................................
   1   -121.1548369 -0.121155E+03  0.652E-02    3.60       0.0  T
   2   -121.1548392 -0.225101E-05  0.385E-02    3.61       1.0  T
   3   -121.1548337  0.544869E-05  0.832E-03    3.61       1.4  T
   4   -121.1548402 -0.648201E-05  0.140E-03    3.61       8.3  T
   5   -121.1548403 -0.770878E-07  0.742E-04    3.61      15.7  T
   6   -121.1548403 -0.516175E-08  0.294E-04    3.61      39.5  T
     SCC iter.                  ...        0 min,  0.151 sec
     gradient                   ...        0 min,  0.121 sec
 * total energy  :  -119.4078694 Eh     change       -0.1037470E-03 Eh
   gradient norm :     0.0041479 Eh/α   predicted    -0.7813903E-04 ( -24.68%)
   displ. norm   :     0.3174704 α      lambda       -0.1141502E-03
   maximum displ.:     0.1295922 α      in ANC's #4, #5, #10, ...

........................................................................
.............................. CYCLE   18 ..............................
........................................................................
   1   -121.1557565 -0.121156E+03  0.570E-02    3.61       0.0  T
   2   -121.1557580 -0.153255E-05  0.336E-02    3.61       1.0  T
   3   -121.1557546  0.344434E-05  0.684E-03    3.61       1.7  T
   4   -121.1557587 -0.415487E-05  0.118E-03    3.61       9.8  T
   5   -121.1557588 -0.423966E-07  0.663E-04    3.61      17.5  T
   6   -121.1557588 -0.591214E-08  0.235E-04    3.61      49.4  T
     SCC iter.                  ...        0 min,  0.125 sec
     gradient                   ...        0 min,  0.146 sec
 * total energy  :  -119.4079535 Eh     change       -0.8408859E-04 Eh
   gradient norm :     0.0030477 Eh/α   predicted    -0.6282905E-04 ( -25.28%)
   displ. norm   :     0.2627947 α      lambda       -0.7884409E-04
   maximum displ.:     0.1112584 α      in ANC's #4, #5, #9, ...

........................................................................
.............................. CYCLE   19 ..............................
........................................................................
   1   -121.1559786 -0.121156E+03  0.497E-02    3.61       0.0  T
   2   -121.1559798 -0.125859E-05  0.292E-02    3.61       1.0  T
   3   -121.1559783  0.154155E-05  0.494E-03    3.62       2.4  T
   4   -121.1559802 -0.191821E-05  0.100E-03    3.61      11.6  T
   5   -121.1559802 -0.392971E-07  0.531E-04    3.61      21.9  T
   6   -121.1559802 -0.407420E-08  0.251E-04    3.61      46.3  T
     SCC iter.                  ...        0 min,  0.123 sec
     gradient                   ...        0 min,  0.143 sec
 * total energy  :  -119.4080106 Eh     change       -0.5711283E-04 Eh
   gradient norm :     0.0024801 Eh/α   predicted    -0.4214615E-04 ( -26.21%)
   displ. norm   :     0.1995153 α      lambda       -0.5254162E-04
   maximum displ.:     0.0857283 α      in ANC's #4, #5, #9, ...

........................................................................
.............................. CYCLE   20 ..............................
........................................................................
   1   -121.1566651 -0.121157E+03  0.369E-02    3.62       0.0  T
   2   -121.1566659 -0.811134E-06  0.217E-02    3.62       1.0  T
   3   -121.1566652  0.690950E-06  0.345E-03    3.62       3.4  T
   4   -121.1566661 -0.875262E-06  0.764E-04    3.62      15.2  T
   5   -121.1566661 -0.260984E-07  0.394E-04    3.62      29.5  T
     SCC iter.                  ...        0 min,  0.104 sec
     gradient                   ...        0 min,  0.128 sec
 * total energy  :  -119.4080496 Eh     change       -0.3900758E-04 Eh
   gradient norm :     0.0021975 Eh/α   predicted    -0.2731835E-04 ( -29.97%)
   displ. norm   :     0.2116337 α      lambda       -0.4705093E-04
   maximum displ.:     0.0954337 α      in ANC's #4, #3, #5, ...
 * RMSD in coord.:     0.5491410 α      energy gain  -0.2101018E-01 Eh

generating ANC from model Hessian ...
Using Lindh-Hessian (1995)
 Shifting diagonal of input Hessian by    9.8512705564732794E-003
 Lowest  eigenvalues of input Hessian
    0.000000    0.000000    0.000000    0.000000    0.000000    0.000000
    0.010000    0.010049    0.010135    0.010226    0.010257    0.010344
    0.010578    0.010645    0.010814    0.010958    0.011491    0.011848
 Highest eigenvalues
    2.030706    2.100464    2.104172    2.301713    2.310085    2.363895


........................................................................
.............................. CYCLE   21 ..............................
........................................................................
   1   -121.1560088 -0.121156E+03  0.384E-02    3.62       0.0  T
   2   -121.1560093 -0.545772E-06  0.226E-02    3.62       1.0  T
   3   -121.1560088  0.588511E-06  0.294E-03    3.62       4.0  T
   4   -121.1560095 -0.735467E-06  0.670E-04    3.62      17.4  T
   5   -121.1560095 -0.209274E-07  0.342E-04    3.62      34.0  T
     SCC iter.                  ...        0 min,  0.138 sec
     gradient                   ...        0 min,  0.139 sec
 * total energy  :  -119.4080867 Eh     change       -0.3707248E-04 Eh
   gradient norm :     0.0019712 Eh/α   predicted     0.0000000E+00 (-100.00%)
   displ. norm   :     0.0534026 α      lambda       -0.2273242E-04
   maximum displ.:     0.0228910 α      in ANC's #3, #6, #5, ...

........................................................................
.............................. CYCLE   22 ..............................
........................................................................
   1   -121.1562201 -0.121156E+03  0.136E-02    3.62       0.0  T
   2   -121.1562204 -0.246174E-06  0.794E-03    3.62       1.5  T
   3   -121.1562203  0.104574E-06  0.159E-03    3.62       7.3  T
   4   -121.1562204 -0.134055E-06  0.384E-04    3.62      30.3  T
   5   -121.1562204 -0.968035E-08  0.150E-04    3.62      77.7  T
     SCC iter.                  ...        0 min,  0.101 sec
     gradient                   ...        0 min,  0.130 sec
 * total energy  :  -119.4081146 Eh     change       -0.2793035E-04 Eh
   gradient norm :     0.0008641 Eh/α   predicted    -0.1138893E-04 ( -59.22%)
   displ. norm   :     0.1729907 α      lambda       -0.4843708E-04
   maximum displ.:     0.0772484 α      in ANC's #3, #6, #5, ...

........................................................................
.............................. CYCLE   23 ..............................
........................................................................
   1   -121.1563287 -0.121156E+03  0.409E-02    3.62       0.0  T
   2   -121.1563300 -0.135673E-05  0.239E-02    3.62       1.0  T
   3   -121.1563294  0.634777E-06  0.371E-03    3.61       3.1  T
   4   -121.1563303 -0.840000E-06  0.955E-04    3.62      12.2  T
   5   -121.1563303 -0.523188E-07  0.428E-04    3.62      27.2  T
     SCC iter.                  ...        0 min,  0.104 sec
     gradient                   ...        0 min,  0.135 sec
 * total energy  :  -119.4081637 Eh     change       -0.4910765E-04 Eh
   gradient norm :     0.0019836 Eh/α   predicted    -0.2457171E-04 ( -49.96%)
   displ. norm   :     0.1730444 α      lambda        0.6222963E-06
   maximum displ.:     0.0772476 α      in ANC's #3, #6, #5, ...

........................................................................
.............................. CYCLE   24 ..............................
........................................................................
   1   -121.1560052 -0.121156E+03  0.409E-02    3.61       0.0  T
   2   -121.1560065 -0.136106E-05  0.239E-02    3.61       1.0  T
   3   -121.1560059  0.614324E-06  0.370E-03    3.61       3.1  T
   4   -121.1560067 -0.827013E-06  0.931E-04    3.61      12.5  T
   5   -121.1560068 -0.472831E-07  0.435E-04    3.61      26.7  T
     SCC iter.                  ...        0 min,  0.101 sec
     gradient                   ...        0 min,  0.121 sec
 * total energy  :  -119.4081649 Eh     change       -0.1192154E-05 Eh
   gradient norm :     0.0043376 Eh/α   predicted     0.3126817E-06 (-126.23%)
   displ. norm   :     0.0336159 α      lambda       -0.3623113E-04
   maximum displ.:     0.0143305 α      in ANC's #3, #6, #5, ...

........................................................................
.............................. CYCLE   25 ..............................
........................................................................
   1   -121.1564349 -0.121156E+03  0.942E-03    3.61       0.0  T
   2   -121.1564350 -0.839688E-07  0.555E-03    3.61       2.1  T
   3   -121.1564349  0.987972E-07  0.123E-03    3.61       9.5  T
   4   -121.1564350 -0.121088E-06  0.247E-04    3.61      47.0  T
   5   -121.1564350 -0.282279E-08  0.116E-04    3.61     100.2  T
     SCC iter.                  ...        0 min,  0.101 sec
     gradient                   ...        0 min,  0.144 sec
 * total energy  :  -119.4081938 Eh     change       -0.2892924E-04 Eh
   gradient norm :     0.0031865 Eh/α   predicted    -0.1813686E-04 ( -37.31%)
   displ. norm   :     0.1255772 α      lambda       -0.8120105E-04
   maximum displ.:     0.0570900 α      in ANC's #3, #6, #5, ...

........................................................................
.............................. CYCLE   26 ..............................
........................................................................
   1   -121.1572897 -0.121157E+03  0.312E-02    3.61       0.0  T
   2   -121.1572909 -0.118445E-05  0.183E-02    3.61       1.0  T
   3   -121.1572902  0.631199E-06  0.350E-03    3.61       3.3  T
   4   -121.1572910 -0.766228E-06  0.820E-04    3.61      14.2  T
   5   -121.1572911 -0.511883E-07  0.281E-04    3.61      41.3  T
     SCC iter.                  ...        0 min,  0.111 sec
     gradient                   ...        0 min,  0.147 sec
 * total energy  :  -119.4082491 Eh     change       -0.5525089E-04 Eh
   gradient norm :     0.0014338 Eh/α   predicted    -0.4124090E-04 ( -25.36%)
   displ. norm   :     0.3007462 α      lambda       -0.5392846E-04
   maximum displ.:     0.1472949 α      in ANC's #3, #6, #5, ...

........................................................................
.............................. CYCLE   27 ..............................
........................................................................
   1   -121.1567150 -0.121157E+03  0.648E-02    3.61       0.0  T
   2   -121.1567162 -0.123396E-05  0.380E-02    3.61       1.0  T
   3   -121.1567147  0.145308E-05  0.454E-03    3.61       2.6  T
   4   -121.1567166 -0.183863E-05  0.102E-03    3.61      11.4  T
   5   -121.1567166 -0.459411E-07  0.521E-04    3.61      22.3  T
   6   -121.1567166 -0.242130E-08  0.246E-04    3.61      47.3  T
     SCC iter.                  ...        0 min,  0.122 sec
     gradient                   ...        0 min,  0.149 sec
 * total energy  :  -119.4083091 Eh     change       -0.5999892E-04 Eh
   gradient norm :     0.0029508 Eh/α   predicted    -0.2804861E-04 ( -53.25%)
   displ. norm   :     0.2680505 α      lambda       -0.6215065E-04
   maximum displ.:     0.1324902 α      in ANC's #3, #6, #5, ...

........................................................................
.............................. CYCLE   28 ..............................
........................................................................
   1   -121.1557893 -0.121156E+03  0.565E-02    3.60       0.0  T
   2   -121.1557898 -0.540653E-06  0.332E-02    3.61       1.0  T
   3   -121.1557890  0.836736E-06  0.347E-03    3.61       3.4  T
   4   -121.1557901 -0.110478E-05  0.754E-04    3.61      15.4  T
   5   -121.1557901 -0.826266E-08  0.433E-04    3.61      26.8  T
   6   -121.1557901 -0.267657E-08  0.139E-04    3.61      83.7  T
     SCC iter.                  ...        0 min,  0.129 sec
     gradient                   ...        0 min,  0.152 sec
 * total energy  :  -119.4083641 Eh     change       -0.5506151E-04 Eh
   gradient norm :     0.0028663 Eh/α   predicted    -0.3330852E-04 ( -39.51%)
   displ. norm   :     0.4131431 α      lambda       -0.9432116E-04
   maximum displ.:     0.2067990 α      in ANC's #3, #6, #5, ...

........................................................................
.............................. CYCLE   29 ..............................
........................................................................
   1   -121.1544544 -0.121154E+03  0.855E-02    3.60       0.0  T
   2   -121.1544555 -0.102642E-05  0.502E-02    3.60       1.0  T
   3   -121.1544541  0.140997E-05  0.465E-03    3.60       2.5  T
   4   -121.1544560 -0.194752E-05  0.107E-03    3.60      10.9  T
   5   -121.1544560 -0.805723E-08  0.587E-04    3.60      19.8  T
   6   -121.1544560 -0.737322E-08  0.191E-04    3.60      60.9  T
     SCC iter.                  ...        0 min,  0.119 sec
     gradient                   ...        0 min,  0.141 sec
 * total energy  :  -119.4084420 Eh     change       -0.7783052E-04 Eh
   gradient norm :     0.0027409 Eh/α   predicted    -0.5521693E-04 ( -29.05%)
   displ. norm   :     0.4154561 α      lambda       -0.9263895E-04
   maximum displ.:     0.2129329 α      in ANC's #3, #6, #5, ...

........................................................................
.............................. CYCLE   30 ..............................
........................................................................
   1   -121.1537486 -0.121154E+03  0.827E-02    3.60       0.0  T
   2   -121.1537495 -0.897141E-06  0.485E-02    3.60       1.0  T
   3   -121.1537487  0.827045E-06  0.381E-03    3.60       3.0  T
   4   -121.1537499 -0.125097E-05  0.994E-04    3.60      11.7  T
   5   -121.1537499 -0.102608E-07  0.525E-04    3.60      22.1  T
   6   -121.1537499 -0.467733E-08  0.195E-04    3.60      59.5  T
     SCC iter.                  ...        0 min,  0.121 sec
     gradient                   ...        0 min,  0.139 sec
 * total energy  :  -119.4085190 Eh     change       -0.7705369E-04 Eh
   gradient norm :     0.0030173 Eh/α   predicted    -0.5431747E-04 ( -29.51%)
   displ. norm   :     0.4568002 α      lambda       -0.1192045E-03
   maximum displ.:     0.2398258 α      in ANC's #3, #6, #5, ...

........................................................................
.............................. CYCLE   31 ..............................
........................................................................
   1   -121.1543219 -0.121154E+03  0.858E-02    3.61       0.0  T
   2   -121.1543231 -0.115793E-05  0.503E-02    3.61       1.0  T
   3   -121.1543226  0.463819E-06  0.335E-03    3.61       3.5  T
   4   -121.1543235 -0.849536E-06  0.106E-03    3.61      10.9  T
   5   -121.1543235 -0.325386E-07  0.559E-04    3.61      20.8  T
   6   -121.1543235 -0.337214E-08  0.205E-04    3.61      56.8  T
     SCC iter.                  ...        0 min,  0.124 sec
     gradient                   ...        0 min,  0.127 sec
 * total energy  :  -119.4086228 Eh     change       -0.1038123E-03 Eh
   gradient norm :     0.0031880 Eh/α   predicted    -0.7204079E-04 ( -30.60%)
   displ. norm   :     0.5794665 α      lambda       -0.1660116E-03
   maximum displ.:     0.3071658 α      in ANC's #3, #6, #5, ...

........................................................................
.............................. CYCLE   32 ..............................
........................................................................
   1   -121.1548005 -0.121155E+03  0.104E-01    3.61       0.0  T
   2   -121.1548026 -0.205396E-05  0.607E-02    3.62       1.0  T
   3   -121.1548019  0.667806E-06  0.420E-03    3.62       2.8  T
   4   -121.1548032 -0.125967E-05  0.132E-03    3.62       8.8  T
   5   -121.1548032 -0.554604E-07  0.696E-04    3.62      16.7  T
   6   -121.1548032 -0.459153E-08  0.226E-04    3.62      51.3  T
     SCC iter.                  ...        0 min,  0.127 sec
     gradient                   ...        0 min,  0.132 sec
 * total energy  :  -119.4087706 Eh     change       -0.1477728E-03 Eh
   gradient norm :     0.0035400 Eh/α   predicted    -0.1108823E-03 ( -24.96%)
   displ. norm   :     0.6424097 α      lambda       -0.2110438E-03
   maximum displ.:     0.3425156 α      in ANC's #3, #6, #5, ...

........................................................................
.............................. CYCLE   33 ..............................
........................................................................
   1   -121.1564480 -0.121156E+03  0.107E-01    3.62       0.0  T
   2   -121.1564512 -0.326415E-05  0.628E-02    3.62       1.0  T
   3   -121.1564495  0.176625E-05  0.582E-03    3.62       2.0  T
   4   -121.1564520 -0.256344E-05  0.163E-03    3.62       7.1  T
   5   -121.1564522 -0.113782E-06  0.796E-04    3.62      14.6  T
   6   -121.1564522 -0.335808E-08  0.269E-04    3.62      43.2  T
     SCC iter.                  ...        0 min,  0.119 sec
     gradient                   ...        0 min,  0.145 sec
 * total energy  :  -119.4089517 Eh     change       -0.1810979E-03 Eh
   gradient norm :     0.0034701 Eh/α   predicted    -0.1490702E-03 ( -17.69%)
   displ. norm   :     0.7907605 α      lambda       -0.2148849E-03
   maximum displ.:     0.4221085 α      in ANC's #3, #6, #5, ...

........................................................................
.............................. CYCLE   34 ..............................
........................................................................
   1   -121.1515390 -0.121152E+03  0.136E-01    3.61       0.0  T
   2   -121.1515431 -0.410504E-05  0.796E-02    3.62       1.0  T
   3   -121.1515402  0.285839E-05  0.745E-03    3.62       1.6  T
   4   -121.1515444 -0.415660E-05  0.183E-03    3.62       6.3  T
   5   -121.1515445 -0.940002E-07  0.973E-04    3.62      11.9  T
   6   -121.1515445 -0.555490E-08  0.345E-04    3.62      33.7  T
     SCC iter.                  ...        0 min,  0.120 sec
     gradient                   ...        0 min,  0.121 sec
 * total energy  :  -119.4091062 Eh     change       -0.1544642E-03 Eh
   gradient norm :     0.0050857 Eh/α   predicted    -0.1746272E-03 (  13.05%)
   displ. norm   :     0.5269176 α      lambda       -0.3002190E-03
   maximum displ.:     0.2617996 α      in ANC's #3, #6, #5, ...

........................................................................
.............................. CYCLE   35 ..............................
........................................................................
   1   -121.1590240 -0.121159E+03  0.775E-02    3.62       0.0  T
   2   -121.1590280 -0.401582E-05  0.455E-02    3.62       1.0  T
   3   -121.1590214  0.661766E-05  0.984E-03    3.62       1.2  T
   4   -121.1590294 -0.799574E-05  0.182E-03    3.62       6.4  T
   5   -121.1590296 -0.153143E-06  0.870E-04    3.62      13.4  T
   6   -121.1590296 -0.457396E-08  0.409E-04    3.62      28.4  T
     SCC iter.                  ...        0 min,  0.120 sec
     gradient                   ...        0 min,  0.151 sec
 * total energy  :  -119.4092644 Eh     change       -0.1582744E-03 Eh
   gradient norm :     0.0042023 Eh/α   predicted    -0.1917867E-03 (  21.17%)
   displ. norm   :     0.6446034 α      lambda       -0.1755557E-03
   maximum displ.:     0.3492205 α      in ANC's #3, #6, #5, ...

........................................................................
.............................. CYCLE   36 ..............................
........................................................................
   1   -121.1528629 -0.121153E+03  0.107E-01    3.62       0.0  T
   2   -121.1528654 -0.247180E-05  0.628E-02    3.62       1.0  T
   3   -121.1528631  0.230673E-05  0.645E-03    3.62       1.8  T
   4   -121.1528663 -0.316569E-05  0.138E-03    3.62       8.4  T
   5   -121.1528663 -0.466243E-07  0.754E-04    3.62      15.4  T
   6   -121.1528663 -0.332155E-08  0.283E-04    3.62      41.1  T
     SCC iter.                  ...        0 min,  0.121 sec
     gradient                   ...        0 min,  0.128 sec
 * total energy  :  -119.4093837 Eh     change       -0.1193062E-03 Eh
   gradient norm :     0.0055079 Eh/α   predicted    -0.1242519E-03 (   4.15%)
   displ. norm   :     0.3316858 α      lambda       -0.1803126E-03
   maximum displ.:     0.1800500 α      in ANC's #3, #6, #5, ...

........................................................................
.............................. CYCLE   37 ..............................
........................................................................
   1   -121.1531821 -0.121153E+03  0.545E-02    3.63       0.0  T
   2   -121.1531831 -0.988952E-06  0.320E-02    3.63       1.0  T
   3   -121.1531822  0.830681E-06  0.393E-03    3.63       3.0  T
   4   -121.1531833 -0.112374E-05  0.742E-04    3.63      15.7  T
   5   -121.1531834 -0.159153E-07  0.432E-04    3.63      26.9  T
   6   -121.1531834 -0.267757E-08  0.169E-04    3.63      68.6  T
     SCC iter.                  ...        0 min,  0.126 sec
     gradient                   ...        0 min,  0.136 sec
 * total energy  :  -119.4095329 Eh     change       -0.1491614E-03 Eh
   gradient norm :     0.0054056 Eh/α   predicted    -0.1000743E-03 ( -32.91%)
   displ. norm   :     0.4357206 α      lambda       -0.3357275E-03
   maximum displ.:     0.2217347 α      in ANC's #3, #6, #5, ...

........................................................................
.............................. CYCLE   38 ..............................
........................................................................
   1   -121.1580349 -0.121158E+03  0.712E-02    3.63       0.0  T
   2   -121.1580393 -0.438390E-05  0.415E-02    3.63       1.0  T
   3   -121.1580369  0.243669E-05  0.717E-03    3.63       1.6  T
   4   -121.1580400 -0.318664E-05  0.167E-03    3.63       7.0  T
   5   -121.1580402 -0.162666E-06  0.737E-04    3.63      15.8  T
   6   -121.1580402 -0.519563E-08  0.329E-04    3.63      35.3  T
     SCC iter.                  ...        0 min,  0.121 sec
     gradient                   ...        0 min,  0.141 sec
 * total energy  :  -119.4097698 Eh     change       -0.2368890E-03 Eh
   gradient norm :     0.0048391 Eh/α   predicted    -0.1997342E-03 ( -15.68%)
   displ. norm   :     0.7647125 α      lambda       -0.2797983E-03
   maximum displ.:     0.4206175 α      in ANC's #3, #6, #5, ...

........................................................................
.............................. CYCLE   39 ..............................
........................................................................
   1   -121.1533430 -0.121153E+03  0.118E-01    3.62       0.0  T
   2   -121.1533467 -0.368736E-05  0.693E-02    3.62       1.0  T
   3   -121.1533424  0.428230E-05  0.797E-03    3.62       1.5  T
   4   -121.1533478 -0.547681E-05  0.168E-03    3.62       6.9  T
   5   -121.1533480 -0.111331E-06  0.889E-04    3.62      13.1  T
   6   -121.1533480 -0.549541E-08  0.365E-04    3.62      31.9  T
     SCC iter.                  ...        0 min,  0.120 sec
     gradient                   ...        0 min,  0.166 sec
 * total energy  :  -119.4099904 Eh     change       -0.2205868E-03 Eh
   gradient norm :     0.0063487 Eh/α   predicted    -0.2217137E-03 (   0.51%)
   displ. norm   :     0.5209684 α      lambda       -0.2708745E-03
   maximum displ.:     0.2716888 α      in ANC's #3, #6, #5, ...

........................................................................
.............................. CYCLE   40 ..............................
........................................................................
   1   -121.1552442 -0.121155E+03  0.811E-02    3.61       0.0  T
   2   -121.1552487 -0.454182E-05  0.474E-02    3.61       1.0  T
   3   -121.1552433  0.542699E-05  0.909E-03    3.61       1.3  T
   4   -121.1552498 -0.652385E-05  0.184E-03    3.61       6.3  T
   5   -121.1552500 -0.219397E-06  0.759E-04    3.61      15.3  T
   6   -121.1552500 -0.370423E-08  0.364E-04    3.61      32.0  T
     SCC iter.                  ...        0 min,  0.157 sec
     gradient                   ...        0 min,  0.125 sec
 * total energy  :  -119.4101720 Eh     change       -0.1815885E-03 Eh
   gradient norm :     0.0045754 Eh/α   predicted    -0.1721956E-03 (  -5.17%)
   displ. norm   :     0.5334758 α      lambda       -0.1547412E-03
   maximum displ.:     0.2976244 α      in ANC's #3, #6, #5, ...

........................................................................
.............................. CYCLE   41 ..............................
........................................................................
   1   -121.1530948 -0.121153E+03  0.781E-02    3.60       0.0  T
   2   -121.1530970 -0.225265E-05  0.458E-02    3.61       1.0  T
   3   -121.1530935  0.347846E-05  0.708E-03    3.61       1.6  T
   4   -121.1530978 -0.422211E-05  0.122E-03    3.61       9.5  T
   5   -121.1530978 -0.647319E-07  0.626E-04    3.61      18.6  T
   6   -121.1530978 -0.448985E-08  0.316E-04    3.61      36.8  T
     SCC iter.                  ...        0 min,  0.121 sec
     gradient                   ...        0 min,  0.136 sec
 * total energy  :  -119.4102771 Eh     change       -0.1051381E-03 Eh
   gradient norm :     0.0051583 Eh/α   predicted    -0.9939537E-04 (  -5.46%)
   displ. norm   :     0.5334585 α      lambda        0.1361248E-04
   maximum displ.:     0.2976239 α      in ANC's #3, #6, #5, ...

........................................................................
.............................. CYCLE   42 ..............................
........................................................................
   1   -121.1486895 -0.121149E+03  0.790E-02    3.60       0.0  T
   2   -121.1486918 -0.233381E-05  0.463E-02    3.60       1.0  T
   3   -121.1486883  0.354645E-05  0.723E-03    3.60       1.6  T
   4   -121.1486926 -0.431682E-05  0.123E-03    3.60       9.5  T
   5   -121.1486927 -0.616967E-07  0.638E-04    3.60      18.2  T
   6   -121.1486927 -0.460099E-08  0.318E-04    3.60      36.5  T
     SCC iter.                  ...        0 min,  0.129 sec
     gradient                   ...        0 min,  0.123 sec
 * total energy  :  -119.4102408 Eh     change        0.3627349E-04 Eh
   gradient norm :     0.0099201 Eh/α   predicted     0.8743217E-05 ( -75.90%)
   displ. norm   :     0.1204560 α      lambda       -0.3035393E-03
   maximum displ.:     0.0500231 α      in ANC's #6, #5, #12, ...
 * RMSD in coord.:     0.9396834 α      energy gain  -0.2191245E-02 Eh

generating ANC from model Hessian ...
Using Lindh-Hessian (1995)
 Shifting diagonal of input Hessian by    9.8702752289201324E-003
 Lowest  eigenvalues of input Hessian
    0.000000    0.000000    0.000000    0.000000    0.000000    0.000000
    0.010000    0.010062    0.010174    0.010249    0.010296    0.010509
    0.010596    0.010649    0.010954    0.011016    0.011688    0.011872
 Highest eigenvalues
    2.030442    2.101792    2.105844    2.305026    2.314985    2.355943


........................................................................
.............................. CYCLE   43 ..............................
........................................................................
   1   -121.1589862 -0.121159E+03  0.318E-02    3.61       0.0  T
   2   -121.1589878 -0.160524E-05  0.187E-02    3.61       1.0  T
   3   -121.1589869  0.975215E-06  0.479E-03    3.61       2.4  T
   4   -121.1589881 -0.123574E-05  0.109E-03    3.61      10.7  T
   5   -121.1589882 -0.612437E-07  0.467E-04    3.61      24.9  T
   6   -121.1589882 -0.363040E-08  0.251E-04    3.61      46.3  T
     SCC iter.                  ...        0 min,  0.121 sec
     gradient                   ...        0 min,  0.160 sec
 * total energy  :  -119.4103848 Eh     change       -0.1439537E-03 Eh
   gradient norm :     0.0064969 Eh/α   predicted     0.0000000E+00 (-100.00%)
   displ. norm   :     0.0597872 α      lambda       -0.1164297E-03
   maximum displ.:     0.0239208 α      in ANC's #11, #10, #3, ...

........................................................................
.............................. CYCLE   44 ..............................
........................................................................
   1   -121.1591846 -0.121159E+03  0.185E-02    3.62       0.0  T
   2   -121.1591854 -0.749667E-06  0.109E-02    3.62       1.1  T
   3   -121.1591849  0.496459E-06  0.335E-03    3.62       3.5  T
   4   -121.1591855 -0.637221E-06  0.639E-04    3.62      18.2  T
   5   -121.1591855 -0.230820E-07  0.256E-04    3.62      45.4  T
     SCC iter.                  ...        0 min,  0.102 sec
     gradient                   ...        0 min,  0.125 sec
 * total energy  :  -119.4104614 Eh     change       -0.7659136E-04 Eh
   gradient norm :     0.0022966 Eh/α   predicted    -0.5844759E-04 ( -23.69%)
   displ. norm   :     0.1100390 α      lambda       -0.8900302E-04
   maximum displ.:     0.0460846 α      in ANC's #11, #10, #3, ...

........................................................................
.............................. CYCLE   45 ..............................
........................................................................
   1   -121.1593557 -0.121159E+03  0.251E-02    3.63       0.0  T
   2   -121.1593566 -0.902179E-06  0.147E-02    3.62       1.0  T
   3   -121.1593560  0.644042E-06  0.365E-03    3.62       3.2  T
   4   -121.1593568 -0.806169E-06  0.776E-04    3.62      15.0  T
   5   -121.1593568 -0.353236E-07  0.294E-04    3.62      39.5  T
     SCC iter.                  ...        0 min,  0.104 sec
     gradient                   ...        0 min,  0.157 sec
 * total energy  :  -119.4105252 Eh     change       -0.6377427E-04 Eh
   gradient norm :     0.0030293 Eh/α   predicted    -0.4504074E-04 ( -29.37%)
   displ. norm   :     0.1869592 α      lambda       -0.9758111E-04
   maximum displ.:     0.0798005 α      in ANC's #11, #10, #3, ...

........................................................................
.............................. CYCLE   46 ..............................
........................................................................
   1   -121.1592005 -0.121159E+03  0.415E-02    3.62       0.0  T
   2   -121.1592021 -0.161204E-05  0.242E-02    3.62       1.0  T
   3   -121.1592007  0.141445E-05  0.501E-03    3.62       2.3  T
   4   -121.1592024 -0.174208E-05  0.105E-03    3.62      11.1  T
   5   -121.1592025 -0.679704E-07  0.419E-04    3.62      27.8  T
   6   -121.1592025 -0.174992E-08  0.199E-04    3.62      58.4  T
     SCC iter.                  ...        0 min,  0.126 sec
     gradient                   ...        0 min,  0.160 sec
 * total energy  :  -119.4106020 Eh     change       -0.7684675E-04 Eh
   gradient norm :     0.0045677 Eh/α   predicted    -0.5052828E-04 ( -34.25%)
   displ. norm   :     0.2831269 α      lambda       -0.1230344E-03
   maximum displ.:     0.1197164 α      in ANC's #11, #3, #10, ...

........................................................................
.............................. CYCLE   47 ..............................
........................................................................
   1   -121.1586619 -0.121159E+03  0.619E-02    3.61       0.0  T
   2   -121.1586648 -0.284770E-05  0.362E-02    3.62       1.0  T
   3   -121.1586624  0.237559E-05  0.639E-03    3.62       1.8  T
   4   -121.1586654 -0.296334E-05  0.135E-03    3.62       8.6  T
   5   -121.1586655 -0.106520E-06  0.589E-04    3.62      19.7  T
   6   -121.1586655 -0.441044E-08  0.273E-04    3.62      42.5  T
     SCC iter.                  ...        0 min,  0.121 sec
     gradient                   ...        0 min,  0.131 sec
 * total energy  :  -119.4106939 Eh     change       -0.9189905E-04 Eh
   gradient norm :     0.0042152 Eh/α   predicted    -0.6645467E-04 ( -27.69%)
   displ. norm   :     0.2574769 α      lambda       -0.8873860E-04
   maximum displ.:     0.1128676 α      in ANC's #3, #11, #1, ...

........................................................................
.............................. CYCLE   48 ..............................
........................................................................
   1   -121.1586189 -0.121159E+03  0.551E-02    3.61       0.0  T
   2   -121.1586206 -0.164296E-05  0.323E-02    3.62       1.0  T
   3   -121.1586192  0.140054E-05  0.473E-03    3.62       2.5  T
   4   -121.1586209 -0.175943E-05  0.101E-03    3.62      11.5  T
   5   -121.1586210 -0.555326E-07  0.472E-04    3.62      24.6  T
   6   -121.1586210 -0.323355E-08  0.216E-04    3.62      53.9  T
     SCC iter.                  ...        0 min,  0.125 sec
     gradient                   ...        0 min,  0.131 sec
 * total energy  :  -119.4107594 Eh     change       -0.6552193E-04 Eh
   gradient norm :     0.0028210 Eh/α   predicted    -0.4731898E-04 ( -27.78%)
   displ. norm   :     0.1985610 α      lambda       -0.6491397E-04
   maximum displ.:     0.0952791 α      in ANC's #3, #1, #6, ...

........................................................................
.............................. CYCLE   49 ..............................
........................................................................
   1   -121.1593396 -0.121159E+03  0.399E-02    3.62       0.0  T
   2   -121.1593403 -0.671596E-06  0.234E-02    3.62       1.0  T
   3   -121.1593396  0.661222E-06  0.313E-03    3.62       3.7  T
   4   -121.1593404 -0.819106E-06  0.662E-04    3.62      17.6  T
   5   -121.1593405 -0.232962E-07  0.310E-04    3.62      37.5  T
     SCC iter.                  ...        0 min,  0.101 sec
     gradient                   ...        0 min,  0.150 sec
 * total energy  :  -119.4108106 Eh     change       -0.5118857E-04 Eh
   gradient norm :     0.0020168 Eh/α   predicted    -0.3373711E-04 ( -34.09%)
   displ. norm   :     0.2115597 α      lambda       -0.6815862E-04
   maximum displ.:     0.1071932 α      in ANC's #3, #1, #6, ...

........................................................................
.............................. CYCLE   50 ..............................
........................................................................
   1   -121.1600420 -0.121160E+03  0.385E-02    3.63       0.0  T
   2   -121.1600426 -0.602454E-06  0.226E-02    3.63       1.0  T
   3   -121.1600419  0.664699E-06  0.313E-03    3.63       3.7  T
   4   -121.1600428 -0.811356E-06  0.641E-04    3.63      18.1  T
   5   -121.1600428 -0.221134E-07  0.289E-04    3.63      40.2  T
     SCC iter.                  ...        0 min,  0.104 sec
     gradient                   ...        0 min,  0.148 sec
 * total energy  :  -119.4108671 Eh     change       -0.5652155E-04 Eh
   gradient norm :     0.0027672 Eh/α   predicted    -0.3560790E-04 ( -37.00%)
   displ. norm   :     0.2718577 α      lambda       -0.8535478E-04
   maximum displ.:     0.1404478 α      in ANC's #3, #6, #1, ...

........................................................................
.............................. CYCLE   51 ..............................
........................................................................
   1   -121.1601969 -0.121160E+03  0.448E-02    3.63       0.0  T
   2   -121.1601975 -0.629191E-06  0.263E-02    3.63       1.0  T
   3   -121.1601967  0.813032E-06  0.341E-03    3.63       3.4  T
   4   -121.1601977 -0.100683E-05  0.681E-04    3.63      17.1  T
   5   -121.1601977 -0.198679E-07  0.329E-04    3.63      35.3  T
   6   -121.1601977 -0.953747E-09  0.164E-04    3.63      71.0  T
     SCC iter.                  ...        0 min,  0.124 sec
     gradient                   ...        0 min,  0.146 sec
 * total energy  :  -119.4109409 Eh     change       -0.7380739E-04 Eh
   gradient norm :     0.0037094 Eh/α   predicted    -0.4585714E-04 ( -37.87%)
   displ. norm   :     0.3557993 α      lambda       -0.1148537E-03
   maximum displ.:     0.1898607 α      in ANC's #6, #3, #1, ...

........................................................................
.............................. CYCLE   52 ..............................
........................................................................
   1   -121.1598634 -0.121160E+03  0.526E-02    3.63       0.0  T
   2   -121.1598642 -0.776627E-06  0.309E-02    3.63       1.0  T
   3   -121.1598632  0.102120E-05  0.381E-03    3.63       3.1  T
   4   -121.1598645 -0.129375E-05  0.790E-04    3.63      14.7  T
   5   -121.1598645 -0.222416E-07  0.403E-04    3.63      28.9  T
   6   -121.1598645 -0.987555E-09  0.171E-04    3.63      68.1  T
     SCC iter.                  ...        0 min,  0.119 sec
     gradient                   ...        0 min,  0.141 sec
 * total energy  :  -119.4110420 Eh     change       -0.1010126E-03 Eh
   gradient norm :     0.0039343 Eh/α   predicted    -0.6469760E-04 ( -35.95%)
   displ. norm   :     0.4284539 α      lambda       -0.1420048E-03
   maximum displ.:     0.2371743 α      in ANC's #6, #3, #1, ...

........................................................................
.............................. CYCLE   53 ..............................
........................................................................
   1   -121.1592998 -0.121159E+03  0.566E-02    3.63       0.0  T
   2   -121.1593009 -0.110286E-05  0.332E-02    3.63       1.0  T
   3   -121.1592998  0.111738E-05  0.409E-03    3.63       2.8  T
   4   -121.1593012 -0.145085E-05  0.965E-04    3.63      12.0  T
   5   -121.1593013 -0.394399E-07  0.483E-04    3.63      24.1  T
   6   -121.1593013 -0.130910E-08  0.189E-04    3.63      61.6  T
     SCC iter.                  ...        0 min,  0.121 sec
     gradient                   ...        0 min,  0.130 sec
 * total energy  :  -119.4111666 Eh     change       -0.1246007E-03 Eh
   gradient norm :     0.0033208 Eh/α   predicted    -0.8404045E-04 ( -32.55%)
   displ. norm   :     0.4806229 α      lambda       -0.1595939E-03
   maximum displ.:     0.2717819 α      in ANC's #6, #3, #1, ...

........................................................................
.............................. CYCLE   54 ..............................
........................................................................
   1   -121.1588228 -0.121159E+03  0.574E-02    3.62       0.0  T
   2   -121.1588243 -0.150129E-05  0.336E-02    3.62       1.0  T
   3   -121.1588231  0.123981E-05  0.443E-03    3.62       2.6  T
   4   -121.1588247 -0.161249E-05  0.114E-03    3.62      10.2  T
   5   -121.1588248 -0.684258E-07  0.548E-04    3.62      21.2  T
   6   -121.1588248 -0.198500E-08  0.226E-04    3.62      51.4  T
     SCC iter.                  ...        0 min,  0.129 sec
     gradient                   ...        0 min,  0.134 sec
 * total energy  :  -119.4113053 Eh     change       -0.1386993E-03 Eh
   gradient norm :     0.0026256 Eh/α   predicted    -0.9824807E-04 ( -29.16%)
   displ. norm   :     0.5343374 α      lambda       -0.1752075E-03
   maximum displ.:     0.3046505 α      in ANC's #6, #3, #1, ...

........................................................................
.............................. CYCLE   55 ..............................
........................................................................
   1   -121.1584637 -0.121158E+03  0.595E-02    3.62       0.0  T
   2   -121.1584655 -0.178484E-05  0.348E-02    3.62       1.0  T
   3   -121.1584639  0.166126E-05  0.500E-03    3.62       2.3  T
   4   -121.1584660 -0.210188E-05  0.129E-03    3.62       9.0  T
   5   -121.1584661 -0.945359E-07  0.605E-04    3.62      19.2  T
   6   -121.1584661 -0.274595E-08  0.260E-04    3.62      44.7  T
     SCC iter.                  ...        0 min,  0.121 sec
     gradient                   ...        0 min,  0.147 sec
 * total energy  :  -119.4114559 Eh     change       -0.1506871E-03 Eh
   gradient norm :     0.0030965 Eh/α   predicted    -0.1126169E-03 ( -25.26%)
   displ. norm   :     0.6092359 α      lambda       -0.2025923E-03
   maximum displ.:     0.3465945 α      in ANC's #6, #3, #1, ...

........................................................................
.............................. CYCLE   56 ..............................
........................................................................
   1   -121.1584024 -0.121158E+03  0.650E-02    3.61       0.0  T
   2   -121.1584045 -0.208658E-05  0.380E-02    3.61       1.0  T
   3   -121.1584018  0.270787E-05  0.609E-03    3.61       1.9  T
   4   -121.1584051 -0.331559E-05  0.141E-03    3.61       8.2  T
   5   -121.1584052 -0.112731E-06  0.674E-04    3.61      17.2  T
   6   -121.1584052 -0.350467E-08  0.293E-04    3.61      39.7  T
     SCC iter.                  ...        0 min,  0.120 sec
     gradient                   ...        0 min,  0.148 sec
 * total energy  :  -119.4116275 Eh     change       -0.1715252E-03 Eh
   gradient norm :     0.0044543 Eh/α   predicted    -0.1388965E-03 ( -19.02%)
   displ. norm   :     0.6022569 α      lambda       -0.2255208E-03
   maximum displ.:     0.3329424 α      in ANC's #6, #3, #1, ...

........................................................................
.............................. CYCLE   57 ..............................
........................................................................
   1   -121.1595688 -0.121160E+03  0.636E-02    3.61       0.0  T
   2   -121.1595706 -0.182936E-05  0.373E-02    3.61       1.0  T
   3   -121.1595669  0.370059E-05  0.679E-03    3.61       1.7  T
   4   -121.1595713 -0.439635E-05  0.131E-03    3.61       8.9  T
   5   -121.1595714 -0.911361E-07  0.649E-04    3.61      17.9  T
   6   -121.1595714 -0.284670E-08  0.277E-04    3.61      42.0  T
     SCC iter.                  ...        0 min,  0.122 sec
     gradient                   ...        0 min,  0.135 sec
 * total energy  :  -119.4118207 Eh     change       -0.1932127E-03 Eh
   gradient norm :     0.0052854 Eh/α   predicted    -0.1536623E-03 ( -20.47%)
   displ. norm   :     0.6433964 α      lambda       -0.2703240E-03
   maximum displ.:     0.3624626 α      in ANC's #3, #1, #6, ...

........................................................................
.............................. CYCLE   58 ..............................
........................................................................
   1   -121.1590181 -0.121159E+03  0.680E-02    3.61       0.0  T
   2   -121.1590200 -0.192558E-05  0.401E-02    3.61       1.0  T
   3   -121.1590152  0.480008E-05  0.758E-03    3.61       1.5  T
   4   -121.1590209 -0.563801E-05  0.135E-03    3.61       8.6  T
   5   -121.1590210 -0.910948E-07  0.678E-04    3.61      17.1  T
   6   -121.1590210 -0.192271E-08  0.282E-04    3.61      41.3  T
     SCC iter.                  ...        0 min,  0.122 sec
     gradient                   ...        0 min,  0.141 sec
 * total energy  :  -119.4120505 Eh     change       -0.2297712E-03 Eh
   gradient norm :     0.0053618 Eh/α   predicted    -0.1911254E-03 ( -16.82%)
   displ. norm   :     0.5617381 α      lambda       -0.4406601E-03
   maximum displ.:     0.2708283 α      in ANC's #3, #1, #6, ...

........................................................................
.............................. CYCLE   59 ..............................
........................................................................
   1   -121.1716989 -0.121172E+03  0.897E-02    3.62       0.0  T
   2   -121.1717048 -0.581812E-05  0.531E-02    3.62       1.0  T
   3   -121.1716963  0.849226E-05  0.109E-02    3.63       1.1  T
   4   -121.1717063 -0.999355E-05  0.243E-03    3.63       4.8  T
   5   -121.1717066 -0.380246E-06  0.106E-03    3.63      11.0  T
   6   -121.1717067 -0.674653E-08  0.488E-04    3.63      23.8  T
   7   -121.1717067 -0.785839E-08  0.138E-04    3.63      84.5  T
     SCC iter.                  ...        0 min,  0.146 sec
     gradient                   ...        0 min,  0.141 sec
 * total energy  :  -119.4120551 Eh     change       -0.4652827E-05 Eh
   gradient norm :     0.0099230 Eh/α   predicted    -0.2898594E-03 (6129.75%)
   displ. norm   :     0.4587575 α      lambda       -0.5785425E-03
   maximum displ.:     0.2605777 α      in ANC's #3, #1, #6, ...

........................................................................
.............................. CYCLE   60 ..............................
........................................................................
   1   -121.1604238 -0.121160E+03  0.591E-02    3.62       0.0  T
   2   -121.1604255 -0.166431E-05  0.350E-02    3.62       1.0  T
   3   -121.1604232  0.225771E-05  0.620E-03    3.62       1.9  T
   4   -121.1604261 -0.282018E-05  0.108E-03    3.62      10.7  T
   5   -121.1604261 -0.321526E-07  0.597E-04    3.62      19.5  T
   6   -121.1604261 -0.277414E-08  0.222E-04    3.62      52.4  T
     SCC iter.                  ...        0 min,  0.121 sec
     gradient                   ...        0 min,  0.153 sec
 * total energy  :  -119.4124004 Eh     change       -0.3452501E-03 Eh
   gradient norm :     0.0042832 Eh/α   predicted    -0.3501515E-03 (   1.42%)
   displ. norm   :     0.5851764 α      lambda       -0.1687481E-03
   maximum displ.:     0.3424622 α      in ANC's #3, #1, #6, ...

........................................................................
.............................. CYCLE   61 ..............................
........................................................................
   1   -121.1570760 -0.121157E+03  0.530E-02    3.62       0.0  T
   2   -121.1570770 -0.987122E-06  0.312E-02    3.62       1.0  T
   3   -121.1570748  0.213091E-05  0.537E-03    3.62       2.2  T
   4   -121.1570774 -0.258264E-05  0.905E-04    3.62      12.8  T
   5   -121.1570775 -0.224596E-07  0.502E-04    3.62      23.1  T
   6   -121.1570775 -0.971312E-09  0.203E-04    3.62      57.3  T
     SCC iter.                  ...        0 min,  0.122 sec
     gradient                   ...        0 min,  0.127 sec
 * total energy  :  -119.4125276 Eh     change       -0.1271979E-03 Eh
   gradient norm :     0.0056881 Eh/α   predicted    -0.1132683E-03 ( -10.95%)
   displ. norm   :     0.3988525 α      lambda       -0.2752850E-03
   maximum displ.:     0.2413858 α      in ANC's #3, #1, #6, ...

........................................................................
.............................. CYCLE   62 ..............................
........................................................................
   1   -121.1588788 -0.121159E+03  0.413E-02    3.62       0.0  T
   2   -121.1588827 -0.390325E-05  0.244E-02    3.62       1.0  T
   3   -121.1588802  0.257402E-05  0.734E-03    3.62       1.6  T
   4   -121.1588835 -0.330507E-05  0.173E-03    3.63       6.7  T
   5   -121.1588837 -0.214087E-06  0.693E-04    3.63      16.8  T
   6   -121.1588837 -0.474191E-08  0.336E-04    3.62      34.6  T
     SCC iter.                  ...        0 min,  0.122 sec
     gradient                   ...        0 min,  0.144 sec
 * total energy  :  -119.4127081 Eh     change       -0.1805038E-03 Eh
   gradient norm :     0.0057897 Eh/α   predicted    -0.1595445E-03 ( -11.61%)
   displ. norm   :     0.4785484 α      lambda       -0.1939592E-03
   maximum displ.:     0.2934870 α      in ANC's #3, #1, #6, ...

........................................................................
.............................. CYCLE   63 ..............................
........................................................................
   1   -121.1601910 -0.121160E+03  0.402E-02    3.62       0.0  T
   2   -121.1601927 -0.168100E-05  0.236E-02    3.63       1.0  T
   3   -121.1601914  0.132533E-05  0.510E-03    3.63       2.3  T
   4   -121.1601931 -0.170066E-05  0.107E-03    3.63      10.9  T
   5   -121.1601931 -0.614272E-07  0.504E-04    3.63      23.1  T
   6   -121.1601931 -0.205489E-08  0.213E-04    3.63      54.5  T
     SCC iter.                  ...        0 min,  0.140 sec
     gradient                   ...        0 min,  0.128 sec
 * total energy  :  -119.4128570 Eh     change       -0.1489919E-03 Eh
   gradient norm :     0.0038232 Eh/α   predicted    -0.1191919E-03 ( -20.00%)
   displ. norm   :     0.4992431 α      lambda       -0.1715398E-03
   maximum displ.:     0.3121163 α      in ANC's #3, #1, #6, ...

........................................................................
.............................. CYCLE   64 ..............................
........................................................................
   1   -121.1615888 -0.121162E+03  0.419E-02    3.62       0.0  T
   2   -121.1615906 -0.175527E-05  0.246E-02    3.63       1.0  T
   3   -121.1615885  0.207861E-05  0.564E-03    3.63       2.1  T
   4   -121.1615910 -0.255565E-05  0.121E-03    3.63       9.6  T
   5   -121.1615911 -0.822652E-07  0.541E-04    3.63      21.5  T
   6   -121.1615911 -0.211242E-08  0.238E-04    3.63      48.7  T
     SCC iter.                  ...        0 min,  0.121 sec
     gradient                   ...        0 min,  0.129 sec
 * total energy  :  -119.4129873 Eh     change       -0.1302688E-03 Eh
   gradient norm :     0.0029870 Eh/α   predicted    -0.1071494E-03 ( -17.75%)
   displ. norm   :     0.5131816 α      lambda       -0.1451071E-03
   maximum displ.:     0.3259904 α      in ANC's #3, #1, #6, ...

........................................................................
.............................. CYCLE   65 ..............................
........................................................................
   1   -121.1617329 -0.121162E+03  0.442E-02    3.62       0.0  T
   2   -121.1617339 -0.941344E-06  0.260E-02    3.63       1.0  T
   3   -121.1617315  0.231388E-05  0.541E-03    3.63       2.2  T
   4   -121.1617343 -0.279930E-05  0.844E-04    3.63      13.8  T
   5   -121.1617344 -0.150048E-07  0.484E-04    3.63      24.0  T
   6   -121.1617344 -0.290140E-08  0.195E-04    3.63      59.7  T
     SCC iter.                  ...        0 min,  0.121 sec
     gradient                   ...        0 min,  0.136 sec
 * total energy  :  -119.4131059 Eh     change       -0.1186091E-03 Eh
   gradient norm :     0.0031208 Eh/α   predicted    -0.9166666E-04 ( -22.72%)
   displ. norm   :     0.5152654 α      lambda       -0.1728753E-03
   maximum displ.:     0.3275490 α      in ANC's #3, #1, #9, ...

........................................................................
.............................. CYCLE   66 ..............................
........................................................................
   1   -121.1642940 -0.121164E+03  0.512E-02    3.62       0.0  T
   2   -121.1642957 -0.166068E-05  0.302E-02    3.62       1.0  T
   3   -121.1642926  0.311277E-05  0.628E-03    3.62       1.9  T
   4   -121.1642964 -0.376325E-05  0.110E-03    3.62      10.6  T
   5   -121.1642964 -0.491016E-07  0.577E-04    3.62      20.1  T
   6   -121.1642964 -0.321889E-08  0.255E-04    3.62      45.6  T
[...]
       100        2.0000           -0.4067703             -11.0688
       101        2.0000           -0.4060555             -11.0493
       102        2.0000           -0.3997140             -10.8768
       103        2.0000           -0.3986424             -10.8476
       104        2.0000           -0.3948570             -10.7446
       105        2.0000           -0.3921573             -10.6711
       106        2.0000           -0.3904001             -10.6233
       107        2.0000           -0.3855685             -10.4919 (HOMO)
       108                         -0.2521015              -6.8600 (LUMO)
       109                         -0.2399861              -6.5304
       110                         -0.2337500              -6.3607
       111                         -0.2290232              -6.2320
       112                         -0.2271734              -6.1817
       113                         -0.2242093              -6.1010
       114                         -0.2241126              -6.0984
       115                         -0.2203321              -5.9955
       116                         -0.2193732              -5.9694
       117                         -0.2179753              -5.9314
       118                         -0.2171088              -5.9078
       ...                                ...                  ...
       200                          0.6710035              18.2589
      -------------------------------------------------------------
                  HL-Gap            0.1334670 Eh            3.6318 eV
             Fermi-level           -0.3188350 Eh           -8.6759 eV

     #   Z          covCN         q      C6AA      α(0)
     1   6 C        2.870     0.134    25.062     8.206
     2   8 O        1.705    -0.279    18.631     5.828
     3   6 C        3.643     0.037    20.290     6.476
     4   6 C        2.917    -0.066    29.651     8.929
     5   6 C        2.921    -0.031    28.783     8.798
     6   6 C        2.918    -0.038    28.937     8.821
     7   6 C        2.922    -0.035    28.860     8.810
     8   6 C        2.971    -0.027    28.682     8.785
     9   6 C        3.824     0.040    19.890     6.346
    10   6 C        3.820     0.053    19.668     6.311
    11   6 C        2.971    -0.010    28.269     8.721
    12   6 C        2.925    -0.025    28.637     8.776
    13   6 C        2.918    -0.039    28.960     8.825
    14   6 C        2.921    -0.030    28.754     8.793
    15   6 C        2.917    -0.065    29.629     8.926
    16   6 C        2.865     0.141    24.928     8.184
    17   8 O        1.705    -0.284    18.724     5.842
    18   6 C        3.641     0.040    20.259     6.472
    19   7 N        2.756    -0.138    23.988     7.274
    20   6 C        2.756     0.273    22.385     7.748
    21   6 C        3.811    -0.089    22.190     6.705
    22   6 C        2.973     0.022    27.516     8.604
    23   6 C        2.925    -0.037    28.920     8.819
    24   6 C        2.920    -0.029    28.722     8.788
    25   6 C        2.920    -0.031    28.771     8.796
    26   6 C        2.920    -0.028    28.690     8.784
    27   6 C        2.925    -0.027    28.670     8.781
    28   8 O        0.859    -0.420    22.084     6.301
    29   6 C        3.769     0.072    19.417     6.280
    30   6 C        2.686     0.346    21.123     7.521
    31   8 O        1.659    -0.359    20.078     6.049
    32   8 O        0.856    -0.347    20.655     6.093
    33   7 N        2.756    -0.108    23.354     7.177
    34   6 C        2.762     0.281    22.235     7.722
    35   6 C        3.811    -0.089    22.180     6.704
    36   6 C        2.971     0.013    27.727     8.637
    37   6 C        2.924    -0.038    28.955     8.824
    38   6 C        2.920    -0.030    28.754     8.793
    39   6 C        2.920    -0.032    28.798     8.800
    40   6 C        2.920    -0.027    28.678     8.782
    41   6 C        2.925    -0.036    28.886     8.814
    42   8 O        0.859    -0.424    22.163     6.312
    43   1 H        0.924     0.043     2.405     2.425
    44   1 H        0.925     0.064     2.152     2.294
    45   1 H        0.924     0.043     2.407     2.426
    46   1 H        0.926     0.041     2.435     2.440
    47   1 H        0.926     0.042     2.427     2.436
    48   1 H        0.926     0.045     2.377     2.411
    49   1 H        0.926     0.048     2.345     2.395
    50   1 H        0.924     0.073     2.053     2.240
    51   1 H        0.924     0.050     2.314     2.379
    52   1 H        0.926     0.044     2.394     2.420
    53   1 H        0.926     0.039     2.457     2.451
    54   1 H        0.926     0.039     2.459     2.452
    55   1 H        0.926     0.040     2.452     2.449
    56   1 H        0.924     0.039     2.458     2.452
    57   1 H        0.924     0.038     2.479     2.462
    58   1 H        0.925     0.074     2.045     2.237
    59   1 H        0.924     0.064     2.154     2.295
    60   1 H        0.924     0.047     2.352     2.398
    61   1 H        0.925     0.030     2.588     2.516
    62   1 H        0.926     0.032     2.553     2.499
    63   1 H        0.926     0.031     2.566     2.505
    64   1 H        0.926     0.033     2.548     2.496
    65   1 H        0.926     0.035     2.515     2.480
    66   1 H        0.923     0.101     1.774     2.083
    67   1 H        0.804     0.332     0.632     1.248
    68   1 H        0.924     0.053     2.280     2.361
    69   1 H        0.924     0.076     2.026     2.226
    70   1 H        0.925     0.025     2.652     2.547
    71   1 H        0.926     0.028     2.613     2.528
    72   1 H        0.926     0.032     2.551     2.498
    73   1 H        0.926     0.038     2.469     2.457
    74   1 H        0.926     0.044     2.393     2.419

 Mol. C6AA /au·bohr⁶  :      66837.984099
 Mol. C8AA /au·bohr⁸  :    1607470.668596
 Mol. α(0) /au        :        404.884919


Wiberg/Mayer (AO) data.
largest (>0.10) Wiberg bond orders for each atom

 ---------------------------------------------------------------------------
     #   Z sym  total        # sym  WBO       # sym  WBO       # sym  WBO
 ---------------------------------------------------------------------------
     1   6 C    3.933 --     4 C    1.391     8 C    1.315     2 O    1.055
     2   8 O    2.225 --     1 C    1.055     3 C    0.982
     3   6 C    3.943 --     2 O    0.982    44 H    0.979    43 H    0.977
                            45 H    0.976
     4   6 C    3.987 --     5 C    1.426     1 C    1.391    46 H    0.965
                             7 C    0.102
     5   6 C    3.990 --     6 C    1.452     4 C    1.426    47 H    0.971
                             8 C    0.106
     6   6 C    3.991 --     5 C    1.452     7 C    1.415    48 H    0.970
     7   6 C    3.989 --     8 C    1.446     6 C    1.415    49 H    0.961
                             4 C    0.102
     8   6 C    3.982 --     7 C    1.446     1 C    1.315     9 C    0.989
                             5 C    0.106
     9   6 C    3.966 --     8 C    0.989    33 N    0.977    10 C    0.944
                            50 H    0.943
    10   6 C    3.965 --    11 C    0.993    51 H    0.958    19 N    0.953
                             9 C    0.944
    11   6 C    3.983 --    12 C    1.436    16 C    1.325    10 C    0.993
                            14 C    0.107
    12   6 C    3.988 --    11 C    1.436    13 C    1.425    52 H    0.967
                            15 C    0.102
    13   6 C    3.991 --    14 C    1.445    12 C    1.425    53 H    0.971
    14   6 C    3.990 --    13 C    1.445    15 C    1.433    54 H    0.971
                            11 C    0.107
    15   6 C    3.988 --    14 C    1.433    16 C    1.384    55 H    0.965
                            12 C    0.102
    16   6 C    3.934 --    15 C    1.384    11 C    1.325    17 O    1.055
    17   8 O    2.220 --    16 C    1.055    18 C    0.981
    18   6 C    3.942 --    17 O    0.981    56 H    0.977    57 H    0.977
                            58 H    0.976
    19   7 N    3.454 --    20 C    1.188    29 C    0.987    10 C    0.953
                            28 O    0.181
    20   6 C    3.946 --    28 O    1.712    19 N    1.188    21 C    0.953
    21   6 C    3.995 --    22 C    1.009    60 H    0.961    20 C    0.953
                            59 H    0.943
    22   6 C    3.987 --    23 C    1.418    27 C    1.411    21 C    1.009
                            25 C    0.109
    23   6 C    3.991 --    24 C    1.442    22 C    1.418    61 H    0.969
                            26 C    0.111
    24   6 C    3.992 --    23 C    1.442    25 C    1.441    62 H    0.971
                            27 C    0.112
    25   6 C    3.992 --    24 C    1.441    26 C    1.437    63 H    0.971
                            22 C    0.109
    26   6 C    3.993 --    27 C    1.447    25 C    1.437    64 H    0.971
                            23 C    0.111
    27   6 C    3.991 --    26 C    1.447    22 C    1.411    65 H    0.970
                            24 C    0.112
    28   8 O    2.028 --    20 C    1.712    19 N    0.181
    29   6 C    3.959 --    19 N    0.987    33 N    0.981    66 H    0.926
                            30 C    0.902
    30   6 C    3.923 --    32 O    1.803    31 O    1.148    29 C    0.902
    31   8 O    2.225 --    30 C    1.148    67 H    0.846    32 O    0.172
    32   8 O    2.092 --    30 C    1.803    31 O    0.172
    33   7 N    3.454 --    34 C    1.196    29 C    0.981     9 C    0.977
                            42 O    0.176
    34   6 C    3.942 --    42 O    1.702    33 N    1.196    35 C    0.961
    35   6 C    3.994 --    36 C    1.000    34 C    0.961    69 H    0.958
                            68 H    0.952
    36   6 C    3.987 --    37 C    1.416    41 C    1.407    35 C    1.000
                            39 C    0.109
    37   6 C    3.992 --    38 C    1.439    36 C    1.416    70 H    0.969
                            40 C    0.110
    38   6 C    3.992 --    39 C    1.443    37 C    1.439    71 H    0.971
                            41 C    0.112
    39   6 C    3.991 --    38 C    1.443    40 C    1.434    72 H    0.971
                            36 C    0.109
    40   6 C    3.992 --    41 C    1.450    39 C    1.434    73 H    0.971
                            37 C    0.110
    41   6 C    3.991 --    40 C    1.450    36 C    1.407    74 H    0.969
                            38 C    0.112
    42   8 O    2.021 --    34 C    1.702    33 N    0.176
    43   1 H    0.998 --     3 C    0.977
    44   1 H    0.995 --     3 C    0.979
    45   1 H    0.998 --     3 C    0.976
    46   1 H    0.998 --     4 C    0.965
    47   1 H    0.998 --     5 C    0.971
    48   1 H    0.997 --     6 C    0.970
    49   1 H    0.997 --     7 C    0.961
    50   1 H    0.994 --     9 C    0.943
    51   1 H    0.997 --    10 C    0.958
    52   1 H    0.997 --    12 C    0.967
    53   1 H    0.998 --    13 C    0.971
    54   1 H    0.998 --    14 C    0.971
    55   1 H    0.998 --    15 C    0.965
    56   1 H    0.998 --    18 C    0.977
    57   1 H    0.999 --    18 C    0.977
    58   1 H    0.994 --    18 C    0.976
    59   1 H    0.996 --    21 C    0.943
    60   1 H    0.997 --    21 C    0.961
    61   1 H    0.999 --    23 C    0.969
    62   1 H    0.999 --    24 C    0.971
    63   1 H    0.999 --    25 C    0.971
    64   1 H    0.999 --    26 C    0.971
    65   1 H    0.999 --    27 C    0.970
    66   1 H    0.989 --    29 C    0.926
    67   1 H    0.890 --    31 O    0.846
    68   1 H    0.997 --    35 C    0.952
    69   1 H    0.994 --    35 C    0.958
    70   1 H    0.999 --    37 C    0.969
    71   1 H    0.999 --    38 C    0.971
    72   1 H    0.998 --    39 C    0.971
    73   1 H    0.998 --    40 C    0.971
    74   1 H    0.998 --    41 C    0.969
 ---------------------------------------------------------------------------

Topologies differ in total number of bonds
Writing topology from bond orders to xtbtopo.mol

molecular dipole:
                 x           y           z       tot (Debye)
 q only:       -0.994      -1.940      -0.366
   full:       -1.080      -2.402      -0.194       6.712
molecular quadrupole (traceless):
                xx          xy          yy          xz          yz          zz
 q only:        2.987      12.026     -12.360      10.078      -1.788       9.372
  q+dip:       -1.095      14.676     -13.806      15.082      -6.201      14.901
   full:        2.609      15.058     -16.527      12.641      -3.641      13.919

           -------------------------------------------------
          |                Geometry Summary                 |
           -------------------------------------------------

      molecular mass/u    :      564.6289605
   center of mass at/Å    :        0.0693209       0.1777642      -0.0131119
  moments of inertia/u·Å² :        0.3571633E+04   0.7726203E+04   0.8551511E+04
rotational constants/cm⁻¹ :        0.4719867E-02   0.2181878E-02   0.1971304E-02

 * 70 selected distances

     #   Z          #   Z                                           value/Å
     1   6 C        2   8 O                                       1.3654887
     2   8 O        3   6 C                                       1.4074648
     1   6 C        4   6 C                                       1.3869293
     4   6 C        5   6 C                                       1.3858537
     5   6 C        6   6 C                                       1.3798731
     6   6 C        7   6 C                                       1.3857897
     1   6 C        8   6 C                                       1.4044437
     7   6 C        8   6 C                                       1.3814152
    11   6 C       12   6 C                                       1.3829447
    12   6 C       13   6 C                                       1.3840281
    13   6 C       14   6 C                                       1.3811475
    14   6 C       15   6 C                                       1.3845679
    11   6 C       16   6 C                                       1.4034239
    15   6 C       16   6 C                                       1.3886073
    16   6 C       17   8 O                                       1.3657896
    17   8 O       18   6 C                                       1.4079793
    10   6 C       19   7 N                                       1.4633738 (max)
    19   7 N       20   6 C                                       1.3662088
    22   6 C       23   6 C                                       1.3876812
    23   6 C       24   6 C                                       1.3838007
    24   6 C       25   6 C                                       1.3839404
    25   6 C       26   6 C                                       1.3845541
    22   6 C       27   6 C                                       1.3884039
    26   6 C       27   6 C                                       1.3829194
    20   6 C       28   8 O                                       1.2096633
    19   7 N       29   6 C                                       1.4413166
    30   6 C       31   8 O                                       1.3339992
    30   6 C       32   8 O                                       1.1941524
     9   6 C       33   7 N                                       1.4466567
    29   6 C       33   7 N                                       1.4464209
    33   7 N       34   6 C                                       1.3643513
    36   6 C       37   6 C                                       1.3876693
    37   6 C       38   6 C                                       1.3839216
    38   6 C       39   6 C                                       1.3831090
    39   6 C       40   6 C                                       1.3847724
    36   6 C       41   6 C                                       1.3899973
    40   6 C       41   6 C                                       1.3822964
    34   6 C       42   8 O                                       1.2122002
     3   6 C       43   1 H                                       1.0945318
     3   6 C       44   1 H                                       1.0890445
     3   6 C       45   1 H                                       1.0943807
     4   6 C       46   1 H                                       1.0783700
     5   6 C       47   1 H                                       1.0795051
     6   6 C       48   1 H                                       1.0781676
     7   6 C       49   1 H                                       1.0774113
     9   6 C       50   1 H                                       1.0928451
    10   6 C       51   1 H                                       1.0968519
    12   6 C       52   1 H                                       1.0789918
    13   6 C       53   1 H                                       1.0790073
    14   6 C       54   1 H                                       1.0798149
    15   6 C       55   1 H                                       1.0785312
    18   6 C       56   1 H                                       1.0944525
    18   6 C       57   1 H                                       1.0944230
    18   6 C       58   1 H                                       1.0896006
    21   6 C       59   1 H                                       1.0945637
    21   6 C       60   1 H                                       1.0913732
    23   6 C       61   1 H                                       1.0812898
    24   6 C       62   1 H                                       1.0802236
    25   6 C       63   1 H                                       1.0800831
    26   6 C       64   1 H                                       1.0801683
    27   6 C       65   1 H                                       1.0799347
    29   6 C       66   1 H                                       1.1006662
    31   8 O       67   1 H                                       0.9734371 (min)
    35   6 C       68   1 H                                       1.0925251
    35   6 C       69   1 H                                       1.0934744
    37   6 C       70   1 H                                       1.0815311
    38   6 C       71   1 H                                       1.0803412
    39   6 C       72   1 H                                       1.0797396
    40   6 C       73   1 H                                       1.0796996
    41   6 C       74   1 H                                       1.0802807

 * 5 distinct bonds (by element types)

   Z      Z             #   av. dist./Å        max./Å        min./Å
   1 H    6 C          31     1.0855427     1.1006662     1.0774113
   6 C    6 C          24     1.3863371     1.4044437     1.3798731
   6 C    7 N           6     1.4213880     1.4633738     1.3643513
   1 H    8 O           1     0.9734371     0.9734371     0.9734371
   6 C    8 O           8     1.3120922     1.4079793     1.1941524


optimized geometry written to: xtbopt.xyz


           -------------------------------------------------
          | TOTAL ENERGY             -119.413760453140 Eh   |
          | GRADIENT NORM               0.000268897812 Eh/α |
          | HOMO-LUMO GAP               3.631821382111 eV   |
           -------------------------------------------------

------------------------------------------------------------------------
 * finished run on 2022/03/16 at 23:04:02.961     
------------------------------------------------------------------------
 total:
 * wall-time:     0 d,  0 h,  0 min, 38.003 sec
 *  cpu-time:     0 d,  0 h, 14 min, 20.939 sec
 * ratio c/w:    22.655 speedup
 SCF:
 * wall-time:     0 d,  0 h,  0 min,  0.556 sec
 *  cpu-time:     0 d,  0 h,  0 min,  9.857 sec
 * ratio c/w:    17.722 speedup
 ANC optimizer:
 * wall-time:     0 d,  0 h,  0 min, 37.318 sec
 *  cpu-time:     0 d,  0 h, 14 min,  7.083 sec
 * ratio c/w:    22.699 speedup

