      -----------------------------------------------------------      
     |                   =====================                   |     
     |                           x T B                           |     
     |                   =====================                   |     
     |                         S. Grimme                         |     
     |          Mulliken Center for Theoretical Chemistry        |     
     |                    University of Bonn                     |     
      -----------------------------------------------------------      

   * xtb version 6.3.3 (4ae9cef) compiled by 'conda@95abc7406d43' on 2020-10-14

   xtb is free software: you can redistribute it and/or modify it under
   the terms of the GNU Lesser General Public License as published by
   the Free Software Foundation, either version 3 of the License, or
   (at your option) any later version.
   
   xtb is distributed in the hope that it will be useful,
   but WITHOUT ANY WARRANTY; without even the implied warranty of
   MERCHANTABILITY or FITNESS FOR A PARTICULAR PURPOSE.  See the
   GNU Lesser General Public License for more details.
   
   Cite this work as:
   * C. Bannwarth, E. Caldeweyher, S. Ehlert, A. Hansen, P. Pracht,
     J. Seibert, S. Spicher, S. Grimme, WIREs Comput. Mol. Sci., 2020,
     e01493. DOI: 10.1002/wcms.1493
   
   for GFN2-xTB:
   * S. Grimme, C. Bannwarth, P. Shushkov, J. Chem. Theory Comput., 2017,
     13, 1989-2009. DOI: 10.1021/acs.jctc.7b00118
   for GFN1-xTB:
   * C. Bannwarth, S. Ehlert and S. Grimme., J. Chem. Theory Comput., 2019,
     15, 1652-1671. DOI: 10.1021/acs.jctc.8b01176
   for GFN0-xTB:
   * P. Pracht, E. Caldeweyher, S. Ehlert, S. Grimme, ChemRxiv, 2019, preprint.
     DOI: 10.26434/chemrxiv.8326202.v1
   for GFN-FF:
   * S. Spicher and S. Grimme, Angew. Chem. Int. Ed., 2020, 59, 15665-15673.
     DOI: 10.1002/anie.202004239
   
   for DFT-D4:
   * E. Caldeweyher, C. Bannwarth and S. Grimme, J. Chem. Phys., 2017,
     147, 034112. DOI: 10.1063/1.4993215
   * E. Caldeweyher, S. Ehlert, A. Hansen, H. Neugebauer, S. Spicher,
     C. Bannwarth and S. Grimme, J. Chem. Phys., 2019, 150, 154122.
     DOI: 10.1063/1.5090222
   * E. Caldeweyher, J.-M. Mewes, S. Ehlert and S. Grimme, Phys. Chem. Chem. Phys.
     2020, 22, 8499-8512. DOI: 10.1039/D0CP00502A
   
   for sTDA-xTB:
   * S. Grimme and C. Bannwarth, J. Chem. Phys., 2016, 145, 054103.
     DOI: 10.1063/1.4959605
   
   in the mass-spec context:
   * V. Asgeirsson, C. Bauer and S. Grimme, Chem. Sci., 2017, 8, 4879.
     DOI: 10.1039/c7sc00601b
   * J. Koopman and S. Grimme, ACS Omega 2019, 4, 12, 15120-15133.
     DOI: 10.1021/acsomega.9b02011
   
   for metadynamics refer to:
   * S. Grimme, J. Chem. Theory Comput., 2019, 155, 2847-2862
     DOI: 10.1021/acs.jctc.9b00143
   
   with help from (in alphabetical order)
   C. Bannwarth, F. Bohle, G. Brandenburg, E. Caldeweyher, M. Checinski,
   S. Dohm, S. Ehlert, S. Ehrlich, F. März, H. Neugebauer, J. Pisarek,
   P. Pracht, P. Shushkov, and S. Spicher.
   
 * started run on 2022/03/16 at 22:43:08.315     

           -------------------------------------------------
          |                Calculation Setup                |
           -------------------------------------------------

          program call               : xtb acid_227.xyz --opt --chrg 0 --uhf 0 --gfn 2
          coordinate file            : acid_227.xyz
          omp threads                :                    64
          number of atoms            :                    72
          number of electrons        :                   226
          charge                     :                     0
          spin                       :                   0.0
          first test random number   :      0.91656056062928

   ID    Z sym.   atoms
    1    6 C      1-22, 24-28, 30, 31, 33, 34, 38-42, 44, 45
    2    7 N      23, 37
    3   35 Br     29, 43
    4    8 O      32, 35, 36, 46
    5    1 H      47-72

           -------------------------------------------------
          |                 G F N 2 - x T B                 |
           -------------------------------------------------

        Reference                      10.1021/acs.jctc.8b01176
      * Hamiltonian:
        H0-scaling (s, p, d)           1.850000    2.230000    2.230000
        zeta-weighting                 0.500000
      * Dispersion:
        s8                             2.700000
        a1                             0.520000
        a2                             5.000000
        s9                             5.000000
      * Repulsion:
        kExp                           1.500000    1.000000
        rExp                           1.000000
      * Coulomb:
        alpha                          2.000000
        third order                    shell-resolved
        anisotropic                    true
        a3                             3.000000
        a5                             4.000000
        cn-shift                       1.200000
        cn-exp                         4.000000
        max-rad                        5.000000


          ...................................................
          :                      SETUP                      :
          :.................................................:
          :  # basis functions                 222          :
          :  # atomic orbitals                 220          :
          :  # shells                          120          :
          :  # electrons                       226          :
          :  max. iterations                   250          :
          :  Hamiltonian                  GFN2-xTB          :
          :  restarted?                      false          :
          :  GBSA solvation                  false          :
          :  PC potential                    false          :
          :  electronic temp.          300.0000000     K    :
          :  accuracy                    1.0000000          :
          :  -> integral cutoff          0.2500000E+02      :
          :  -> integral neglect         0.1000000E-07      :
          :  -> SCF convergence          0.1000000E-05 Eh   :
          :  -> wf. convergence          0.1000000E-03 e    :
          :  Broyden damping             0.4000000          :
          ...................................................

 iter      E             dE          RMSdq      gap      omega  full diag
   1   -126.5489883 -0.126549E+03  0.479E+00    2.54       0.0  T
   2   -126.6990091 -0.150021E+00  0.289E+00    2.79       1.0  T
   3   -126.6810134  0.179957E-01  0.135E+00    2.84       1.0  T
   4   -126.7268305 -0.458171E-01  0.395E-01    2.51       1.0  T
   5   -126.7301594 -0.332893E-02  0.260E-01    2.45       1.0  T
   6   -126.7312599 -0.110050E-02  0.138E-01    2.48       1.0  T
   7   -126.7316537 -0.393778E-03  0.971E-02    2.46       1.0  T
   8   -126.7317263 -0.725999E-04  0.743E-02    2.45       1.0  T
   9   -126.7318051 -0.788268E-04  0.359E-02    2.47       1.0  T
  10   -126.7318345 -0.294161E-04  0.131E-02    2.46       1.0  T
  11   -126.7318387 -0.417598E-05  0.679E-03    2.46       1.7  T
  12   -126.7318392 -0.526778E-06  0.308E-03    2.45       3.8  T
  13   -126.7318395 -0.254734E-06  0.131E-03    2.45       9.0  T
  14   -126.7318395 -0.675978E-07  0.581E-04    2.45      20.3  T
  15   -126.7318395 -0.713466E-08  0.361E-04    2.45      32.7  T

   *** convergence criteria satisfied after 15 iterations ***

         #    Occupation            Energy/Eh            Energy/eV
      -------------------------------------------------------------
         1        2.0000           -0.8481528             -23.0794
       ...           ...                  ...                  ...
       107        2.0000           -0.4153995             -11.3036
       108        2.0000           -0.4115210             -11.1981
       109        2.0000           -0.4103532             -11.1663
       110        2.0000           -0.4069598             -11.0739
       111        2.0000           -0.4051057             -11.0235
       112        2.0000           -0.3861279             -10.5071
       113        2.0000           -0.3818604             -10.3909 (HOMO)
       114                         -0.2916493              -7.9362 (LUMO)
       115                         -0.2852943              -7.7633
       116                         -0.2795100              -7.6059
       117                         -0.2750132              -7.4835
       118                         -0.2672808              -7.2731
       ...                                ...                  ...
       220                          0.6793516              18.4861
      -------------------------------------------------------------
                  HL-Gap            0.0902111 Eh            2.4548 eV
             Fermi-level           -0.3367548 Eh           -9.1636 eV

 SCC (total)                   0 d,  0 h,  0 min,  0.673 sec
 SCC setup                      ...        0 min,  0.011 sec (  1.592%)
 Dispersion                     ...        0 min,  0.014 sec (  2.145%)
 classical contributions        ...        0 min,  0.011 sec (  1.605%)
 integral evaluation            ...        0 min,  0.113 sec ( 16.847%)
 iterations                     ...        0 min,  0.381 sec ( 56.608%)
 molecular gradient             ...        0 min,  0.139 sec ( 20.715%)
 printout                       ...        0 min,  0.003 sec (  0.474%)

         :::::::::::::::::::::::::::::::::::::::::::::::::::::
         ::                     SUMMARY                     ::
         :::::::::::::::::::::::::::::::::::::::::::::::::::::
         :: total energy            -124.934509512706 Eh    ::
         :: gradient norm              0.135077153214 Eh/a0 ::
         :: HOMO-LUMO gap              2.454767925017 eV    ::
         ::.................................................::
         :: SCC energy              -126.731839547767 Eh    ::
         :: -> isotropic ES            0.124497861476 Eh    ::
         :: -> anisotropic ES          0.005733351354 Eh    ::
         :: -> anisotropic XC          0.051567787269 Eh    ::
         :: -> dispersion             -0.102015258816 Eh    ::
         :: repulsion energy           1.795123041040 Eh    ::
         :: add. restraining           0.000000000000 Eh    ::
         :: total charge              -0.000000000000 e     ::
         :::::::::::::::::::::::::::::::::::::::::::::::::::::

      ----------------------------------------------------------- 
     |                   =====================                   |
     |                        A N C O P T                        |
     |                   =====================                   |
     |               Approximate Normal Coordinate               |
     |                Rational Function Optimizer                |
      ----------------------------------------------------------- 

          ...................................................
          :                      SETUP                      :
          :.................................................:
          :   optimization level            normal          :
          :   max. optcycles                   216          :
          :   ANC micro-cycles                  20          :
          :   degrees of freedom               210          :
          :.................................................:
          :   RF solver                   davidson          :
          :   write xtbopt.log                true          :
          :   linear?                        false          :
          :   energy convergence         0.5000000E-05 Eh   :
          :   grad. convergence          0.1000000E-02 Eh/α :
          :   maximium RF displ.         1.0000000          :
          :   Hlow (freq-cutoff)         0.1000000E-01      :
          :   Hmax (freq-cutoff)         5.0000000          :
          :   S6 in model hess.         20.0000000          :
          ...................................................

generating ANC from model Hessian ...
Using Lindh-Hessian (1995)
 Shifting diagonal of input Hessian by    9.8774105854445224E-003
 Lowest  eigenvalues of input Hessian
    0.000000    0.000000    0.000000    0.000000    0.000000    0.000000
    0.010000    0.010043    0.010106    0.010208    0.010256    0.010512
    0.010603    0.010687    0.010908    0.011150    0.011284    0.011875
 Highest eigenvalues
    2.002338    2.079264    2.081041    2.193203    2.233426    2.244084


........................................................................
.............................. CYCLE    1 ..............................
........................................................................
   1   -126.7318395 -0.126732E+03  0.177E-04    2.45       0.0  T
   2   -126.7318395 -0.221902E-09  0.131E-04    2.45      89.6  T
   3   -126.7318395 -0.166509E-09  0.106E-04    2.45     111.6  T
     SCC iter.                  ...        0 min,  0.079 sec
     gradient                   ...        0 min,  0.110 sec
 * total energy  :  -124.9345095 Eh     change       -0.2148852E-08 Eh
   gradient norm :     0.1350739 Eh/α   predicted     0.0000000E+00 (-100.00%)
   displ. norm   :     0.3312022 α      lambda       -0.2315273E-01
   maximum displ.:     0.0925807 α      in ANC's #28, #66, #89, ...

........................................................................
.............................. CYCLE    2 ..............................
........................................................................
   1   -126.8228066 -0.126823E+03  0.159E-01    2.74       0.0  T
   2   -126.8229390 -0.132351E-03  0.101E-01    2.71       1.0  T
   3   -126.8228755  0.635298E-04  0.492E-02    2.72       1.0  T
   4   -126.8229968 -0.121381E-03  0.104E-02    2.70       1.1  T
   5   -126.8230034 -0.654935E-05  0.378E-03    2.70       3.1  T
   6   -126.8230037 -0.280785E-06  0.179E-03    2.70       6.6  T
   7   -126.8230037 -0.545106E-08  0.105E-03    2.70      11.2  T
   8   -126.8230037 -0.353704E-07  0.540E-04    2.70      21.8  T
   9   -126.8230037 -0.339908E-08  0.340E-04    2.70      34.7  T
     SCC iter.                  ...        0 min,  0.230 sec
     gradient                   ...        0 min,  0.131 sec
 * total energy  :  -124.9505558 Eh     change       -0.1604633E-01 Eh
   gradient norm :     0.0537554 Eh/α   predicted    -0.1284624E-01 ( -19.94%)
   displ. norm   :     0.3405407 α      lambda       -0.7426418E-02
   maximum displ.:     0.1202399 α      in ANC's #28, #23, #18, ...

........................................................................
.............................. CYCLE    3 ..............................
........................................................................
   1   -126.8689349 -0.126869E+03  0.105E-01    2.83       0.0  T
   2   -126.8689948 -0.598950E-04  0.668E-02    2.82       1.0  T
   3   -126.8689714  0.234141E-04  0.325E-02    2.82       1.0  T
   4   -126.8690215 -0.501083E-04  0.749E-03    2.81       1.6  T
   5   -126.8690248 -0.325169E-05  0.310E-03    2.81       3.8  T
   6   -126.8690248 -0.993372E-07  0.193E-03    2.81       6.1  T
   7   -126.8690249 -0.222305E-07  0.135E-03    2.81       8.7  T
   8   -126.8690249 -0.228888E-07  0.862E-04    2.81      13.7  T
   9   -126.8690249 -0.105512E-07  0.522E-04    2.81      22.6  T
     SCC iter.                  ...        0 min,  0.228 sec
     gradient                   ...        0 min,  0.147 sec
 * total energy  :  -124.9549998 Eh     change       -0.4443909E-02 Eh
   gradient norm :     0.0128371 Eh/α   predicted    -0.4143825E-02 (  -6.75%)
   displ. norm   :     0.2661880 α      lambda       -0.1444072E-02
   maximum displ.:     0.1035207 α      in ANC's #23, #18, #17, ...

........................................................................
.............................. CYCLE    4 ..............................
........................................................................
   1   -126.8728970 -0.126873E+03  0.632E-02    2.82       0.0  T
   2   -126.8729132 -0.162420E-04  0.384E-02    2.82       1.0  T
   3   -126.8729026  0.106075E-04  0.166E-02    2.82       1.0  T
   4   -126.8729180 -0.153819E-04  0.437E-03    2.82       2.7  T
   5   -126.8729191 -0.117752E-05  0.175E-03    2.82       6.7  T
   6   -126.8729192 -0.190385E-07  0.109E-03    2.82      10.9  T
   7   -126.8729192 -0.191172E-07  0.684E-04    2.82      17.2  T
   8   -126.8729192 -0.223511E-08  0.499E-04    2.82      23.6  T
     SCC iter.                  ...        0 min,  0.203 sec
     gradient                   ...        0 min,  0.146 sec
 * total energy  :  -124.9560503 Eh     change       -0.1050521E-02 Eh
   gradient norm :     0.0105391 Eh/α   predicted    -0.7732224E-03 ( -26.40%)
   displ. norm   :     0.3060433 α      lambda       -0.9320424E-03
   maximum displ.:     0.1254386 α      in ANC's #18, #17, #23, ...

........................................................................
.............................. CYCLE    5 ..............................
........................................................................
   1   -126.8737632 -0.126874E+03  0.670E-02    2.82       0.0  T
   2   -126.8737709 -0.767573E-05  0.399E-02    2.82       1.0  T
   3   -126.8737593  0.116502E-04  0.144E-02    2.82       1.0  T
   4   -126.8737737 -0.144491E-04  0.306E-03    2.81       3.8  T
   5   -126.8737742 -0.443123E-06  0.138E-03    2.81       8.6  T
   6   -126.8737742 -0.130924E-07  0.713E-04    2.81      16.5  T
   7   -126.8737742 -0.121537E-07  0.403E-04    2.81      29.2  T
     SCC iter.                  ...        0 min,  0.178 sec
     gradient                   ...        0 min,  0.120 sec
 * total energy  :  -124.9566466 Eh     change       -0.5963446E-03 Eh
   gradient norm :     0.0059611 Eh/α   predicted    -0.5096848E-03 ( -14.53%)
   displ. norm   :     0.1791486 α      lambda       -0.2515738E-03
   maximum displ.:     0.0719794 α      in ANC's #18, #4, #14, ...

........................................................................
.............................. CYCLE    6 ..............................
........................................................................
   1   -126.8746943 -0.126875E+03  0.394E-02    2.81       0.0  T
   2   -126.8746966 -0.223779E-05  0.233E-02    2.81       1.0  T
   3   -126.8746938  0.279887E-05  0.733E-03    2.81       1.6  T
   4   -126.8746971 -0.339133E-05  0.177E-03    2.81       6.7  T
   5   -126.8746973 -0.154704E-06  0.853E-04    2.81      13.8  T
   6   -126.8746973 -0.609896E-08  0.566E-04    2.81      20.8  T
     SCC iter.                  ...        0 min,  0.148 sec
     gradient                   ...        0 min,  0.133 sec
 * total energy  :  -124.9568233 Eh     change       -0.1766530E-03 Eh
   gradient norm :     0.0036896 Eh/α   predicted    -0.1298247E-03 ( -26.51%)
   displ. norm   :     0.1785015 α      lambda       -0.1671581E-03
   maximum displ.:     0.0897304 α      in ANC's #4, #14, #18, ...

........................................................................
.............................. CYCLE    7 ..............................
........................................................................
   1   -126.8762788 -0.126876E+03  0.392E-02    2.81       0.0  T
   2   -126.8762804 -0.161710E-05  0.224E-02    2.81       1.0  T
   3   -126.8762789  0.153747E-05  0.602E-03    2.81       2.0  T
   4   -126.8762809 -0.194581E-05  0.211E-03    2.81       5.6  T
   5   -126.8762810 -0.104929E-06  0.120E-03    2.81       9.8  T
   6   -126.8762810 -0.229131E-07  0.747E-04    2.81      15.8  T
   7   -126.8762810 -0.490512E-08  0.532E-04    2.81      22.1  T
     SCC iter.                  ...        0 min,  0.178 sec
     gradient                   ...        0 min,  0.150 sec
 * total energy  :  -124.9569464 Eh     change       -0.1231159E-03 Eh
   gradient norm :     0.0029346 Eh/α   predicted    -0.8624910E-04 ( -29.94%)
   displ. norm   :     0.2124782 α      lambda       -0.1492241E-03
   maximum displ.:     0.1191985 α      in ANC's #4, #14, #2, ...

........................................................................
.............................. CYCLE    8 ..............................
........................................................................
   1   -126.8772803 -0.126877E+03  0.479E-02    2.81       0.0  T
   2   -126.8772827 -0.241563E-05  0.267E-02    2.81       1.0  T
   3   -126.8772804  0.231653E-05  0.715E-03    2.81       1.6  T
   4   -126.8772832 -0.284415E-05  0.293E-03    2.81       4.0  T
   5   -126.8772834 -0.232533E-06  0.155E-03    2.81       7.6  T
   6   -126.8772835 -0.345678E-07  0.925E-04    2.81      12.7  T
   7   -126.8772835 -0.771799E-08  0.669E-04    2.81      17.6  T
     SCC iter.                  ...        0 min,  0.181 sec
     gradient                   ...        0 min,  0.138 sec
 * total energy  :  -124.9570635 Eh     change       -0.1171357E-03 Eh
   gradient norm :     0.0036645 Eh/α   predicted    -0.7799459E-04 ( -33.42%)
   displ. norm   :     0.2784066 α      lambda       -0.1702961E-03
   maximum displ.:     0.1604880 α      in ANC's #4, #14, #2, ...

........................................................................
.............................. CYCLE    9 ..............................
........................................................................
   1   -126.8777109 -0.126878E+03  0.624E-02    2.81       0.0  T
   2   -126.8777141 -0.314257E-05  0.340E-02    2.81       1.0  T
   3   -126.8777105  0.362429E-05  0.887E-03    2.81       1.3  T
   4   -126.8777151 -0.458670E-05  0.401E-03    2.81       2.9  T
   5   -126.8777154 -0.305265E-06  0.215E-03    2.81       5.5  T
   6   -126.8777154 -0.686722E-07  0.133E-03    2.81       8.8  T
   7   -126.8777154 -0.134754E-07  0.975E-04    2.81      12.1  T
   8   -126.8777154 -0.820327E-08  0.444E-04    2.81      26.5  T
     SCC iter.                  ...        0 min,  0.201 sec
     gradient                   ...        0 min,  0.133 sec
 * total energy  :  -124.9572032 Eh     change       -0.1396538E-03 Eh
   gradient norm :     0.0040773 Eh/α   predicted    -0.9175039E-04 ( -34.30%)
   displ. norm   :     0.3640361 α      lambda       -0.2057858E-03
   maximum displ.:     0.2105949 α      in ANC's #4, #2, #3, ...

........................................................................
.............................. CYCLE   10 ..............................
........................................................................
   1   -126.8770748 -0.126877E+03  0.779E-02    2.81       0.0  T
   2   -126.8770797 -0.483724E-05  0.426E-02    2.80       1.0  T
   3   -126.8770726  0.703987E-05  0.118E-02    2.81       1.0  T
   4   -126.8770815 -0.883277E-05  0.505E-03    2.81       2.3  T
   5   -126.8770819 -0.424851E-06  0.277E-03    2.81       4.2  T
   6   -126.8770820 -0.120878E-06  0.172E-03    2.81       6.8  T
   7   -126.8770820 -0.235509E-07  0.128E-03    2.81       9.2  T
   8   -126.8770821 -0.147871E-07  0.552E-04    2.81      21.4  T
   9   -126.8770821 -0.840274E-08  0.221E-04    2.81      53.3  T
     SCC iter.                  ...        0 min,  0.233 sec
     gradient                   ...        0 min,  0.143 sec
 * total energy  :  -124.9573746 Eh     change       -0.1714203E-03 Eh
   gradient norm :     0.0042471 Eh/α   predicted    -0.1165685E-03 ( -32.00%)
   displ. norm   :     0.4385233 α      lambda       -0.2358199E-03
   maximum displ.:     0.2539765 α      in ANC's #4, #2, #3, ...

........................................................................
.............................. CYCLE   11 ..............................
........................................................................
   1   -126.8760534 -0.126876E+03  0.876E-02    2.81       0.0  T
   2   -126.8760585 -0.503292E-05  0.481E-02    2.81       1.0  T
   3   -126.8760496  0.886161E-05  0.131E-02    2.81       1.0  T
   4   -126.8760608 -0.111832E-04  0.543E-03    2.81       2.2  T
   5   -126.8760612 -0.358972E-06  0.293E-03    2.81       4.0  T
   6   -126.8760613 -0.175341E-06  0.185E-03    2.81       6.4  T
   7   -126.8760614 -0.220941E-07  0.136E-03    2.81       8.7  T
   8   -126.8760614 -0.197627E-07  0.514E-04    2.81      22.9  T
   9   -126.8760614 -0.810616E-08  0.243E-04    2.81      48.5  T
     SCC iter.                  ...        0 min,  0.233 sec
     gradient                   ...        0 min,  0.145 sec
 * total energy  :  -124.9575709 Eh     change       -0.1963111E-03 Eh
   gradient norm :     0.0043517 Eh/α   predicted    -0.1405855E-03 ( -28.39%)
   displ. norm   :     0.4861269 α      lambda       -0.2512732E-03
   maximum displ.:     0.2817222 α      in ANC's #4, #2, #3, ...

........................................................................
.............................. CYCLE   12 ..............................
........................................................................
   1   -126.8750686 -0.126875E+03  0.910E-02    2.81       0.0  T
   2   -126.8750743 -0.569651E-05  0.506E-02    2.81       1.0  T
   3   -126.8750647  0.963949E-05  0.134E-02    2.82       1.0  T
   4   -126.8750767 -0.119934E-04  0.525E-03    2.81       2.2  T
   5   -126.8750771 -0.427617E-06  0.283E-03    2.81       4.2  T
   6   -126.8750773 -0.165955E-06  0.169E-03    2.81       7.0  T
   7   -126.8750773 -0.249970E-07  0.125E-03    2.81       9.4  T
   8   -126.8750773 -0.103709E-07  0.515E-04    2.81      22.9  T
   9   -126.8750773 -0.937202E-08  0.213E-04    2.81      55.3  T
     SCC iter.                  ...        0 min,  0.229 sec
     gradient                   ...        0 min,  0.135 sec
 * total energy  :  -124.9577779 Eh     change       -0.2070310E-03 Eh
   gradient norm :     0.0044168 Eh/α   predicted    -0.1553352E-03 ( -24.97%)
   displ. norm   :     0.4998806 α      lambda       -0.2492350E-03
   maximum displ.:     0.2904777 α      in ANC's #4, #2, #1, ...

........................................................................
.............................. CYCLE   13 ..............................
........................................................................
   1   -126.8752394 -0.126875E+03  0.898E-02    2.82       0.0  T
   2   -126.8752438 -0.442961E-05  0.505E-02    2.82       1.0  T
   3   -126.8752356  0.817854E-05  0.123E-02    2.83       1.0  T
   4   -126.8752458 -0.101759E-04  0.459E-03    2.82       2.6  T
   5   -126.8752460 -0.266213E-06  0.245E-03    2.82       4.8  T
   6   -126.8752462 -0.161320E-06  0.144E-03    2.82       8.2  T
   7   -126.8752462 -0.162004E-07  0.105E-03    2.82      11.2  T
   8   -126.8752462 -0.713509E-08  0.456E-04    2.82      25.8  T
   9   -126.8752462 -0.668794E-08  0.175E-04    2.82      67.3  T
     SCC iter.                  ...        0 min,  0.227 sec
     gradient                   ...        0 min,  0.138 sec
 * total energy  :  -124.9579760 Eh     change       -0.1980276E-03 Eh
   gradient norm :     0.0040969 Eh/α   predicted    -0.1557596E-03 ( -21.34%)
   displ. norm   :     0.5085659 α      lambda       -0.2137947E-03
   maximum displ.:     0.2977849 α      in ANC's #4, #2, #1, ...

........................................................................
.............................. CYCLE   14 ..............................
........................................................................
   1   -126.8753476 -0.126875E+03  0.921E-02    2.83       0.0  T
   2   -126.8753531 -0.556289E-05  0.521E-02    2.83       1.0  T
   3   -126.8753452  0.790255E-05  0.123E-02    2.83       1.0  T
   4   -126.8753549 -0.968589E-05  0.462E-03    2.83       2.6  T
   5   -126.8753554 -0.453802E-06  0.245E-03    2.83       4.8  T
   6   -126.8753555 -0.117931E-06  0.143E-03    2.83       8.2  T
   7   -126.8753555 -0.243575E-07  0.105E-03    2.83      11.2  T
   8   -126.8753555 -0.501879E-08  0.486E-04    2.83      24.2  T
   9   -126.8753555 -0.727447E-08  0.183E-04    2.83      64.5  T
     SCC iter.                  ...        0 min,  0.228 sec
     gradient                   ...        0 min,  0.137 sec
 * total energy  :  -124.9581404 Eh     change       -0.1644002E-03 Eh
   gradient norm :     0.0041051 Eh/α   predicted    -0.1345455E-03 ( -18.16%)
   displ. norm   :     0.4682453 α      lambda       -0.1735924E-03
   maximum displ.:     0.2769290 α      in ANC's #4, #2, #1, ...

........................................................................
.............................. CYCLE   15 ..............................
........................................................................
   1   -126.8769607 -0.126877E+03  0.851E-02    2.84       0.0  T
   2   -126.8769644 -0.362640E-05  0.484E-02    2.84       1.0  T
   3   -126.8769581  0.627050E-05  0.107E-02    2.84       1.1  T
   4   -126.8769658 -0.771697E-05  0.389E-03    2.84       3.0  T
   5   -126.8769660 -0.236350E-06  0.201E-03    2.84       5.9  T
   6   -126.8769661 -0.867443E-07  0.124E-03    2.84       9.5  T
   7   -126.8769661 -0.157828E-07  0.904E-04    2.84      13.0  T
   8   -126.8769661 -0.476197E-08  0.401E-04    2.84      29.4  T
     SCC iter.                  ...        0 min,  0.201 sec
     gradient                   ...        0 min,  0.149 sec
 * total energy  :  -124.9582662 Eh     change       -0.1258470E-03 Eh
   gradient norm :     0.0042417 Eh/α   predicted    -0.1058338E-03 ( -15.90%)
   displ. norm   :     0.4380764 α      lambda       -0.1286780E-03
   maximum displ.:     0.2620118 α      in ANC's #4, #2, #1, ...

........................................................................
.............................. CYCLE   16 ..............................
........................................................................
   1   -126.8771955 -0.126877E+03  0.813E-02    2.84       0.0  T
   2   -126.8771993 -0.373847E-05  0.458E-02    2.84       1.0  T
   3   -126.8771944  0.487351E-05  0.102E-02    2.84       1.2  T
   4   -126.8772004 -0.602538E-05  0.424E-03    2.84       2.8  T
   5   -126.8772008 -0.327400E-06  0.222E-03    2.84       5.3  T
   6   -126.8772009 -0.904067E-07  0.142E-03    2.84       8.3  T
   7   -126.8772009 -0.222323E-07  0.103E-03    2.84      11.4  T
   8   -126.8772009 -0.679391E-08  0.466E-04    2.84      25.3  T
   9   -126.8772009 -0.586323E-08  0.184E-04    2.84      64.2  T
     SCC iter.                  ...        0 min,  0.234 sec
     gradient                   ...        0 min,  0.151 sec
 * total energy  :  -124.9583630 Eh     change       -0.9682618E-04 Eh
   gradient norm :     0.0030360 Eh/α   predicted    -0.7669030E-04 ( -20.80%)
   displ. norm   :     0.3583085 α      lambda       -0.1024838E-03
   maximum displ.:     0.2151550 α      in ANC's #4, #1, #2, ...

........................................................................
.............................. CYCLE   17 ..............................
........................................................................
   1   -126.8800588 -0.126880E+03  0.671E-02    2.85       0.0  T
   2   -126.8800606 -0.177431E-05  0.377E-02    2.85       1.0  T
   3   -126.8800582  0.242701E-05  0.738E-03    2.85       1.6  T
   4   -126.8800612 -0.305224E-05  0.329E-03    2.85       3.6  T
   5   -126.8800614 -0.150980E-06  0.165E-03    2.85       7.1  T
   6   -126.8800614 -0.710283E-07  0.105E-03    2.85      11.3  T
   7   -126.8800614 -0.863467E-08  0.749E-04    2.85      15.7  T
   8   -126.8800614 -0.529924E-08  0.282E-04    2.85      41.8  T
     SCC iter.                  ...        0 min,  0.202 sec
     gradient                   ...        0 min,  0.142 sec
 * total energy  :  -124.9584373 Eh     change       -0.7424441E-04 Eh
   gradient norm :     0.0033267 Eh/α   predicted    -0.5782090E-04 ( -22.12%)
   displ. norm   :     0.4226450 α      lambda       -0.9403745E-04
   maximum displ.:     0.2524308 α      in ANC's #4, #1, #2, ...

........................................................................
.............................. CYCLE   18 ..............................
........................................................................
   1   -126.8775217 -0.126878E+03  0.816E-02    2.82       0.0  T
   2   -126.8775256 -0.395197E-05  0.455E-02    2.83       1.0  T
   3   -126.8775203  0.532954E-05  0.111E-02    2.83       1.1  T
   4   -126.8775271 -0.681844E-05  0.469E-03    2.83       2.5  T
   5   -126.8775274 -0.232658E-06  0.274E-03    2.83       4.3  T
   6   -126.8775276 -0.189847E-06  0.166E-03    2.83       7.1  T
   7   -126.8775276 -0.145885E-07  0.123E-03    2.83       9.6  T
   8   -126.8775276 -0.212022E-07  0.432E-04    2.83      27.3  T
   9   -126.8775276 -0.449592E-08  0.214E-04    2.83      55.0  T
     SCC iter.                  ...        0 min,  0.229 sec
     gradient                   ...        0 min,  0.148 sec
 * total energy  :  -124.9584838 Eh     change       -0.4647869E-04 Eh
   gradient norm :     0.0051931 Eh/α   predicted    -0.5541976E-04 (  19.24%)
   displ. norm   :     0.2016141 α      lambda       -0.7165387E-04
   maximum displ.:     0.1163895 α      in ANC's #4, #1, #2, ...

........................................................................
.............................. CYCLE   19 ..............................
........................................................................
   1   -126.8799767 -0.126880E+03  0.413E-02    2.86       0.0  T
   2   -126.8799784 -0.175554E-05  0.230E-02    2.86       1.0  T
   3   -126.8799774  0.101783E-05  0.531E-03    2.86       2.2  T
   4   -126.8799788 -0.136622E-05  0.213E-03    2.86       5.5  T
   5   -126.8799789 -0.637858E-07  0.125E-03    2.86       9.4  T
   6   -126.8799789 -0.477044E-07  0.614E-04    2.86      19.2  T
   7   -126.8799789 -0.246939E-08  0.461E-04    2.86      25.6  T
     SCC iter.                  ...        0 min,  0.183 sec
     gradient                   ...        0 min,  0.130 sec
 * total energy  :  -124.9585324 Eh     change       -0.4858352E-04 Eh
   gradient norm :     0.0027607 Eh/α   predicted    -0.3728415E-04 ( -23.26%)
   displ. norm   :     0.2149544 α      lambda       -0.4904914E-04
   maximum displ.:     0.1232145 α      in ANC's #4, #1, #2, ...

........................................................................
.............................. CYCLE   20 ..............................
........................................................................
   1   -126.8807633 -0.126881E+03  0.421E-02    2.87       0.0  T
   2   -126.8807642 -0.881892E-06  0.234E-02    2.87       1.0  T
   3   -126.8807626  0.160646E-05  0.542E-03    2.87       2.2  T
   4   -126.8807646 -0.196887E-05  0.217E-03    2.87       5.4  T
   5   -126.8807646 -0.657176E-07  0.106E-03    2.87      11.1  T
   6   -126.8807647 -0.210604E-07  0.674E-04    2.87      17.5  T
   7   -126.8807647 -0.364314E-08  0.499E-04    2.87      23.6  T
     SCC iter.                  ...        0 min,  0.177 sec
     gradient                   ...        0 min,  0.143 sec
 * total energy  :  -124.9585724 Eh     change       -0.4002417E-04 Eh
   gradient norm :     0.0037452 Eh/α   predicted    -0.2566174E-04 ( -35.88%)
   displ. norm   :     0.3262721 α      lambda       -0.8430195E-04
   maximum displ.:     0.1748546 α      in ANC's #4, #1, #2, ...
 * RMSD in coord.:     0.6541230 α      energy gain  -0.2406286E-01 Eh

generating ANC from model Hessian ...
Using Lindh-Hessian (1995)
 Shifting diagonal of input Hessian by    9.8832538682200322E-003
 Lowest  eigenvalues of input Hessian
    0.000000    0.000000    0.000000    0.000000    0.000000    0.000000
    0.010000    0.010077    0.010151    0.010260    0.010358    0.010521
    0.010664    0.010762    0.011133    0.011243    0.011414    0.011959
 Highest eigenvalues
    2.035032    2.127022    2.127994    2.348348    2.353025    2.404044


........................................................................
.............................. CYCLE   21 ..............................
........................................................................
   1   -126.8812041 -0.126881E+03  0.656E-02    2.88       0.0  T
   2   -126.8812068 -0.274627E-05  0.367E-02    2.88       1.0  T
   3   -126.8812028  0.402558E-05  0.871E-03    2.88       1.4  T
   4   -126.8812076 -0.481537E-05  0.337E-03    2.88       3.5  T
   5   -126.8812079 -0.256451E-06  0.171E-03    2.88       6.9  T
   6   -126.8812079 -0.468207E-07  0.104E-03    2.88      11.3  T
   7   -126.8812079 -0.146603E-07  0.751E-04    2.88      15.7  T
   8   -126.8812079 -0.384935E-08  0.403E-04    2.88      29.2  T
     SCC iter.                  ...        0 min,  0.207 sec
     gradient                   ...        0 min,  0.136 sec
 * total energy  :  -124.9586365 Eh     change       -0.6416754E-04 Eh
   gradient norm :     0.0044465 Eh/α   predicted     0.0000000E+00 (-100.00%)
   displ. norm   :     0.0349138 α      lambda       -0.3856252E-04
   maximum displ.:     0.0158951 α      in ANC's #8, #22, #6, ...

........................................................................
.............................. CYCLE   22 ..............................
........................................................................
   1   -126.8796067 -0.126880E+03  0.113E-02    2.86       0.0  T
   2   -126.8796074 -0.676516E-06  0.673E-03    2.87       1.8  T
   3   -126.8796073  0.112613E-06  0.290E-03    2.87       4.1  T
   4   -126.8796075 -0.240328E-06  0.976E-04    2.87      12.1  T
   5   -126.8796075 -0.331682E-07  0.575E-04    2.87      20.5  T
     SCC iter.                  ...        0 min,  0.128 sec
     gradient                   ...        0 min,  0.124 sec
 * total energy  :  -124.9586661 Eh     change       -0.2955804E-04 Eh
   gradient norm :     0.0015602 Eh/α   predicted    -0.1931790E-04 ( -34.64%)
   displ. norm   :     0.1282349 α      lambda       -0.4524071E-04
   maximum displ.:     0.0626958 α      in ANC's #8, #22, #6, ...

........................................................................
.............................. CYCLE   23 ..............................
........................................................................
   1   -126.8775485 -0.126878E+03  0.339E-02    2.84       0.0  T
   2   -126.8775514 -0.285939E-05  0.199E-02    2.84       1.0  T
   3   -126.8775496  0.178432E-05  0.715E-03    2.84       1.6  T
   4   -126.8775520 -0.237655E-05  0.212E-03    2.84       5.6  T
   5   -126.8775522 -0.200337E-06  0.116E-03    2.84      10.1  T
   6   -126.8775522 -0.124036E-07  0.793E-04    2.84      14.9  T
   7   -126.8775522 -0.670711E-08  0.524E-04    2.84      22.5  T
     SCC iter.                  ...        0 min,  0.183 sec
     gradient                   ...        0 min,  0.154 sec
 * total energy  :  -124.9587011 Eh     change       -0.3496677E-04 Eh
   gradient norm :     0.0042937 Eh/α   predicted    -0.2280953E-04 ( -34.77%)
   displ. norm   :     0.0486391 α      lambda       -0.2005783E-04
   maximum displ.:     0.0253710 α      in ANC's #8, #6, #1, ...

........................................................................
.............................. CYCLE   24 ..............................
........................................................................
   1   -126.8782266 -0.126878E+03  0.109E-02    2.85       0.0  T
   2   -126.8782266 -0.853308E-07  0.636E-03    2.85       1.9  T
   3   -126.8782264  0.245349E-06  0.192E-03    2.85       6.1  T
   4   -126.8782267 -0.291402E-06  0.452E-04    2.85      26.1  T
   5   -126.8782267 -0.553474E-08  0.266E-04    2.85      44.2  T
     SCC iter.                  ...        0 min,  0.128 sec
     gradient                   ...        0 min,  0.133 sec
 * total energy  :  -124.9587196 Eh     change       -0.1855510E-04 Eh
   gradient norm :     0.0033662 Eh/α   predicted    -0.1005474E-04 ( -45.81%)
   displ. norm   :     0.2168540 α      lambda       -0.8041684E-04
   maximum displ.:     0.1097706 α      in ANC's #8, #6, #1, ...

........................................................................
.............................. CYCLE   25 ..............................
........................................................................
   1   -126.8802648 -0.126880E+03  0.473E-02    2.86       0.0  T
   2   -126.8802665 -0.167191E-05  0.275E-02    2.86       1.0  T
   3   -126.8802622  0.426664E-05  0.811E-03    2.86       1.5  T
   4   -126.8802673 -0.503841E-05  0.217E-03    2.86       5.4  T
   5   -126.8802674 -0.147925E-06  0.126E-03    2.86       9.3  T
   6   -126.8802674 -0.159715E-07  0.753E-04    2.86      15.6  T
   7   -126.8802674 -0.555005E-08  0.545E-04    2.86      21.6  T
     SCC iter.                  ...        0 min,  0.177 sec
     gradient                   ...        0 min,  0.124 sec
 * total energy  :  -124.9587803 Eh     change       -0.6070454E-04 Eh
   gradient norm :     0.0017327 Eh/α   predicted    -0.4209970E-04 ( -30.65%)
   displ. norm   :     0.3992101 α      lambda       -0.5930103E-04
   maximum displ.:     0.2035236 α      in ANC's #8, #6, #1, ...

........................................................................
.............................. CYCLE   26 ..............................
........................................................................
   1   -126.8803149 -0.126880E+03  0.864E-02    2.86       0.0  T
   2   -126.8803183 -0.339932E-05  0.502E-02    2.86       1.0  T
   3   -126.8803065  0.118653E-04  0.130E-02    2.86       1.0  T
   4   -126.8803205 -0.139974E-04  0.329E-03    2.86       3.6  T
   5   -126.8803206 -0.182978E-06  0.194E-03    2.86       6.1  T
   6   -126.8803207 -0.545093E-07  0.114E-03    2.86      10.3  T
   7   -126.8803207 -0.160750E-07  0.792E-04    2.86      14.9  T
   8   -126.8803207 -0.422133E-08  0.465E-04    2.86      25.3  T
     SCC iter.                  ...        0 min,  0.202 sec
     gradient                   ...        0 min,  0.133 sec
 * total energy  :  -124.9588384 Eh     change       -0.5811645E-04 Eh
   gradient norm :     0.0031672 Eh/α   predicted    -0.3175867E-04 ( -45.35%)
   displ. norm   :     0.1508796 α      lambda       -0.3279152E-04
   maximum displ.:     0.0792862 α      in ANC's #8, #6, #1, ...

........................................................................
.............................. CYCLE   27 ..............................
........................................................................
   1   -126.8802450 -0.126880E+03  0.316E-02    2.87       0.0  T
   2   -126.8802454 -0.487714E-06  0.184E-02    2.87       1.0  T
   3   -126.8802446  0.875636E-06  0.394E-03    2.87       3.0  T
   4   -126.8802456 -0.105975E-05  0.114E-03    2.87      10.4  T
   5   -126.8802457 -0.344821E-07  0.668E-04    2.87      17.6  T
   6   -126.8802457 -0.879113E-08  0.349E-04    2.87      33.8  T
     SCC iter.                  ...        0 min,  0.157 sec
     gradient                   ...        0 min,  0.126 sec
 * total energy  :  -124.9588655 Eh     change       -0.2706481E-04 Eh
   gradient norm :     0.0021024 Eh/α   predicted    -0.1677064E-04 ( -38.04%)
   displ. norm   :     0.2326086 α      lambda       -0.4297697E-04
   maximum displ.:     0.1219812 α      in ANC's #8, #6, #1, ...

........................................................................
.............................. CYCLE   28 ..............................
........................................................................
   1   -126.8797179 -0.126880E+03  0.491E-02    2.88       0.0  T
   2   -126.8797189 -0.100669E-05  0.286E-02    2.88       1.0  T
   3   -126.8797173  0.167689E-05  0.545E-03    2.88       2.2  T
   4   -126.8797193 -0.203304E-05  0.172E-03    2.88       6.8  T
   5   -126.8797194 -0.793088E-07  0.101E-03    2.88      11.6  T
   6   -126.8797194 -0.185236E-07  0.582E-04    2.88      20.2  T
   7   -126.8797194 -0.279971E-08  0.413E-04    2.88      28.5  T
     SCC iter.                  ...        0 min,  0.178 sec
     gradient                   ...        0 min,  0.145 sec
 * total energy  :  -124.9588993 Eh     change       -0.3377398E-04 Eh
   gradient norm :     0.0010376 Eh/α   predicted    -0.2265924E-04 ( -32.91%)
   displ. norm   :     0.3623216 α      lambda       -0.3469853E-04
   maximum displ.:     0.1890665 α      in ANC's #8, #1, #6, ...

........................................................................
.............................. CYCLE   29 ..............................
........................................................................
   1   -126.8785905 -0.126879E+03  0.760E-02    2.88       0.0  T
   2   -126.8785919 -0.139816E-05  0.444E-02    2.88       1.0  T
   3   -126.8785880  0.396614E-05  0.779E-03    2.88       1.5  T
   4   -126.8785928 -0.480419E-05  0.212E-03    2.88       5.5  T
   5   -126.8785928 -0.476687E-07  0.130E-03    2.88       9.0  T
   6   -126.8785928 -0.372367E-07  0.754E-04    2.88      15.6  T
   7   -126.8785929 -0.498414E-08  0.537E-04    2.88      22.0  T
     SCC iter.                  ...        0 min,  0.181 sec
     gradient                   ...        0 min,  0.141 sec
 * total energy  :  -124.9589341 Eh     change       -0.3485425E-04 Eh
   gradient norm :     0.0017947 Eh/α   predicted    -0.1836194E-04 ( -47.32%)
   displ. norm   :     0.1925868 α      lambda       -0.2274320E-04
   maximum displ.:     0.0952741 α      in ANC's #8, #1, #2, ...

........................................................................
.............................. CYCLE   30 ..............................
........................................................................
   1   -126.8795959 -0.126880E+03  0.422E-02    2.89       0.0  T
   2   -126.8795967 -0.801184E-06  0.247E-02    2.89       1.0  T
   3   -126.8795958  0.892423E-06  0.418E-03    2.89       2.8  T
   4   -126.8795969 -0.109313E-05  0.110E-03    2.89      10.7  T
   5   -126.8795969 -0.397035E-07  0.642E-04    2.89      18.3  T
   6   -126.8795969 -0.817064E-08  0.376E-04    2.89      31.4  T
     SCC iter.                  ...        0 min,  0.153 sec
     gradient                   ...        0 min,  0.133 sec
 * total energy  :  -124.9589606 Eh     change       -0.2642633E-04 Eh
   gradient norm :     0.0027217 Eh/α   predicted    -0.1156839E-04 ( -56.22%)
   displ. norm   :     0.2285466 α      lambda       -0.4145657E-04
   maximum displ.:     0.1122259 α      in ANC's #8, #1, #2, ...

........................................................................
.............................. CYCLE   31 ..............................
........................................................................
   1   -126.8799587 -0.126880E+03  0.501E-02    2.89       0.0  T
   2   -126.8799592 -0.509402E-06  0.292E-02    2.89       1.0  T
   3   -126.8799577  0.157521E-05  0.485E-03    2.89       2.4  T
   4   -126.8799595 -0.187702E-05  0.126E-03    2.89       9.4  T
   5   -126.8799596 -0.180758E-07  0.799E-04    2.89      14.8  T
   6   -126.8799596 -0.145568E-07  0.458E-04    2.89      25.7  T
     SCC iter.                  ...        0 min,  0.153 sec
     gradient                   ...        0 min,  0.147 sec
 * total energy  :  -124.9589962 Eh     change       -0.3568122E-04 Eh
   gradient norm :     0.0019491 Eh/α   predicted    -0.2181186E-04 ( -38.87%)
   displ. norm   :     0.5124941 α      lambda       -0.6009619E-04
   maximum displ.:     0.2557823 α      in ANC's #1, #8, #2, ...

........................................................................
.............................. CYCLE   32 ..............................
........................................................................
   1   -126.8799077 -0.126880E+03  0.112E-01    2.90       0.0  T
   2   -126.8799100 -0.226768E-05  0.655E-02    2.90       1.0  T
   3   -126.8799049  0.511852E-05  0.907E-03    2.89       1.3  T
   4   -126.8799112 -0.629065E-05  0.266E-03    2.89       4.4  T
   5   -126.8799112 -0.595998E-07  0.159E-03    2.89       7.4  T
   6   -126.8799113 -0.713279E-07  0.923E-04    2.89      12.8  T
   7   -126.8799113 -0.690562E-08  0.658E-04    2.89      17.9  T
     SCC iter.                  ...        0 min,  0.178 sec
     gradient                   ...        0 min,  0.143 sec
 * total energy  :  -124.9590569 Eh     change       -0.6060916E-04 Eh
   gradient norm :     0.0021283 Eh/α   predicted    -0.3356491E-04 ( -44.62%)
   displ. norm   :     0.2043265 α      lambda       -0.3165425E-04
   maximum displ.:     0.1081828 α      in ANC's #1, #2, #8, ...

........................................................................
.............................. CYCLE   33 ..............................
........................................................................
   1   -126.8801700 -0.126880E+03  0.412E-02    2.89       0.0  T
   2   -126.8801703 -0.317036E-06  0.241E-02    2.89       1.0  T
   3   -126.8801696  0.671741E-06  0.330E-03    2.89       3.6  T
   4   -126.8801704 -0.841580E-06  0.932E-04    2.89      12.7  T
   5   -126.8801705 -0.408414E-08  0.568E-04    2.89      20.8  T
     SCC iter.                  ...        0 min,  0.127 sec
     gradient                   ...        0 min,  0.142 sec
 * total energy  :  -124.9590844 Eh     change       -0.2752204E-04 Eh
   gradient norm :     0.0016645 Eh/α   predicted    -0.1648864E-04 ( -40.09%)
   displ. norm   :     0.4490779 α      lambda       -0.5917575E-04
   maximum displ.:     0.2431581 α      in ANC's #1, #2, #8, ...

........................................................................
.............................. CYCLE   34 ..............................
........................................................................
   1   -126.8818984 -0.126882E+03  0.858E-02    2.90       0.0  T
   2   -126.8819001 -0.170629E-05  0.500E-02    2.90       1.0  T
   3   -126.8818973  0.287415E-05  0.718E-03    2.90       1.6  T
   4   -126.8819009 -0.366144E-05  0.200E-03    2.90       5.9  T
   5   -126.8819009 -0.324478E-07  0.118E-03    2.90      10.0  T
   6   -126.8819010 -0.289863E-07  0.712E-04    2.90      16.6  T
   7   -126.8819010 -0.574484E-08  0.497E-04    2.90      23.7  T
     SCC iter.                  ...        0 min,  0.184 sec
     gradient                   ...        0 min,  0.153 sec
 * total energy  :  -124.9591553 Eh     change       -0.7088247E-04 Eh
   gradient norm :     0.0024824 Eh/α   predicted    -0.3225567E-04 ( -54.49%)
   displ. norm   :     0.4811264 α      lambda       -0.8726217E-04
   maximum displ.:     0.2596949 α      in ANC's #1, #2, #8, ...

........................................................................
.............................. CYCLE   35 ..............................
........................................................................
   1   -126.8791594 -0.126879E+03  0.885E-02    2.89       0.0  T
   2   -126.8791610 -0.159513E-05  0.517E-02    2.89       1.0  T
   3   -126.8791576  0.341049E-05  0.777E-03    2.89       1.5  T
   4   -126.8791618 -0.425528E-05  0.187E-03    2.89       6.3  T
   5   -126.8791618 -0.168317E-07  0.118E-03    2.89      10.0  T
   6   -126.8791619 -0.337512E-07  0.643E-04    2.89      18.3  T
   7   -126.8791619 -0.380757E-08  0.481E-04    2.89      24.5  T
     SCC iter.                  ...        0 min,  0.176 sec
     gradient                   ...        0 min,  0.149 sec
 * total energy  :  -124.9592322 Eh     change       -0.7698950E-04 Eh
   gradient norm :     0.0026956 Eh/α   predicted    -0.5373279E-04 ( -30.21%)
   displ. norm   :     0.5415508 α      lambda       -0.1195611E-03
   maximum displ.:     0.2980901 α      in ANC's #1, #2, #8, ...

........................................................................
.............................. CYCLE   36 ..............................
........................................................................
   1   -126.8773534 -0.126877E+03  0.929E-02    2.89       0.0  T
   2   -126.8773560 -0.259788E-05  0.541E-02    2.89       1.0  T
   3   -126.8773515  0.445926E-05  0.899E-03    2.89       1.3  T
   4   -126.8773571 -0.554801E-05  0.243E-03    2.89       4.8  T
   5   -126.8773571 -0.835030E-07  0.146E-03    2.89       8.1  T
   6   -126.8773572 -0.421215E-07  0.812E-04    2.89      14.5  T
   7   -126.8773572 -0.850390E-08  0.587E-04    2.89      20.1  T
     SCC iter.                  ...        0 min,  0.190 sec
     gradient                   ...        0 min,  0.135 sec
 * total energy  :  -124.9593379 Eh     change       -0.1056580E-03 Eh
   gradient norm :     0.0038115 Eh/α   predicted    -0.7732328E-04 ( -26.82%)
   displ. norm   :     0.5729138 α      lambda       -0.1537293E-03
   maximum displ.:     0.3178247 α      in ANC's #1, #2, #8, ...

........................................................................
.............................. CYCLE   37 ..............................
........................................................................
   1   -126.8772219 -0.126877E+03  0.929E-02    2.88       0.0  T
   2   -126.8772254 -0.354917E-05  0.540E-02    2.88       1.0  T
   3   -126.8772194  0.598402E-05  0.101E-02    2.88       1.2  T
   4   -126.8772268 -0.735184E-05  0.293E-03    2.88       4.0  T
   5   -126.8772270 -0.178315E-06  0.170E-03    2.88       6.9  T
   6   -126.8772270 -0.466717E-07  0.978E-04    2.88      12.1  T
   7   -126.8772270 -0.128508E-07  0.695E-04    2.88      17.0  T
     SCC iter.                  ...        0 min,  0.183 sec
     gradient                   ...        0 min,  0.152 sec
 * total energy  :  -124.9594651 Eh     change       -0.1271587E-03 Eh
   gradient norm :     0.0045013 Eh/α   predicted    -0.1020948E-03 ( -19.71%)
   displ. norm   :     0.5891326 α      lambda       -0.1433289E-03
   maximum displ.:     0.3303829 α      in ANC's #1, #2, #8, ...

........................................................................
.............................. CYCLE   38 ..............................
........................................................................
   1   -126.8758853 -0.126876E+03  0.935E-02    2.89       0.0  T
   2   -126.8758882 -0.290261E-05  0.545E-02    2.89       1.0  T
   3   -126.8758833  0.489218E-05  0.905E-03    2.89       1.3  T
   4   -126.8758894 -0.608862E-05  0.251E-03    2.89       4.7  T
   5   -126.8758895 -0.131850E-06  0.146E-03    2.89       8.1  T
   6   -126.8758896 -0.305098E-07  0.817E-04    2.89      14.4  T
   7   -126.8758896 -0.110459E-07  0.563E-04    2.89      20.9  T
     SCC iter.                  ...        0 min,  0.178 sec
     gradient                   ...        0 min,  0.136 sec
 * total energy  :  -124.9595837 Eh     change       -0.1186723E-03 Eh
   gradient norm :     0.0045326 Eh/α   predicted    -0.9654415E-04 ( -18.65%)
   displ. norm   :     0.5256152 α      lambda       -0.1511503E-03
   maximum displ.:     0.2975598 α      in ANC's #1, #2, #8, ...

........................................................................
.............................. CYCLE   39 ..............................
........................................................................
   1   -126.8783312 -0.126878E+03  0.780E-02    2.90       0.0  T
   2   -126.8783336 -0.244793E-05  0.455E-02    2.90       1.0  T
   3   -126.8783298  0.379485E-05  0.775E-03    2.90       1.5  T
   4   -126.8783346 -0.477610E-05  0.219E-03    2.90       5.4  T
   5   -126.8783347 -0.126984E-06  0.126E-03    2.90       9.4  T
   6   -126.8783347 -0.200149E-07  0.661E-04    2.90      17.8  T
   7   -126.8783347 -0.752074E-08  0.446E-04    2.90      26.4  T
     SCC iter.                  ...        0 min,  0.177 sec
     gradient                   ...        0 min,  0.152 sec
 * total energy  :  -124.9597023 Eh     change       -0.1186126E-03 Eh
   gradient norm :     0.0041560 Eh/α   predicted    -0.9645471E-04 ( -18.68%)
   displ. norm   :     0.6259494 α      lambda       -0.1500696E-03
   maximum displ.:     0.3558806 α      in ANC's #1, #2, #8, ...

........................................................................
.............................. CYCLE   40 ..............................
........................................................................
   1   -126.8754251 -0.126875E+03  0.959E-02    2.91       0.0  T
   2   -126.8754273 -0.223342E-05  0.561E-02    2.91       1.0  T
   3   -126.8754229  0.441811E-05  0.849E-03    2.91       1.4  T
   4   -126.8754284 -0.549126E-05  0.192E-03    2.91       6.1  T
   5   -126.8754285 -0.861172E-07  0.113E-03    2.91      10.4  T
   6   -126.8754285 -0.194758E-07  0.507E-04    2.91      23.2  T
   7   -126.8754285 -0.615783E-08  0.308E-04    2.91      38.2  T
     SCC iter.                  ...        0 min,  0.179 sec
     gradient                   ...        0 min,  0.119 sec
 * total energy  :  -124.9598231 Eh     change       -0.1207094E-03 Eh
   gradient norm :     0.0048067 Eh/α   predicted    -0.1044360E-03 ( -13.48%)
   displ. norm   :     0.5093152 α      lambda       -0.1926007E-03
   maximum displ.:     0.2858318 α      in ANC's #1, #2, #6, ...

........................................................................
.............................. CYCLE   41 ..............................
........................................................................
   1   -126.8811824 -0.126881E+03  0.727E-02    2.94       0.0  T
   2   -126.8811856 -0.313093E-05  0.426E-02    2.94       1.0  T
   3   -126.8811808  0.473793E-05  0.924E-03    2.94       1.3  T
   4   -126.8811866 -0.572119E-05  0.225E-03    2.93       5.2  T
   5   -126.8811868 -0.210081E-06  0.118E-03    2.93      10.0  T
   6   -126.8811868 -0.235560E-07  0.586E-04    2.93      20.1  T
   7   -126.8811868 -0.441491E-08  0.395E-04    2.93      29.8  T
     SCC iter.                  ...        0 min,  0.176 sec
     gradient                   ...        0 min,  0.154 sec
 * total energy  :  -124.9599625 Eh     change       -0.1394862E-03 Eh
   gradient norm :     0.0046522 Eh/α   predicted    -0.1212867E-03 ( -13.05%)
   displ. norm   :     0.6603430 α      lambda       -0.1802292E-03
   maximum displ.:     0.3774638 α      in ANC's #1, #2, #8, ...

........................................................................
.............................. CYCLE   42 ..............................
........................................................................
   1   -126.8784075 -0.126878E+03  0.984E-02    2.94       0.0  T
   2   -126.8784096 -0.211909E-05  0.575E-02    2.93       1.0  T
   3   -126.8784021  0.755923E-05  0.100E-02    2.93       1.2  T
   4   -126.8784110 -0.892956E-05  0.192E-03    2.93       6.1  T
   5   -126.8784111 -0.540080E-07  0.113E-03    2.93      10.4  T
   6   -126.8784111 -0.296996E-07  0.435E-04    2.93      27.1  T
   7   -126.8784111 -0.365499E-08  0.249E-04    2.93      47.4  T
     SCC iter.                  ...        0 min,  0.177 sec
     gradient                   ...        0 min,  0.135 sec
 * total energy  :  -124.9601199 Eh     change       -0.1573669E-03 Eh
   gradient norm :     0.0055199 Eh/α   predicted    -0.1294095E-03 ( -17.77%)
   displ. norm   :     0.5555458 α      lambda       -0.2643365E-03
   maximum displ.:     0.3027081 α      in ANC's #1, #2, #6, ...
 * RMSD in coord.:     0.8878921 α      energy gain  -0.1547536E-02 Eh

generating ANC from model Hessian ...
Using Lindh-Hessian (1995)
 Shifting diagonal of input Hessian by    9.8768787653856424E-003
 Lowest  eigenvalues of input Hessian
    0.000000    0.000000    0.000000    0.000000    0.000000    0.000000
    0.010000    0.010077    0.010143    0.010272    0.010383    0.010543
    0.010675    0.010742    0.011156    0.011230    0.011429    0.011943
 Highest eigenvalues
    2.035834    2.123237    2.127665    2.347136    2.355508    2.399851


........................................................................
.............................. CYCLE   43 ..............................
........................................................................
   1   -126.8806641 -0.126881E+03  0.912E-02    2.95       0.0  T
   2   -126.8806673 -0.317858E-05  0.533E-02    2.95       1.0  T
   3   -126.8806560  0.113126E-04  0.120E-02    2.95       1.0  T
   4   -126.8806690 -0.130143E-04  0.243E-03    2.95       4.8  T
   5   -126.8806691 -0.146723E-06  0.138E-03    2.95       8.5  T
   6   -126.8806692 -0.318051E-07  0.773E-04    2.95      15.2  T
   7   -126.8806692 -0.928391E-08  0.520E-04    2.95      22.6  T
     SCC iter.                  ...        0 min,  0.178 sec
     gradient                   ...        0 min,  0.133 sec
 * total energy  :  -124.9603226 Eh     change       -0.2026538E-03 Eh
   gradient norm :     0.0046206 Eh/α   predicted     0.0000000E+00 (-100.00%)
   displ. norm   :     0.0490314 α      lambda       -0.6948683E-04
   maximum displ.:     0.0223423 α      in ANC's #2, #1, #10, ...

........................................................................
.............................. CYCLE   44 ..............................
........................................................................
   1   -126.8820611 -0.126882E+03  0.124E-02    2.95       0.0  T
   2   -126.8820614 -0.300772E-06  0.728E-03    2.95       1.6  T
   3   -126.8820611  0.246505E-06  0.231E-03    2.95       5.1  T
   4   -126.8820614 -0.301323E-06  0.635E-04    2.95      18.6  T
   5   -126.8820614 -0.182945E-07  0.329E-04    2.95      35.9  T
     SCC iter.                  ...        0 min,  0.128 sec
     gradient                   ...        0 min,  0.119 sec
 * total energy  :  -124.9603770 Eh     change       -0.5444396E-04 Eh
   gradient norm :     0.0021873 Eh/α   predicted    -0.3485323E-04 ( -35.98%)
   displ. norm   :     0.1251008 α      lambda       -0.9771076E-04
   maximum displ.:     0.0605709 α      in ANC's #2, #1, #10, ...

........................................................................
.............................. CYCLE   45 ..............................
........................................................................
   1   -126.8831876 -0.126883E+03  0.279E-02    2.94       0.0  T
   2   -126.8831882 -0.595567E-06  0.163E-02    2.94       1.0  T
   3   -126.8831875  0.711720E-06  0.359E-03    2.94       3.3  T
   4   -126.8831883 -0.874018E-06  0.101E-03    2.94      11.7  T
   5   -126.8831883 -0.242012E-07  0.603E-04    2.94      19.5  T
   6   -126.8831884 -0.824851E-08  0.366E-04    2.94      32.2  T
     SCC iter.                  ...        0 min,  0.154 sec
     gradient                   ...        0 min,  0.126 sec
 * total energy  :  -124.9604411 Eh     change       -0.6406150E-04 Eh
   gradient norm :     0.0026215 Eh/α   predicted    -0.4967112E-04 ( -22.46%)
   displ. norm   :     0.1090689 α      lambda       -0.4457133E-04
   maximum displ.:     0.0572356 α      in ANC's #2, #1, #10, ...

........................................................................
.............................. CYCLE   46 ..............................
........................................................................
   1   -126.8826127 -0.126883E+03  0.230E-02    2.94       0.0  T
   2   -126.8826129 -0.152328E-06  0.134E-02    2.94       1.0  T
   3   -126.8826127  0.164004E-06  0.190E-03    2.94       6.2  T
   4   -126.8826130 -0.224051E-06  0.662E-04    2.94      17.8  T
   5   -126.8826130 -0.273504E-08  0.380E-04    2.94      31.0  T
     SCC iter.                  ...        0 min,  0.128 sec
     gradient                   ...        0 min,  0.138 sec
 * total energy  :  -124.9604765 Eh     change       -0.3543638E-04 Eh
   gradient norm :     0.0028166 Eh/α   predicted    -0.2257039E-04 ( -36.31%)
   displ. norm   :     0.1720513 α      lambda       -0.6229057E-04
   maximum displ.:     0.0910594 α      in ANC's #2, #1, #10, ...

........................................................................
.............................. CYCLE   47 ..............................
........................................................................
   1   -126.8813410 -0.126881E+03  0.364E-02    2.94       0.0  T
   2   -126.8813413 -0.341566E-06  0.212E-02    2.94       1.0  T
   3   -126.8813408  0.517902E-06  0.310E-03    2.94       3.8  T
   4   -126.8813415 -0.661072E-06  0.105E-03    2.94      11.3  T
   5   -126.8813415 -0.994241E-08  0.607E-04    2.94      19.4  T
   6   -126.8813415 -0.107822E-07  0.354E-04    2.94      33.3  T
     SCC iter.                  ...        0 min,  0.154 sec
     gradient                   ...        0 min,  0.149 sec
 * total energy  :  -124.9605264 Eh     change       -0.4992618E-04 Eh
   gradient norm :     0.0023253 Eh/α   predicted    -0.3206742E-04 ( -35.77%)
   displ. norm   :     0.2353955 α      lambda       -0.7509227E-04
   maximum displ.:     0.1255157 α      in ANC's #2, #1, #10, ...

........................................................................
.............................. CYCLE   48 ..............................
........................................................................
   1   -126.8800490 -0.126880E+03  0.495E-02    2.94       0.0  T
   2   -126.8800496 -0.549852E-06  0.288E-02    2.94       1.0  T
   3   -126.8800483  0.123234E-05  0.448E-03    2.94       2.6  T
   4   -126.8800498 -0.149746E-05  0.146E-03    2.94       8.1  T
   5   -126.8800499 -0.221236E-07  0.876E-04    2.94      13.5  T
   6   -126.8800499 -0.216559E-07  0.508E-04    2.94      23.2  T
     SCC iter.                  ...        0 min,  0.152 sec
     gradient                   ...        0 min,  0.135 sec
 * total energy  :  -124.9605875 Eh     change       -0.6106775E-04 Eh
   gradient norm :     0.0025351 Eh/α   predicted    -0.3963198E-04 ( -35.10%)
   displ. norm   :     0.2954467 α      lambda       -0.8913190E-04
   maximum displ.:     0.1582633 α      in ANC's #2, #1, #10, ...

........................................................................
.............................. CYCLE   49 ..............................
........................................................................
   1   -126.8793725 -0.126879E+03  0.607E-02    2.94       0.0  T
   2   -126.8793733 -0.739554E-06  0.354E-02    2.94       1.0  T
   3   -126.8793712  0.208997E-05  0.572E-03    2.94       2.1  T
   4   -126.8793737 -0.250241E-05  0.175E-03    2.94       6.7  T
   5   -126.8793737 -0.245823E-07  0.108E-03    2.94      10.9  T
   6   -126.8793737 -0.325077E-07  0.635E-04    2.94      18.6  T
   7   -126.8793737 -0.167610E-08  0.465E-04    2.94      25.3  T
     SCC iter.                  ...        0 min,  0.178 sec
     gradient                   ...        0 min,  0.093 sec
 * total energy  :  -124.9606619 Eh     change       -0.7439598E-04 Eh
   gradient norm :     0.0033339 Eh/α   predicted    -0.4849077E-04 ( -34.82%)
   displ. norm   :     0.3646038 α      lambda       -0.1115560E-03
   maximum displ.:     0.1963412 α      in ANC's #2, #1, #10, ...

........................................................................
.............................. CYCLE   50 ..............................
........................................................................
   1   -126.8795790 -0.126880E+03  0.717E-02    2.95       0.0  T
   2   -126.8795801 -0.106339E-05  0.418E-02    2.95       1.0  T
   3   -126.8795770  0.312337E-05  0.693E-03    2.95       1.7  T
   4   -126.8795807 -0.371323E-05  0.192E-03    2.95       6.1  T
   5   -126.8795807 -0.333409E-07  0.118E-03    2.95      10.0  T
   6   -126.8795808 -0.373848E-07  0.675E-04    2.95      17.4  T
   7   -126.8795808 -0.308512E-08  0.507E-04    2.95      23.3  T
     SCC iter.                  ...        0 min,  0.179 sec
     gradient                   ...        0 min,  0.143 sec
 * total energy  :  -124.9607555 Eh     change       -0.9364019E-04 Eh
   gradient norm :     0.0038115 Eh/α   predicted    -0.6319370E-04 ( -32.51%)
   displ. norm   :     0.4235400 α      lambda       -0.1315806E-03
   maximum displ.:     0.2296535 α      in ANC's #2, #1, #10, ...

........................................................................
.............................. CYCLE   51 ..............................
........................................................................
   1   -126.8806491 -0.126881E+03  0.781E-02    2.96       0.0  T
   2   -126.8806506 -0.149329E-05  0.456E-02    2.95       1.0  T
   3   -126.8806467  0.386044E-05  0.777E-03    2.95       1.5  T
   4   -126.8806513 -0.458067E-05  0.200E-03    2.95       5.9  T
   5   -126.8806514 -0.600565E-07  0.125E-03    2.95       9.4  T
   6   -126.8806514 -0.337553E-07  0.720E-04    2.95      16.4  T
   7   -126.8806514 -0.531702E-08  0.537E-04    2.95      21.9  T
     SCC iter.                  ...        0 min,  0.179 sec
     gradient                   ...        0 min,  0.122 sec
 * total energy  :  -124.9608664 Eh     change       -0.1108253E-03 Eh
   gradient norm :     0.0035954 Eh/α   predicted    -0.7760161E-04 ( -29.98%)
   displ. norm   :     0.4718132 α      lambda       -0.1444432E-03
   maximum displ.:     0.2576208 α      in ANC's #2, #1, #7, ...

........................................................................
.............................. CYCLE   52 ..............................
........................................................................
   1   -126.8820089 -0.126882E+03  0.811E-02    2.96       0.0  T
   2   -126.8820108 -0.185138E-05  0.474E-02    2.96       1.0  T
   3   -126.8820065  0.427454E-05  0.818E-03    2.96       1.4  T
   4   -126.8820116 -0.507762E-05  0.192E-03    2.96       6.1  T
   5   -126.8820116 -0.748570E-07  0.121E-03    2.96       9.7  T
   6   -126.8820117 -0.267812E-07  0.718E-04    2.96      16.4  T
   7   -126.8820117 -0.651269E-08  0.523E-04    2.96      22.5  T
     SCC iter.                  ...        0 min,  0.178 sec
     gradient                   ...        0 min,  0.135 sec
 * total energy  :  -124.9609896 Eh     change       -0.1232300E-03 Eh
   gradient norm :     0.0030117 Eh/α   predicted    -0.8832775E-04 ( -28.32%)
   displ. norm   :     0.5194647 α      lambda       -0.1529481E-03
   maximum displ.:     0.2852846 α      in ANC's #2, #1, #7, ...

........................................................................
.............................. CYCLE   53 ..............................
........................................................................
   1   -126.8828067 -0.126883E+03  0.844E-02    2.97       0.0  T
   2   -126.8828087 -0.200762E-05  0.494E-02    2.96       1.0  T
   3   -126.8828041  0.465675E-05  0.839E-03    2.96       1.4  T
   4   -126.8828096 -0.553473E-05  0.177E-03    2.96       6.7  T
   5   -126.8828097 -0.684497E-07  0.111E-03    2.96      10.6  T
   6   -126.8828097 -0.219394E-07  0.658E-04    2.96      17.9  T
   7   -126.8828097 -0.598392E-08  0.470E-04    2.96      25.1  T
     SCC iter.                  ...        0 min,  0.181 sec
     gradient                   ...        0 min,  0.137 sec
 * total energy  :  -124.9611226 Eh     change       -0.1330159E-03 Eh
   gradient norm :     0.0027582 Eh/α   predicted    -0.9711080E-04 ( -26.99%)
   displ. norm   :     0.5379026 α      lambda       -0.1576975E-03
   maximum displ.:     0.2969087 α      in ANC's #2, #1, #7, ...

........................................................................
.............................. CYCLE   54 ..............................
........................................................................
   1   -126.8829519 -0.126883E+03  0.836E-02    2.96       0.0  T
   2   -126.8829537 -0.188411E-05  0.490E-02    2.96       1.0  T
   3   -126.8829492  0.457399E-05  0.814E-03    2.96       1.4  T
   4   -126.8829546 -0.543786E-05  0.155E-03    2.96       7.6  T
   5   -126.8829547 -0.511859E-07  0.945E-04    2.96      12.5  T
   6   -126.8829547 -0.178654E-07  0.522E-04    2.96      22.6  T
     SCC iter.                  ...        0 min,  0.153 sec
     gradient                   ...        0 min,  0.141 sec
 * total energy  :  -124.9612590 Eh     change       -0.1364176E-03 Eh
   gradient norm :     0.0027188 Eh/α   predicted    -0.1016665E-03 ( -25.47%)
   displ. norm   :     0.5510144 α      lambda       -0.1539796E-03
   maximum displ.:     0.3060498 α      in ANC's #2, #1, #7, ...

........................................................................
.............................. CYCLE   55 ..............................
........................................................................
   1   -126.8823804 -0.126882E+03  0.834E-02    2.96       0.0  T
   2   -126.8823822 -0.183723E-05  0.489E-02    2.96       1.0  T
   3   -126.8823777  0.453135E-05  0.802E-03    2.96       1.5  T
   4   -126.8823831 -0.539245E-05  0.151E-03    2.96       7.8  T
   5   -126.8823831 -0.459552E-07  0.918E-04    2.96      12.8  T
   6   -126.8823831 -0.196493E-07  0.462E-04    2.96      25.5  T
     SCC iter.                  ...        0 min,  0.152 sec
     gradient                   ...        0 min,  0.135 sec
 * total energy  :  -124.9613926 Eh     change       -0.1335458E-03 Eh
   gradient norm :     0.0026303 Eh/α   predicted    -0.1003698E-03 ( -24.84%)
   displ. norm   :     0.5252083 α      lambda       -0.1415744E-03
   maximum displ.:     0.2951122 α      in ANC's #1, #2, #7, ...

........................................................................
.............................. CYCLE   56 ..............................
........................................................................
   1   -126.8820384 -0.126882E+03  0.773E-02    2.96       0.0  T
   2   -126.8820401 -0.162033E-05  0.452E-02    2.96       1.0  T
   3   -126.8820363  0.378016E-05  0.740E-03    2.96       1.6  T
   4   -126.8820408 -0.454192E-05  0.151E-03    2.96       7.8  T
   5   -126.8820409 -0.333187E-07  0.932E-04    2.96      12.6  T
   6   -126.8820409 -0.211755E-07  0.470E-04    2.96      25.1  T
     SCC iter.                  ...        0 min,  0.152 sec
     gradient                   ...        0 min,  0.121 sec
 * total energy  :  -124.9615153 Eh     change       -0.1227257E-03 Eh
   gradient norm :     0.0026099 Eh/α   predicted    -0.9031421E-04 ( -26.41%)
   displ. norm   :     0.5034235 α      lambda       -0.1324494E-03
   maximum displ.:     0.2897680 α      in ANC's #1, #2, #7, ...

........................................................................
.............................. CYCLE   57 ..............................
........................................................................
   1   -126.8813180 -0.126881E+03  0.743E-02    2.95       0.0  T
   2   -126.8813194 -0.137623E-05  0.435E-02    2.96       1.0  T
   3   -126.8813161  0.326012E-05  0.695E-03    2.96       1.7  T
   4   -126.8813201 -0.394630E-05  0.153E-03    2.96       7.7  T
   5   -126.8813201 -0.219892E-07  0.968E-04    2.96      12.2  T
   6   -126.8813201 -0.234126E-07  0.516E-04    2.96      22.9  T
     SCC iter.                  ...        0 min,  0.153 sec
     gradient                   ...        0 min,  0.134 sec
 * total energy  :  -124.9616319 Eh     change       -0.1165547E-03 Eh
   gradient norm :     0.0027314 Eh/α   predicted    -0.8301025E-04 ( -28.78%)
   displ. norm   :     0.5008537 α      lambda       -0.1426647E-03
   maximum displ.:     0.3000365 α      in ANC's #1, #2, #7, ...

........................................................................
.............................. CYCLE   58 ..............................
........................................................................
   1   -126.8824977 -0.126882E+03  0.718E-02    2.95       0.0  T
   2   -126.8824992 -0.144412E-05  0.419E-02    2.95       1.0  T
   3   -126.8824961  0.304247E-05  0.702E-03    2.95       1.7  T
   4   -126.8824999 -0.375262E-05  0.193E-03    2.95       6.1  T
   5   -126.8824999 -0.261679E-07  0.117E-03    2.95      10.1  T
   6   -126.8824999 -0.329902E-07  0.676E-04    2.95      17.4  T
   7   -126.8824999 -0.358186E-08  0.494E-04    2.95      23.8  T
     SCC iter.                  ...        0 min,  0.176 sec
     gradient                   ...        0 min,  0.145 sec
 * total energy  :  -124.9617554 Eh     change       -0.1235167E-03 Eh
   gradient norm :     0.0028368 Eh/α   predicted    -0.8923208E-04 ( -27.76%)
   displ. norm   :     0.5525744 α      lambda       -0.1528039E-03
   maximum displ.:     0.3298170 α      in ANC's #1, #2, #7, ...

........................................................................
.............................. CYCLE   59 ..............................
........................................................................
   1   -126.8800374 -0.126880E+03  0.859E-02    2.95       0.0  T
   2   -126.8800390 -0.159645E-05  0.502E-02    2.95       1.0  T
   3   -126.8800347  0.427764E-05  0.807E-03    2.95       1.5  T
   4   -126.8800399 -0.518998E-05  0.196E-03    2.95       6.0  T
   5   -126.8800399 -0.161464E-07  0.116E-03    2.95      10.2  T
   6   -126.8800400 -0.348088E-07  0.688E-04    2.95      17.1  T
   7   -126.8800400 -0.305864E-08  0.512E-04    2.95      23.0  T
     SCC iter.                  ...        0 min,  0.182 sec
     gradient                   ...        0 min,  0.155 sec
 * total energy  :  -124.9618751 Eh     change       -0.1197461E-03 Eh
   gradient norm :     0.0034242 Eh/α   predicted    -0.9974946E-04 ( -16.70%)
   displ. norm   :     0.4661210 α      lambda       -0.1502464E-03
   maximum displ.:     0.2975729 α      in ANC's #1, #2, #7, ...

........................................................................
.............................. CYCLE   60 ..............................
........................................................................
   1   -126.8829405 -0.126883E+03  0.677E-02    2.95       0.0  T
   2   -126.8829422 -0.174356E-05  0.391E-02    2.95       1.0  T
   3   -126.8829383  0.387316E-05  0.793E-03    2.95       1.5  T
   4   -126.8829430 -0.472554E-05  0.249E-03    2.95       4.7  T
   5   -126.8829431 -0.708293E-07  0.138E-03    2.95       8.5  T
   6   -126.8829432 -0.359272E-07  0.862E-04    2.95      13.7  T
   7   -126.8829432 -0.493814E-08  0.640E-04    2.95      18.4  T
     SCC iter.                  ...        0 min,  0.183 sec
     gradient                   ...        0 min,  0.163 sec
 * total energy  :  -124.9619883 Eh     change       -0.1132215E-03 Eh
   gradient norm :     0.0027326 Eh/α   predicted    -0.9144786E-04 ( -19.23%)
   displ. norm   :     0.4559448 α      lambda       -0.1015020E-03
   maximum displ.:     0.2905455 α      in ANC's #1, #2, #7, ...

........................................................................
.............................. CYCLE   61 ..............................
........................................................................
   1   -126.8824678 -0.126882E+03  0.683E-02    2.96       0.0  T
   2   -126.8824690 -0.121984E-05  0.396E-02    2.96       1.0  T
   3   -126.8824656  0.343343E-05  0.723E-03    2.96       1.6  T
   4   -126.8824697 -0.414750E-05  0.204E-03    2.96       5.8  T
   5   -126.8824698 -0.284565E-07  0.110E-03    2.96      10.7  T
   6   -126.8824698 -0.250940E-07  0.715E-04    2.96      16.5  T
   7   -126.8824698 -0.250411E-08  0.522E-04    2.96      22.6  T
     SCC iter.                  ...        0 min,  0.180 sec
     gradient                   ...        0 min,  0.130 sec
 * total energy  :  -124.9620736 Eh     change       -0.8528137E-04 Eh
   gradient norm :     0.0027237 Eh/α   predicted    -0.6130156E-04 ( -28.12%)
   displ. norm   :     0.3644650 α      lambda       -0.9109824E-04
   maximum displ.:     0.2415974 α      in ANC's #1, #2, #7, ...

[...]
       104        2.0000           -0.4206910             -11.4476
       105        2.0000           -0.4188007             -11.3961
       106        2.0000           -0.4157019             -11.3118
       107        2.0000           -0.4141142             -11.2686
       108        2.0000           -0.4118832             -11.2079
       109        2.0000           -0.4101826             -11.1616
       110        2.0000           -0.4084449             -11.1144
       111        2.0000           -0.4059040             -11.0452
       112        2.0000           -0.3938674             -10.7177
       113        2.0000           -0.3872752             -10.5383 (HOMO)
       114                         -0.2800489              -7.6205 (LUMO)
       115                         -0.2772466              -7.5443
       116                         -0.2735772              -7.4444
       117                         -0.2720868              -7.4039
       118                         -0.2688096              -7.3147
       119                         -0.2635900              -7.1726
       120                         -0.2618112              -7.1242
       121                         -0.2440495              -6.6409
       122                         -0.2389898              -6.5032
       123                         -0.2268704              -6.1735
       124                         -0.2229978              -6.0681
       ...                                ...                  ...
       220                          0.6893549              18.7583
      -------------------------------------------------------------
                  HL-Gap            0.1072263 Eh            2.9178 eV
             Fermi-level           -0.3336620 Eh           -9.0794 eV

     #   Z          covCN         q      C6AA      α(0)
     1   6 C        2.919    -0.030    28.739     8.791
     2   6 C        2.917    -0.032    28.806     8.801
     3   6 C        2.988     0.015    27.667     8.628
     4   6 C        2.918    -0.033    28.820     8.803
     5   6 C        2.916    -0.028    28.695     8.784
     6   6 C        2.916    -0.027    28.686     8.783
     7   6 C        2.918    -0.033    28.814     8.803
     8   6 C        2.987     0.018    27.606     8.619
     9   6 C        2.924    -0.037    28.921     8.819
    10   6 C        2.969     0.004    27.942     8.671
    11   6 C        3.829     0.039    19.890     6.346
    12   6 C        3.854     0.036    19.941     6.351
    13   6 C        2.969    -0.002    28.081     8.692
    14   6 C        2.920    -0.048    29.187     8.859
    15   6 C        2.987     0.012    27.736     8.639
    16   6 C        2.919    -0.038    28.946     8.823
    17   6 C        2.916    -0.029    28.726     8.789
    18   6 C        2.916    -0.028    28.709     8.786
    19   6 C        2.918    -0.032    28.805     8.801
    20   6 C        2.987     0.015    27.664     8.628
    21   6 C        2.917    -0.030    28.748     8.792
    22   6 C        2.922    -0.033    28.813     8.803
    23   7 N        2.775    -0.112    23.438     7.190
    24   6 C        2.761     0.275    22.351     7.742
    25   6 C        2.974    -0.019    28.473     8.753
    26   6 C        2.923    -0.036    28.889     8.814
    27   6 C        2.991    -0.033    28.818     8.806
    28   6 C        2.917     0.086    26.084     8.375
    29  35 Br       1.067    -0.154   189.296    22.184
    30   6 C        2.990    -0.033    28.819     8.806
    31   6 C        2.927    -0.020    28.512     8.757
    32   8 O        0.859    -0.411    21.907     6.275
    33   6 C        3.781     0.090    19.105     6.227
    34   6 C        2.688     0.351    21.042     7.507
    35   8 O        1.659    -0.358    20.056     6.046
    36   8 O        0.856    -0.387    21.416     6.205
    37   7 N        2.769    -0.115    23.508     7.201
    38   6 C        2.760     0.275    22.350     7.742
    39   6 C        2.975    -0.016    28.415     8.744
    40   6 C        2.925    -0.020    28.515     8.757
    41   6 C        2.991    -0.033    28.814     8.805
    42   6 C        2.918     0.085    26.102     8.378
    43  35 Br       1.069    -0.153   189.260    22.182
    44   6 C        2.991    -0.034    28.845     8.810
    45   6 C        2.926    -0.031    28.772     8.797
    46   8 O        0.859    -0.411    21.894     6.273
    47   1 H        0.926     0.013     2.846     2.638
    48   1 H        0.926     0.035     2.517     2.481
    49   1 H        0.926     0.035     2.522     2.483
    50   1 H        0.926     0.035     2.523     2.484
    51   1 H        0.926     0.035     2.519     2.482
    52   1 H        0.926     0.036     2.501     2.473
    53   1 H        0.926     0.038     2.476     2.461
    54   1 H        0.924     0.069     2.091     2.261
    55   1 H        0.924     0.085     1.930     2.173
    56   1 H        0.926     0.036     2.504     2.474
    57   1 H        0.925     0.031     2.566     2.505
    58   1 H        0.926     0.034     2.531     2.488
    59   1 H        0.926     0.035     2.513     2.479
    60   1 H        0.926     0.037     2.486     2.465
    61   1 H        0.926     0.043     2.411     2.428
    62   1 H        0.926     0.050     2.325     2.384
    63   1 H        0.926     0.066     2.129     2.282
    64   1 H        0.926     0.062     2.179     2.308
    65   1 H        0.926     0.063     2.167     2.302
    66   1 H        0.926     0.061     2.183     2.311
    67   1 H        0.923     0.066     2.128     2.281
    68   1 H        0.804     0.348     0.593     1.210
    69   1 H        0.926     0.060     2.197     2.318
    70   1 H        0.926     0.063     2.167     2.302
    71   1 H        0.926     0.061     2.189     2.314
    72   1 H        0.926     0.040     2.453     2.449

 Mol. C6AA /au·bohr⁶  :      85441.961823
 Mol. C8AA /au·bohr⁸  :    2389087.647312
 Mol. α(0) /au        :        466.423390


Wiberg/Mayer (AO) data.
largest (>0.10) Wiberg bond orders for each atom

 ---------------------------------------------------------------------------
     #   Z sym  total        # sym  WBO       # sym  WBO       # sym  WBO
 ---------------------------------------------------------------------------
     1   6 C    3.992 --     2 C    1.562    10 C    1.296    47 H    0.966
     2   6 C    3.992 --     1 C    1.562     3 C    1.278    48 H    0.968
                             9 C    0.115
     3   6 C    3.990 --     4 C    1.281     2 C    1.278     8 C    1.250
     4   6 C    3.992 --     5 C    1.557     3 C    1.281    49 H    0.968
                             7 C    0.118
     5   6 C    3.990 --     4 C    1.557     6 C    1.320    50 H    0.971
     6   6 C    3.992 --     7 C    1.558     5 C    1.320    51 H    0.971
     7   6 C    3.990 --     6 C    1.558     8 C    1.278    52 H    0.968
                             4 C    0.118
     8   6 C    3.990 --     9 C    1.283     7 C    1.278     3 C    1.250
     9   6 C    3.989 --    10 C    1.525     8 C    1.283    53 H    0.965
                             2 C    0.115
    10   6 C    3.985 --     9 C    1.525     1 C    1.296    11 C    0.987
    11   6 C    3.960 --    10 C    0.987    12 C    0.962    37 N    0.953
                            54 H    0.950
    12   6 C    3.954 --    13 C    0.985    11 C    0.962    55 H    0.949
                            23 N    0.947
    13   6 C    3.984 --    14 C    1.530    22 C    1.286    12 C    0.985
    14   6 C    3.990 --    13 C    1.530    15 C    1.274    56 H    0.961
                            21 C    0.112
    15   6 C    3.990 --    16 C    1.281    14 C    1.274    20 C    1.254
    16   6 C    3.990 --    17 C    1.555    15 C    1.281    57 H    0.968
                            19 C    0.118
    17   6 C    3.992 --    16 C    1.555    18 C    1.323    58 H    0.971
    18   6 C    3.990 --    19 C    1.554    17 C    1.323    59 H    0.971
    19   6 C    3.991 --    18 C    1.554    20 C    1.283    60 H    0.968
                            16 C    0.118
    20   6 C    3.990 --    19 C    1.283    21 C    1.272    15 C    1.254
    21   6 C    3.991 --    22 C    1.571    20 C    1.272    61 H    0.967
                            14 C    0.112
    22   6 C    3.989 --    21 C    1.571    13 C    1.286    62 H    0.967
    23   7 N    3.458 --    24 C    1.191    33 C    0.998    12 C    0.947
                            32 O    0.187
    24   6 C    3.945 --    32 O    1.698    23 N    1.191    25 C    0.974
    25   6 C    3.987 --    31 C    1.397    26 C    1.393    24 C    0.974
    26   6 C    3.988 --    27 C    1.445    25 C    1.393    63 H    0.961
                            30 C    0.107
    27   6 C    3.989 --    26 C    1.445    28 C    1.407    64 H    0.967
                            31 C    0.107
    28   6 C    3.941 --    27 C    1.407    30 C    1.405    29 Br   0.991
    29  35 Br   1.129 --    28 C    0.991
    30   6 C    3.989 --    31 C    1.446    28 C    1.405    65 H    0.966
                            26 C    0.107
    31   6 C    3.988 --    30 C    1.446    25 C    1.397    66 H    0.965
                            27 C    0.107
    32   8 O    2.028 --    24 C    1.698    23 N    0.187
    33   6 C    3.977 --    23 N    0.998    37 N    0.985    67 H    0.923
                            34 C    0.910
    34   6 C    3.920 --    36 O    1.773    35 O    1.160    33 C    0.910
    35   8 O    2.224 --    34 C    1.160    68 H    0.852    36 O    0.181
    36   8 O    2.062 --    34 C    1.773    35 O    0.181
    37   7 N    3.464 --    38 C    1.210    33 C    0.985    11 C    0.953
                            46 O    0.194
    38   6 C    3.949 --    46 O    1.701    37 N    1.210    39 C    0.956
    39   6 C    3.988 --    40 C    1.408    45 C    1.397    38 C    0.956
    40   6 C    3.989 --    41 C    1.441    39 C    1.408    69 H    0.966
                            44 C    0.108
    41   6 C    3.989 --    40 C    1.441    42 C    1.410    70 H    0.967
                            45 C    0.108
    42   6 C    3.942 --    41 C    1.410    44 C    1.405    43 Br   0.991
    43  35 Br   1.127 --    42 C    0.991
    44   6 C    3.989 --    45 C    1.445    42 C    1.405    71 H    0.967
                            40 C    0.108
    45   6 C    3.991 --    44 C    1.445    39 C    1.397    72 H    0.965
                            41 C    0.108
    46   8 O    2.027 --    38 C    1.701    37 N    0.194
    47   1 H    0.999 --     1 C    0.966
    48   1 H    0.998 --     2 C    0.968
    49   1 H    0.998 --     4 C    0.968
    50   1 H    0.998 --     5 C    0.971
    51   1 H    0.998 --     6 C    0.971
    52   1 H    0.998 --     7 C    0.968
    53   1 H    0.998 --     9 C    0.965
    54   1 H    0.994 --    11 C    0.950
    55   1 H    0.991 --    12 C    0.949
    56   1 H    0.998 --    14 C    0.961
    57   1 H    0.999 --    16 C    0.968
    58   1 H    0.998 --    17 C    0.971
    59   1 H    0.998 --    18 C    0.971
    60   1 H    0.998 --    19 C    0.968
    61   1 H    0.997 --    21 C    0.967
    62   1 H    0.997 --    22 C    0.967
    63   1 H    0.996 --    26 C    0.961
    64   1 H    0.996 --    27 C    0.967
    65   1 H    0.996 --    30 C    0.966
    66   1 H    0.996 --    31 C    0.965
    67   1 H    0.995 --    33 C    0.923
    68   1 H    0.878 --    35 O    0.852
    69   1 H    0.996 --    40 C    0.966
    70   1 H    0.996 --    41 C    0.967
    71   1 H    0.996 --    44 C    0.967
    72   1 H    0.998 --    45 C    0.965
 ---------------------------------------------------------------------------

Topologies differ in total number of bonds
Writing topology from bond orders to xtbtopo.mol

molecular dipole:
                 x           y           z       tot (Debye)
 q only:       -0.185      -1.210      -0.944
   full:       -0.224      -1.656      -1.127       5.122
molecular quadrupole (traceless):
                xx          xy          yy          xz          yz          zz
 q only:       10.419       3.088     -16.229      24.719       1.609       5.810
  q+dip:       19.269       8.356     -38.091      34.306       3.225      18.822
   full:       19.550       8.726     -34.645      29.466       0.386      15.095

           -------------------------------------------------
          |                Geometry Summary                 |
           -------------------------------------------------

      molecular mass/u    :      734.4325054
   center of mass at/Å    :       -0.2590872       1.3216543       0.2435822
  moments of inertia/u·Å² :        0.9106594E+04   0.1278571E+05   0.1509715E+05
rotational constants/cm⁻¹ :        0.1851146E-02   0.1318475E-02   0.1116610E-02

 * 73 selected distances

     #   Z          #   Z                                           value/Å
     1   6 C        2   6 C                                       1.3648004
     2   6 C        3   6 C                                       1.4098040
     3   6 C        4   6 C                                       1.4099107
     4   6 C        5   6 C                                       1.3667006
     5   6 C        6   6 C                                       1.4040089
     6   6 C        7   6 C                                       1.3665102
     3   6 C        8   6 C                                       1.4190604
     7   6 C        8   6 C                                       1.4105842
     8   6 C        9   6 C                                       1.4087759
     1   6 C       10   6 C                                       1.4083558
     9   6 C       10   6 C                                       1.3694012
    11   6 C       12   6 C                                       1.5406453
    13   6 C       14   6 C                                       1.3693867
    14   6 C       15   6 C                                       1.4113889
    15   6 C       16   6 C                                       1.4105258
    16   6 C       17   6 C                                       1.3669855
    17   6 C       18   6 C                                       1.4036188
    18   6 C       19   6 C                                       1.3672028
    15   6 C       20   6 C                                       1.4181441
    19   6 C       20   6 C                                       1.4095833
    20   6 C       21   6 C                                       1.4110757
    13   6 C       22   6 C                                       1.4114322
    21   6 C       22   6 C                                       1.3635630
    12   6 C       23   7 N                                       1.4630435
    23   7 N       24   6 C                                       1.3633690
    25   6 C       26   6 C                                       1.3919442
    26   6 C       27   6 C                                       1.3834178
    27   6 C       28   6 C                                       1.3854152
    28   6 C       29  35 Br                                      1.9043120 (max)
    28   6 C       30   6 C                                       1.3857014
    25   6 C       31   6 C                                       1.3916627
    30   6 C       31   6 C                                       1.3821270
    24   6 C       32   8 O                                       1.2115994
    23   7 N       33   6 C                                       1.4350097
    34   6 C       35   8 O                                       1.3269739
    34   6 C       36   8 O                                       1.1986902
    11   6 C       37   7 N                                       1.4612481
    33   6 C       37   7 N                                       1.4448227
    37   7 N       38   6 C                                       1.3567837
    39   6 C       40   6 C                                       1.3882143
    40   6 C       41   6 C                                       1.3832778
    41   6 C       42   6 C                                       1.3849259
    42   6 C       43  35 Br                                      1.9030505
    42   6 C       44   6 C                                       1.3853069
    39   6 C       45   6 C                                       1.3917223
    44   6 C       45   6 C                                       1.3826740
    38   6 C       46   8 O                                       1.2107306
     1   6 C       47   1 H                                       1.0810463
     2   6 C       48   1 H                                       1.0808516
     4   6 C       49   1 H                                       1.0807441
     5   6 C       50   1 H                                       1.0800794
     6   6 C       51   1 H                                       1.0800877
     7   6 C       52   1 H                                       1.0805023
     9   6 C       53   1 H                                       1.0807888
    11   6 C       54   1 H                                       1.0927154
    12   6 C       55   1 H                                       1.0946641
    14   6 C       56   1 H                                       1.0805906
    16   6 C       57   1 H                                       1.0813904
    17   6 C       58   1 H                                       1.0801430
    18   6 C       59   1 H                                       1.0799372
    19   6 C       60   1 H                                       1.0804572
    21   6 C       61   1 H                                       1.0801175
    22   6 C       62   1 H                                       1.0797511
    26   6 C       63   1 H                                       1.0794280
    27   6 C       64   1 H                                       1.0789022
    30   6 C       65   1 H                                       1.0791932
    31   6 C       66   1 H                                       1.0797316
    33   6 C       67   1 H                                       1.0985436
    35   8 O       68   1 H                                       0.9720540 (min)
    40   6 C       69   1 H                                       1.0785532
    41   6 C       70   1 H                                       1.0789963
    44   6 C       71   1 H                                       1.0791939
    45   6 C       72   1 H                                       1.0809843

 * 6 distinct bonds (by element types)

   Z      Z             #   av. dist./Å        max./Å        min./Å
   1 H    6 C          25     1.0818957     1.0985436     1.0785532
   6 C    6 C          35     1.3959387     1.5406453     1.3635630
   6 C    7 N           6     1.4207128     1.4630435     1.3567837
   1 H    8 O           1     0.9720540     0.9720540     0.9720540
   6 C    8 O           4     1.2369985     1.3269739     1.1986902
   6 C   35 Br          2     1.9036813     1.9043120     1.9030505


optimized geometry written to: xtbopt.xyz


           -------------------------------------------------
          | TOTAL ENERGY             -124.964236384300 Eh   |
          | GRADIENT NORM               0.000629486948 Eh/α |
          | HOMO-LUMO GAP               2.917775465248 eV   |
           -------------------------------------------------

------------------------------------------------------------------------
 * finished run on 2022/03/16 at 22:44:03.447     
------------------------------------------------------------------------
 total:
 * wall-time:     0 d,  0 h,  0 min, 55.132 sec
 *  cpu-time:     0 d,  0 h, 18 min, 11.165 sec
 * ratio c/w:    19.792 speedup
 SCF:
 * wall-time:     0 d,  0 h,  0 min,  0.673 sec
 *  cpu-time:     0 d,  0 h,  0 min,  9.666 sec
 * ratio c/w:    14.352 speedup
 ANC optimizer:
 * wall-time:     0 d,  0 h,  0 min, 54.312 sec
 *  cpu-time:     0 d,  0 h, 17 min, 57.381 sec
 * ratio c/w:    19.837 speedup

