96
 energy: -143.118249579995 gnorm: 0.000377183101 xtb: 6.3.3 (4ae9cef)
C         2.74136499973643    1.95215639511907   -1.64001014146257
C         3.49172446655489    2.93369662880427   -2.22250306549095
C         3.18200379192154    4.29468139601705   -2.02762818057034
C         3.93390630881833    5.33149091667923   -2.61817789996936
C         3.60165709408912    6.63991280229537   -2.40643018296853
C         2.50234564709882    6.97131101922579   -1.59762696984226
C         1.75516997951599    5.98981401655426   -1.01021649404468
C         2.07453591558722    4.62951273203378   -1.20548130289264
C         1.33062868894003    3.59498603703670   -0.60701415669693
C         1.65157709847658    2.27816016254842   -0.81286096536424
C         0.77270121466814    1.21717626275920   -0.20159897792853
C        -0.42972956217313    0.91506903928658   -1.11134557133968
C        -1.62642635830304    1.74966634652023   -0.73944577669487
C        -2.14054549426729    2.64912050726812   -1.63501517573401
C        -3.23129774619461    3.47328277684149   -1.29712277428939
C        -3.77571510713317    4.40250798105077   -2.20783592201165
C        -4.84188929896313    5.18125284078665   -1.85522061575438
C        -5.41096531486848    5.06867995839810   -0.57677202011975
C        -4.90272298454892    4.18072309350250    0.32963096265637
C        -3.80329586024251    3.36337529268009   -0.00337953747311
C        -3.24414975460430    2.44274810508749    0.90667901150444
C        -2.17869357289743    1.66670445387409    0.55378841741262
N        -0.61569817026413   -0.52965188595550   -0.96885456674434
C        -1.78593322029819   -1.13125309480249   -1.34805157278110
C        -1.76572548731706   -2.62778993147883   -1.39167699763145
C        -2.40401566677078   -3.50103534248226   -0.50187211806812
C        -3.27250286564134   -3.00668967761414    0.64811325727276
C        -2.56264079891614   -1.91654634011576    1.45392771720782
C        -4.56264559804280   -2.43667803357422    0.03820289435506
C        -3.65301943323744   -4.12516103968371    1.62627521433639
C        -2.28417266728166   -4.86356789110103   -0.76322594604903
C        -1.61023263605565   -5.35001660726735   -1.86834929923129
C        -1.05120946204237   -4.47498466368736   -2.77844353210782
C        -1.13450743830531   -3.11992777713377   -2.53187793119671
O        -2.72169440781729   -0.47031925943674   -1.74750729273738
C         0.58284965863077   -1.17446335151432   -0.46913129743504
C         1.31788458816105   -1.99275413618740   -1.56324268710829
O         1.66320978711913   -1.28116109989840   -2.63862070342204
O         1.56949470409237   -3.15375441414990   -1.44880371353026
N         1.42127177706412   -0.07595448909670   -0.02422591119967
C         2.46366117216512   -0.15142542718910    0.86844492645501
C         3.13998619751911   -1.48101918861899    0.94771919529772
C         3.88903468768732   -1.78412139942273   -0.18702377458706
C         4.62378984297557   -2.94835794426212   -0.27322865547183
C         4.60550126049360   -3.82436529292180    0.79382070126186
C         3.89024741141246   -3.51213383326485    1.93522747904589
C         3.15442988751254   -2.33638194701053    2.05650480274632
C         2.45963892447385   -1.98561381295731    3.36674880673269
C         1.02167864525817   -1.51568522003350    3.12255993337082
C         3.26906065853188   -0.87101494911567    4.04650797549037
C         2.38369115093049   -3.17830605026594    4.32875089631683
O         2.86971129904294    0.85482795141379    1.41121962649286
H         3.00870856324090    0.91675671790107   -1.79330886014074
H         4.33643324145503    2.67530247182057   -2.84469983305180
H         4.77855927914049    5.07103918100445   -3.23991509272520
H         4.18183056892760    7.43017461608978   -2.85972024479543
H         2.25427085782672    8.01117753741392   -1.44347158521369
H         0.90870825403954    6.23827290798652   -0.38623515802235
H         0.49157750149144    3.85531373356252    0.02298495887233
H         0.42953046777842    1.58108014492989    0.77677739857761
H        -0.17685699548023    1.14178225065655   -2.16090585332520
H        -1.71919504126793    2.73246823972588   -2.62694123320163
H        -3.33559916522681    4.48356062330318   -3.19139589119018
H        -5.25646451338448    5.88883718518851   -2.55828435055718
H        -6.25494933690797    5.69073598572925   -0.31682805455654
H        -5.33730523648216    4.09113333706770    1.31513530137664
H        -3.67149511042808    2.36388349163721    1.89605818152916
H        -1.75433948250736    0.97906832002890    1.27129882107540
H        -2.39144850014638   -1.03782127375885    0.84428872483256
H        -3.17979132994669   -1.61797662718193    2.29907635636153
H        -1.61303966651428   -2.28302898004675    1.83844028726398
H        -4.34548899661000   -1.60500924772487   -0.62565578312535
H        -5.07905752240847   -3.20509938605811   -0.53333457227503
H        -5.22537142772154   -2.08711579631217    0.82710915702042
H        -4.20369339054287   -3.69604178542812    2.46100655208106
H        -4.29663462354925   -4.86444214620609    1.15673771457919
H        -2.76836794481617   -4.61891343357699    2.02320211837993
H        -2.73537587776944   -5.57870954909560   -0.09642765569610
H        -1.54335358322572   -6.41615651397072   -2.02575131787979
H        -0.55229367463424   -4.83577844771933   -3.66374217926579
H        -0.71923597742041   -2.42302604747203   -3.24667113180114
H         0.34746585182333   -1.87531651069289    0.34608639217243
H         1.41803087350291   -0.34557894673347   -2.55923404490862
H         3.91167731159363   -1.08225220619019   -1.00844052764990
H         5.19421913666206   -3.16600762752463   -1.16238083093306
H         5.15983238067477   -4.74980336933749    0.74806073235055
H         3.92078291343600   -4.21310579156197    2.75195858705692
H         0.99062030124043   -0.59455637734717    2.54969975027722
H         0.52618587132302   -1.32732613111619    4.07293976691633
H         0.46536144433205   -2.28967225212762    2.59576332074230
H         3.30716720780573    0.01869546035414    3.42553687387684
H         4.28846985602217   -1.20625875429380    4.22584216845222
H         2.81699524463741   -0.61135021537787    5.00153723643172
H         1.88358316552961   -4.02609581978685    3.86505412040721
H         3.37135380903011   -3.48348145450281    4.66406038758570
H         1.81466234310121   -2.89007712869907    5.21038620412777
