      -----------------------------------------------------------      
     |                   =====================                   |     
     |                           x T B                           |     
     |                   =====================                   |     
     |                         S. Grimme                         |     
     |          Mulliken Center for Theoretical Chemistry        |     
     |                    University of Bonn                     |     
      -----------------------------------------------------------      

   * xtb version 6.3.3 (4ae9cef) compiled by 'conda@95abc7406d43' on 2020-10-14

   xtb is free software: you can redistribute it and/or modify it under
   the terms of the GNU Lesser General Public License as published by
   the Free Software Foundation, either version 3 of the License, or
   (at your option) any later version.
   
   xtb is distributed in the hope that it will be useful,
   but WITHOUT ANY WARRANTY; without even the implied warranty of
   MERCHANTABILITY or FITNESS FOR A PARTICULAR PURPOSE.  See the
   GNU Lesser General Public License for more details.
   
   Cite this work as:
   * C. Bannwarth, E. Caldeweyher, S. Ehlert, A. Hansen, P. Pracht,
     J. Seibert, S. Spicher, S. Grimme, WIREs Comput. Mol. Sci., 2020,
     e01493. DOI: 10.1002/wcms.1493
   
   for GFN2-xTB:
   * S. Grimme, C. Bannwarth, P. Shushkov, J. Chem. Theory Comput., 2017,
     13, 1989-2009. DOI: 10.1021/acs.jctc.7b00118
   for GFN1-xTB:
   * C. Bannwarth, S. Ehlert and S. Grimme., J. Chem. Theory Comput., 2019,
     15, 1652-1671. DOI: 10.1021/acs.jctc.8b01176
   for GFN0-xTB:
   * P. Pracht, E. Caldeweyher, S. Ehlert, S. Grimme, ChemRxiv, 2019, preprint.
     DOI: 10.26434/chemrxiv.8326202.v1
   for GFN-FF:
   * S. Spicher and S. Grimme, Angew. Chem. Int. Ed., 2020, 59, 15665-15673.
     DOI: 10.1002/anie.202004239
   
   for DFT-D4:
   * E. Caldeweyher, C. Bannwarth and S. Grimme, J. Chem. Phys., 2017,
     147, 034112. DOI: 10.1063/1.4993215
   * E. Caldeweyher, S. Ehlert, A. Hansen, H. Neugebauer, S. Spicher,
     C. Bannwarth and S. Grimme, J. Chem. Phys., 2019, 150, 154122.
     DOI: 10.1063/1.5090222
   * E. Caldeweyher, J.-M. Mewes, S. Ehlert and S. Grimme, Phys. Chem. Chem. Phys.
     2020, 22, 8499-8512. DOI: 10.1039/D0CP00502A
   
   for sTDA-xTB:
   * S. Grimme and C. Bannwarth, J. Chem. Phys., 2016, 145, 054103.
     DOI: 10.1063/1.4959605
   
   in the mass-spec context:
   * V. Asgeirsson, C. Bauer and S. Grimme, Chem. Sci., 2017, 8, 4879.
     DOI: 10.1039/c7sc00601b
   * J. Koopman and S. Grimme, ACS Omega 2019, 4, 12, 15120-15133.
     DOI: 10.1021/acsomega.9b02011
   
   for metadynamics refer to:
   * S. Grimme, J. Chem. Theory Comput., 2019, 155, 2847-2862
     DOI: 10.1021/acs.jctc.9b00143
   
   with help from (in alphabetical order)
   C. Bannwarth, F. Bohle, G. Brandenburg, E. Caldeweyher, M. Checinski,
   S. Dohm, S. Ehlert, S. Ehrlich, F. März, H. Neugebauer, J. Pisarek,
   P. Pracht, P. Shushkov, and S. Spicher.
   
 * started run on 2022/03/17 at 02:19:58.942     

           -------------------------------------------------
          |                Calculation Setup                |
           -------------------------------------------------

          program call               : xtb sub_1.xyz --opt --chrg 0 --uhf 0 --gfn 2
          coordinate file            : sub_1.xyz
          omp threads                :                    64
          number of atoms            :                    28
          number of electrons        :                    84
          charge                     :                     0
          spin                       :                   0.0
          first test random number   :      0.24932600502170

   ID    Z sym.   atoms
    1    9 F      1
    2    6 C      2-9, 11, 13-17
    3    7 N      10, 12
    4    1 H      18-28

           -------------------------------------------------
          |                 G F N 2 - x T B                 |
           -------------------------------------------------

        Reference                      10.1021/acs.jctc.8b01176
      * Hamiltonian:
        H0-scaling (s, p, d)           1.850000    2.230000    2.230000
        zeta-weighting                 0.500000
      * Dispersion:
        s8                             2.700000
        a1                             0.520000
        a2                             5.000000
        s9                             5.000000
      * Repulsion:
        kExp                           1.500000    1.000000
        rExp                           1.000000
      * Coulomb:
        alpha                          2.000000
        third order                    shell-resolved
        anisotropic                    true
        a3                             3.000000
        a5                             4.000000
        cn-shift                       1.200000
        cn-exp                         4.000000
        max-rad                        5.000000


          ...................................................
          :                      SETUP                      :
          :.................................................:
          :  # basis functions                  79          :
          :  # atomic orbitals                  79          :
          :  # shells                           45          :
          :  # electrons                        84          :
          :  max. iterations                   250          :
          :  Hamiltonian                  GFN2-xTB          :
          :  restarted?                      false          :
          :  GBSA solvation                  false          :
          :  PC potential                    false          :
          :  electronic temp.          300.0000000     K    :
          :  accuracy                    1.0000000          :
          :  -> integral cutoff          0.2500000E+02      :
          :  -> integral neglect         0.1000000E-07      :
          :  -> SCF convergence          0.1000000E-05 Eh   :
          :  -> wf. convergence          0.1000000E-03 e    :
          :  Broyden damping             0.4000000          :
          ...................................................

 iter      E             dE          RMSdq      gap      omega  full diag
   1    -46.8105234 -0.468105E+02  0.411E+00    3.00       0.0  T
   2    -46.8605342 -0.500108E-01  0.266E+00    2.83       1.0  T
   3    -46.8568391  0.369512E-02  0.129E+00    2.90       1.0  T
   4    -46.8706763 -0.138372E-01  0.353E-01    2.80       1.0  T
   5    -46.8727643 -0.208795E-02  0.106E-01    2.83       1.0  T
   6    -46.8728718 -0.107475E-03  0.494E-02    2.82       1.0  T
   7    -46.8729065 -0.347246E-04  0.218E-02    2.83       1.0  T
   8    -46.8729075 -0.998332E-06  0.112E-02    2.83       1.7  T
   9    -46.8729094 -0.195525E-05  0.330E-03    2.83       5.7  T
  10    -46.8729095 -0.780321E-07  0.143E-03    2.83      13.2  T
  11    -46.8729096 -0.424630E-07  0.501E-04    2.83      37.7  T
  12    -46.8729096 -0.157912E-08  0.258E-04    2.83      73.3  T

   *** convergence criteria satisfied after 12 iterations ***

         #    Occupation            Energy/Eh            Energy/eV
      -------------------------------------------------------------
         1        2.0000           -0.8077498             -21.9800
       ...           ...                  ...                  ...
        36        2.0000           -0.4371208             -11.8947
        37        2.0000           -0.4348596             -11.8331
        38        2.0000           -0.4310163             -11.7286
        39        2.0000           -0.4111821             -11.1888
        40        2.0000           -0.3927613             -10.6876
        41        2.0000           -0.3830161             -10.4224
        42        2.0000           -0.3687697             -10.0347 (HOMO)
        43                         -0.2648793              -7.2077 (LUMO)
        44                         -0.2508247              -6.8253
        45                         -0.2391527              -6.5077
        46                         -0.2056873              -5.5970
        47                         -0.1687435              -4.5917
       ...                                ...                  ...
        79                          0.6975483              18.9813
      -------------------------------------------------------------
                  HL-Gap            0.1038904 Eh            2.8270 eV
             Fermi-level           -0.3168245 Eh           -8.6212 eV

 SCC (total)                   0 d,  0 h,  0 min,  0.230 sec
 SCC setup                      ...        0 min,  0.011 sec (  4.728%)
 Dispersion                     ...        0 min,  0.014 sec (  6.133%)
 classical contributions        ...        0 min,  0.010 sec (  4.325%)
 integral evaluation            ...        0 min,  0.033 sec ( 14.385%)
 iterations                     ...        0 min,  0.033 sec ( 14.548%)
 molecular gradient             ...        0 min,  0.128 sec ( 55.744%)
 printout                       ...        0 min,  0.000 sec (  0.108%)

         :::::::::::::::::::::::::::::::::::::::::::::::::::::
         ::                     SUMMARY                     ::
         :::::::::::::::::::::::::::::::::::::::::::::::::::::
         :: total energy             -46.177320105863 Eh    ::
         :: gradient norm              0.075098758200 Eh/a0 ::
         :: HOMO-LUMO gap              2.827002307475 eV    ::
         ::.................................................::
         :: SCC energy               -46.872909552917 Eh    ::
         :: -> isotropic ES            0.022901602300 Eh    ::
         :: -> anisotropic ES          0.003139445912 Eh    ::
         :: -> anisotropic XC          0.023780467479 Eh    ::
         :: -> dispersion             -0.029400291692 Eh    ::
         :: repulsion energy           0.695719284305 Eh    ::
         :: add. restraining           0.000000000000 Eh    ::
         :: total charge              -0.000000000000 e     ::
         :::::::::::::::::::::::::::::::::::::::::::::::::::::

      ----------------------------------------------------------- 
     |                   =====================                   |
     |                        A N C O P T                        |
     |                   =====================                   |
     |               Approximate Normal Coordinate               |
     |                Rational Function Optimizer                |
      ----------------------------------------------------------- 

          ...................................................
          :                      SETUP                      :
          :.................................................:
          :   optimization level            normal          :
          :   max. optcycles                   200          :
          :   ANC micro-cycles                  20          :
          :   degrees of freedom                78          :
          :.................................................:
          :   RF solver                   davidson          :
          :   write xtbopt.log                true          :
          :   linear?                        false          :
          :   energy convergence         0.5000000E-05 Eh   :
          :   grad. convergence          0.1000000E-02 Eh/α :
          :   maximium RF displ.         1.0000000          :
          :   Hlow (freq-cutoff)         0.1000000E-01      :
          :   Hmax (freq-cutoff)         5.0000000          :
          :   S6 in model hess.         20.0000000          :
          ...................................................

generating ANC from model Hessian ...
Using Lindh-Hessian (1995)
 Shifting diagonal of input Hessian by    9.0701316734245040E-003
 Lowest  eigenvalues of input Hessian
    0.000000    0.000000    0.000000    0.000000    0.000000    0.000000
    0.010000    0.010695    0.011086    0.013368    0.017569    0.018294
    0.019367    0.023799    0.024340    0.026672    0.030224    0.030797
 Highest eigenvalues
    1.911151    1.953453    2.018015    2.068958    2.090043    2.120407


........................................................................
.............................. CYCLE    1 ..............................
........................................................................
   1    -46.8729096 -0.468729E+02  0.771E-05    2.83       0.0  T
   2    -46.8729096 -0.484874E-10  0.447E-05    2.83     422.6  T
   3    -46.8729096 -0.178204E-10  0.284E-05    2.83     665.6  T
     SCC iter.                  ...        0 min,  0.008 sec
     gradient                   ...        0 min,  0.153 sec
 * total energy  :   -46.1773201 Eh     change       -0.3382823E-09 Eh
   gradient norm :     0.0750978 Eh/α   predicted     0.0000000E+00 (-100.00%)
   displ. norm   :     0.3039430 α      lambda       -0.9643478E-02
   maximum displ.:     0.1236245 α      in ANC's #9, #11, #18, ...

........................................................................
.............................. CYCLE    2 ..............................
........................................................................
   1    -46.9110932 -0.469111E+02  0.180E-01    2.98       0.0  T
   2    -46.9111837 -0.905445E-04  0.128E-01    2.99       1.0  T
   3    -46.9111935 -0.983155E-05  0.656E-02    2.99       1.0  T
   4    -46.9112536 -0.600161E-04  0.164E-02    2.99       1.2  T
   5    -46.9112585 -0.496355E-05  0.537E-03    2.99       3.5  T
   6    -46.9112588 -0.324330E-06  0.251E-03    2.99       7.5  T
   7    -46.9112589 -0.497059E-07  0.864E-04    2.99      21.9  T
   8    -46.9112589 -0.597783E-08  0.253E-04    2.99      74.6  T
     SCC iter.                  ...        0 min,  0.016 sec
     gradient                   ...        0 min,  0.126 sec
 * total energy  :   -46.1838661 Eh     change       -0.6546028E-02 Eh
   gradient norm :     0.0301229 Eh/α   predicted    -0.5267197E-02 ( -19.54%)
   displ. norm   :     0.2497724 α      lambda       -0.2511261E-02
   maximum displ.:     0.1209501 α      in ANC's #9, #13, #11, ...

........................................................................
.............................. CYCLE    3 ..............................
........................................................................
   1    -46.9299564 -0.469300E+02  0.111E-01    3.07       0.0  T
   2    -46.9300107 -0.542952E-04  0.835E-02    3.08       1.0  T
   3    -46.9300359 -0.252259E-04  0.428E-02    3.08       1.0  T
   4    -46.9300485 -0.126376E-04  0.129E-02    3.08       1.5  T
   5    -46.9300512 -0.268460E-05  0.398E-03    3.08       4.7  T
   6    -46.9300514 -0.207342E-06  0.175E-03    3.08      10.8  T
   7    -46.9300515 -0.222586E-07  0.582E-04    3.08      32.5  T
   8    -46.9300515 -0.252355E-08  0.185E-04    3.08     102.2  T
     SCC iter.                  ...        0 min,  0.015 sec
     gradient                   ...        0 min,  0.142 sec
 * total energy  :   -46.1852388 Eh     change       -0.1372670E-02 Eh
   gradient norm :     0.0063529 Eh/α   predicted    -0.1333968E-02 (  -2.82%)
   displ. norm   :     0.1153875 α      lambda       -0.2313006E-03
   maximum displ.:     0.0718344 α      in ANC's #3, #6, #1, ...

........................................................................
.............................. CYCLE    4 ..............................
........................................................................
   1    -46.9297819 -0.469298E+02  0.496E-02    3.08       0.0  T
   2    -46.9297842 -0.224646E-05  0.300E-02    3.08       1.0  T
   3    -46.9297811  0.306412E-05  0.107E-02    3.08       1.8  T
   4    -46.9297846 -0.346891E-05  0.301E-03    3.08       6.3  T
   5    -46.9297848 -0.228843E-06  0.763E-04    3.08      24.8  T
   6    -46.9297848 -0.332691E-08  0.384E-04    3.08      49.2  T
     SCC iter.                  ...        0 min,  0.012 sec
     gradient                   ...        0 min,  0.031 sec
 * total energy  :   -46.1854110 Eh     change       -0.1721982E-03 Eh
   gradient norm :     0.0035872 Eh/α   predicted    -0.1172056E-03 ( -31.94%)
   displ. norm   :     0.1790017 α      lambda       -0.2014102E-03
   maximum displ.:     0.1203019 α      in ANC's #3, #1, #2, ...

........................................................................
.............................. CYCLE    5 ..............................
........................................................................
   1    -46.9284003 -0.469284E+02  0.711E-02    3.08       0.0  T
   2    -46.9284022 -0.197948E-05  0.419E-02    3.08       1.0  T
   3    -46.9283997  0.256505E-05  0.110E-02    3.08       1.7  T
   4    -46.9284029 -0.317075E-05  0.224E-03    3.08       8.4  T
   5    -46.9284029 -0.684527E-07  0.101E-03    3.08      18.7  T
   6    -46.9284029 -0.480324E-08  0.482E-04    3.08      39.2  T
   7    -46.9284029 -0.384087E-08  0.127E-04    3.08     148.6  T
     SCC iter.                  ...        0 min,  0.017 sec
     gradient                   ...        0 min,  0.128 sec
 * total energy  :   -46.1855490 Eh     change       -0.1380351E-03 Eh
   gradient norm :     0.0038662 Eh/α   predicted    -0.1039324E-03 ( -24.71%)
   displ. norm   :     0.1505261 α      lambda       -0.1015578E-03
   maximum displ.:     0.0976138 α      in ANC's #3, #1, #2, ...

........................................................................
.............................. CYCLE    6 ..............................
........................................................................
   1    -46.9278826 -0.469279E+02  0.590E-02    3.07       0.0  T
   2    -46.9278835 -0.813285E-06  0.344E-02    3.07       1.0  T
   3    -46.9278822  0.124100E-05  0.774E-03    3.07       2.4  T
   4    -46.9278838 -0.158542E-05  0.133E-03    3.07      14.3  T
   5    -46.9278838 -0.817327E-08  0.592E-04    3.07      31.9  T
   6    -46.9278838 -0.251059E-08  0.241E-04    3.07      78.3  T
     SCC iter.                  ...        0 min,  0.016 sec
     gradient                   ...        0 min,  0.122 sec
 * total energy  :   -46.1856321 Eh     change       -0.8301568E-04 Eh
   gradient norm :     0.0040871 Eh/α   predicted    -0.5193276E-04 ( -37.44%)
   displ. norm   :     0.2103505 α      lambda       -0.1298457E-03
   maximum displ.:     0.1283519 α      in ANC's #3, #1, #2, ...

........................................................................
.............................. CYCLE    7 ..............................
........................................................................
   1    -46.9278469 -0.469278E+02  0.829E-02    3.07       0.0  T
   2    -46.9278488 -0.189575E-05  0.482E-02    3.07       1.0  T
   3    -46.9278472  0.163901E-05  0.910E-03    3.06       2.1  T
   4    -46.9278493 -0.214582E-05  0.216E-03    3.06       8.8  T
   5    -46.9278494 -0.635898E-07  0.892E-04    3.06      21.2  T
   6    -46.9278494 -0.297356E-08  0.467E-04    3.06      40.4  T
     SCC iter.                  ...        0 min,  0.014 sec
     gradient                   ...        0 min,  0.122 sec
 * total energy  :   -46.1857346 Eh     change       -0.1025482E-03 Eh
   gradient norm :     0.0032559 Eh/α   predicted    -0.6780355E-04 ( -33.88%)
   displ. norm   :     0.2529080 α      lambda       -0.1166317E-03
   maximum displ.:     0.1460615 α      in ANC's #3, #1, #2, ...

........................................................................
.............................. CYCLE    8 ..............................
........................................................................
   1    -46.9280434 -0.469280E+02  0.101E-01    3.07       0.0  T
   2    -46.9280459 -0.249415E-05  0.588E-02    3.06       1.0  T
   3    -46.9280451  0.734107E-06  0.760E-03    3.06       2.5  T
   4    -46.9280464 -0.125910E-05  0.252E-03    3.06       7.5  T
   5    -46.9280465 -0.928312E-07  0.972E-04    3.06      19.4  T
   6    -46.9280465 -0.185888E-08  0.456E-04    3.06      41.5  T
     SCC iter.                  ...        0 min,  0.020 sec
     gradient                   ...        0 min,  0.133 sec
 * total energy  :   -46.1858166 Eh     change       -0.8197732E-04 Eh
   gradient norm :     0.0024848 Eh/α   predicted    -0.6206025E-04 ( -24.30%)
   displ. norm   :     0.1537399 α      lambda       -0.5018729E-04
   maximum displ.:     0.0990022 α      in ANC's #1, #3, #2, ...

........................................................................
.............................. CYCLE    9 ..............................
........................................................................
   1    -46.9287536 -0.469288E+02  0.623E-02    3.06       0.0  T
   2    -46.9287543 -0.738681E-06  0.362E-02    3.06       1.0  T
   3    -46.9287543  0.345354E-07  0.339E-03    3.06       5.6  T
   4    -46.9287545 -0.211563E-06  0.132E-03    3.06      14.3  T
   5    -46.9287545 -0.205094E-07  0.590E-04    3.06      32.0  T
   6    -46.9287545 -0.212775E-08  0.255E-04    3.06      74.0  T
     SCC iter.                  ...        0 min,  0.015 sec
     gradient                   ...        0 min,  0.125 sec
 * total energy  :   -46.1858536 Eh     change       -0.3701582E-04 Eh
   gradient norm :     0.0016594 Eh/α   predicted    -0.2568816E-04 ( -30.60%)
   displ. norm   :     0.1385817 α      lambda       -0.2747006E-04
   maximum displ.:     0.1049566 α      in ANC's #1, #2, #3, ...

........................................................................
.............................. CYCLE   10 ..............................
........................................................................
   1    -46.9297775 -0.469298E+02  0.566E-02    3.06       0.0  T
   2    -46.9297781 -0.515383E-06  0.330E-02    3.06       1.0  T
   3    -46.9297774  0.629014E-06  0.520E-03    3.06       3.6  T
   4    -46.9297783 -0.831232E-06  0.119E-03    3.06      15.8  T
   5    -46.9297783 -0.120430E-07  0.646E-04    3.06      29.3  T
   6    -46.9297783 -0.429042E-08  0.192E-04    3.06      98.6  T
     SCC iter.                  ...        0 min,  0.010 sec
     gradient                   ...        0 min,  0.148 sec
 * total energy  :   -46.1858807 Eh     change       -0.2706525E-04 Eh
   gradient norm :     0.0011317 Eh/α   predicted    -0.1385775E-04 ( -48.80%)
   displ. norm   :     0.0628290 α      lambda       -0.1114346E-04
   maximum displ.:     0.0536592 α      in ANC's #1, #2, #5, ...

........................................................................
.............................. CYCLE   11 ..............................
........................................................................
   1    -46.9295581 -0.469296E+02  0.210E-02    3.06       0.0  T
   2    -46.9295582 -0.666272E-07  0.123E-02    3.06       1.5  T
   3    -46.9295580  0.160094E-06  0.236E-03    3.06       8.0  T
   4    -46.9295582 -0.193281E-06  0.444E-04    3.06      42.6  T
   5    -46.9295582 -0.189659E-08  0.234E-04    3.06      80.8  T
     SCC iter.                  ...        0 min,  0.010 sec
     gradient                   ...        0 min,  0.142 sec
 * total energy  :   -46.1858949 Eh     change       -0.1424393E-04 Eh
   gradient norm :     0.0007996 Eh/α   predicted    -0.5585838E-05 ( -60.78%)
   displ. norm   :     0.0655541 α      lambda       -0.1196476E-04
   maximum displ.:     0.0488884 α      in ANC's #1, #3, #5, ...

........................................................................
.............................. CYCLE   12 ..............................
........................................................................
   1    -46.9295063 -0.469295E+02  0.160E-02    3.06       0.0  T
   2    -46.9295064 -0.346683E-07  0.943E-03    3.06       2.0  T
   3    -46.9295063  0.126003E-06  0.197E-03    3.06       9.6  T
   4    -46.9295064 -0.145748E-06  0.344E-04    3.06      55.0  T
   5    -46.9295064 -0.140161E-08  0.185E-04    3.06     102.4  T
     SCC iter.                  ...        0 min,  0.018 sec
     gradient                   ...        0 min,  0.132 sec
 * total energy  :   -46.1859100 Eh     change       -0.1506237E-04 Eh
   gradient norm :     0.0008322 Eh/α   predicted    -0.5994362E-05 ( -60.20%)
   displ. norm   :     0.0802037 α      lambda       -0.1262719E-04
   maximum displ.:     0.0602350 α      in ANC's #1, #3, #2, ...

........................................................................
.............................. CYCLE   13 ..............................
........................................................................
   1    -46.9291953 -0.469292E+02  0.185E-02    3.06       0.0  T
   2    -46.9291953 -0.355300E-07  0.108E-02    3.06       1.7  T
   3    -46.9291952  0.783888E-07  0.188E-03    3.06      10.1  T
   4    -46.9291953 -0.987492E-07  0.320E-04    3.06      59.0  T
   5    -46.9291953 -0.159055E-09  0.163E-04    3.06     115.8  T
     SCC iter.                  ...        0 min,  0.015 sec
     gradient                   ...        0 min,  0.135 sec
 * total energy  :   -46.1859253 Eh     change       -0.1533542E-04 Eh
   gradient norm :     0.0009882 Eh/α   predicted    -0.6332699E-05 ( -58.71%)
   displ. norm   :     0.0911213 α      lambda       -0.1166483E-04
   maximum displ.:     0.0691786 α      in ANC's #1, #3, #2, ...

........................................................................
.............................. CYCLE   14 ..............................
........................................................................
   1    -46.9290352 -0.469290E+02  0.198E-02    3.06       0.0  T
   2    -46.9290352 -0.381404E-07  0.117E-02    3.06       1.6  T
   3    -46.9290352  0.264444E-07  0.127E-03    3.06      14.9  T
   4    -46.9290352 -0.408545E-07  0.396E-04    3.06      47.7  T
   5    -46.9290352 -0.115576E-08  0.191E-04    3.06      99.1  T
     SCC iter.                  ...        0 min,  0.012 sec
     gradient                   ...        0 min,  0.127 sec
 * total energy  :   -46.1859395 Eh     change       -0.1423458E-04 Eh
   gradient norm :     0.0007474 Eh/α   predicted    -0.5858854E-05 ( -58.84%)
   displ. norm   :     0.1033085 α      lambda       -0.1031769E-04
   maximum displ.:     0.0798283 α      in ANC's #1, #3, #6, ...

........................................................................
.............................. CYCLE   15 ..............................
........................................................................
   1    -46.9293424 -0.469293E+02  0.228E-02    3.06       0.0  T
   2    -46.9293425 -0.752545E-07  0.134E-02    3.06       1.4  T
   3    -46.9293423  0.138733E-06  0.227E-03    3.06       8.3  T
   4    -46.9293425 -0.168135E-06  0.510E-04    3.06      37.1  T
   5    -46.9293425 -0.347942E-08  0.262E-04    3.06      72.1  T
     SCC iter.                  ...        0 min,  0.012 sec
     gradient                   ...        0 min,  0.127 sec
 * total energy  :   -46.1859514 Eh     change       -0.1182525E-04 Eh
   gradient norm :     0.0004769 Eh/α   predicted    -0.5184646E-05 ( -56.16%)
   displ. norm   :     0.0920098 α      lambda       -0.6093839E-05
   maximum displ.:     0.0730605 α      in ANC's #1, #3, #6, ...

........................................................................
.............................. CYCLE   16 ..............................
........................................................................
   1    -46.9292826 -0.469293E+02  0.226E-02    3.05       0.0  T
   2    -46.9292827 -0.869792E-07  0.132E-02    3.05       1.4  T
   3    -46.9292826  0.791140E-07  0.215E-03    3.05       8.8  T
   4    -46.9292827 -0.109010E-06  0.533E-04    3.05      35.5  T
   5    -46.9292827 -0.247439E-08  0.274E-04    3.05      68.8  T
     SCC iter.                  ...        0 min,  0.012 sec
     gradient                   ...        0 min,  0.138 sec
 * total energy  :   -46.1859580 Eh     change       -0.6662478E-05 Eh
   gradient norm :     0.0004531 Eh/α   predicted    -0.3061510E-05 ( -54.05%)
   displ. norm   :     0.0563307 α      lambda       -0.2663673E-05
   maximum displ.:     0.0459266 α      in ANC's #1, #6, #3, ...

........................................................................
.............................. CYCLE   17 ..............................
........................................................................
   1    -46.9293771 -0.469294E+02  0.152E-02    3.05       0.0  T
   2    -46.9293772 -0.465737E-07  0.891E-03    3.05       2.1  T
   3    -46.9293771  0.535145E-07  0.154E-03    3.05      12.2  T
   4    -46.9293772 -0.677344E-07  0.373E-04    3.05      50.7  T
   5    -46.9293772 -0.192200E-08  0.188E-04    3.05     100.7  T
     SCC iter.                  ...        0 min,  0.010 sec
     gradient                   ...        0 min,  0.101 sec
 * total energy  :   -46.1859611 Eh     change       -0.3052970E-05 Eh
   gradient norm :     0.0002835 Eh/α   predicted    -0.1335803E-05 ( -56.25%)
   displ. norm   :     0.0573768 α      lambda       -0.3853937E-06
   maximum displ.:     0.0472039 α      in ANC's #1, #6, #3, ...

   *** GEOMETRY OPTIMIZATION CONVERGED AFTER 17 ITERATIONS ***

------------------------------------------------------------------------
 total energy gain   :        -0.0086410 Eh       -5.4223 kcal/mol
 total RMSD          :         0.3118006 a0        0.1650 Å
 total power (kW/mol):        -1.3345216 (step)   -5.7466 (real)
------------------------------------------------------------------------

 ANCopt (total)                0 d,  0 h,  0 min,  3.948 sec
 optimizer setup                ...        0 min,  0.000 sec (  0.002%)
 model hessian                  ...        0 min,  0.004 sec (  0.092%)
 ANC generation                 ...        0 min,  0.001 sec (  0.033%)
 coordinate transformation      ...        0 min,  0.000 sec (  0.006%)
 single point calculation       ...        0 min,  3.733 sec ( 94.551%)
 optimization log               ...        0 min,  0.001 sec (  0.036%)
 hessian update                 ...        0 min,  0.206 sec (  5.223%)
 rational function              ...        0 min,  0.001 sec (  0.033%)

================
 final structure:
================
28
 xtb: 6.3.3 (4ae9cef)
F        -5.26031466108636    0.60095395654456   -0.52186174046235
C        -4.12464740051265    0.11558700713481    0.02649695814862
C        -4.19829856438720   -0.72311407417383    1.11358276900687
C        -3.02848604241547   -1.25220851579266    1.65902882678206
C        -1.78434225044896   -0.93422979071079    1.15525095626975
C        -1.71609500018386   -0.05245569671972    0.08163484925310
C        -2.89196096010898    0.46032146198344   -0.52172522937993
C        -2.48425892135312    1.24418432084704   -1.63883792255489
C        -1.13088686821311    1.18365509731308   -1.68360384001522
N        -0.64595474486434    0.42518882626633   -0.64121116886086
C         0.71482712711216    0.24811231246554   -0.40810051200898
N         1.48649671462091    0.26625631854850   -1.48858722893461
C         2.78862869291422    0.11752152942417   -1.34327964166311
C         3.41931517249670   -0.06223997378504   -0.11764329283505
C         4.90223816297285   -0.22057160267582   -0.01109428278101
C         2.60427965433221   -0.04816666480730    1.01165240381793
C         1.23937203695722    0.11514423647227    0.87866993729288
H        -5.16174336074735   -0.97914914809750    1.52453500492816
H        -3.10463150965045   -1.93216008480295    2.49349634278247
H        -0.89950093031648   -1.38633938083891    1.57360027469211
H        -3.13203023589501    1.77369162929590   -2.30760852165524
H        -0.43885462623642    1.63055024502284   -2.36922216411739
H         3.35911193307695    0.14221627542407   -2.26316872430185
H         5.36279341255045    0.73766995774352    0.23167667656307
H         5.15884767199232   -0.92464133131739    0.77765826444318
H         5.32198958020343   -0.57032115395014   -0.95089324182456
H         3.04238416821028   -0.15192596568849    1.99455154448523
H         0.60172374898000    0.17646820887447    1.74500270292951

 Bond Distances (Angstroems)
 ---------------------------
F1-C2=1.3513         C2-F1=1.3513         C2-C3=1.3750         C2-C7=1.3924         C3-C2=1.3750         C3-C4=1.3950         
C3-H18=1.0783        C4-C3=1.3950         C4-C5=1.3794         C4-H19=1.0791        C5-C4=1.3794         C5-C6=1.3910         
C5-H20=1.0781        C6-C5=1.3910         C6-C7=1.4176         C6-N10=1.3769        C7-C2=1.3924         C7-C6=1.4176         
C7-C8=1.4243         C8-C7=1.4243         C8-C9=1.3555         C8-H21=1.0711        C9-C8=1.3555         C9-N10=1.3773        
C9-H22=1.0718        N10-C6=1.3769        N10-C9=1.3773        N10-C11=1.3919       C11-N10=1.3919       C11-N12=1.3279       
C11-C17=1.3959       N12-C11=1.3279       N12-C13=1.3186       C13-N12=1.3186       C13-C14=1.3901       C13-H23=1.0827       
C14-C13=1.3901       C14-C15=1.4952       C14-C16=1.3928       C15-C14=1.4952       C15-H24=1.0905       C15-H25=1.0880       
C15-H26=1.0871       C16-C14=1.3928       C16-C17=1.3811       C16-H27=1.0811       C17-C11=1.3959       C17-C16=1.3811       
C17-H28=1.0774       H18-C3=1.0783        H19-C4=1.0791        H20-C5=1.0781        H21-C8=1.0711        H22-C9=1.0718        
H23-C13=1.0827       H24-C15=1.0905       H25-C15=1.0880       H26-C15=1.0871       H27-C16=1.0811       H28-C17=1.0774       
 C  H  Rav=1.0805 sigma=0.0060  Rmin=1.0711  Rmax=1.0905    11
 C  C  Rav=1.3989 sigma=0.0324  Rmin=1.3555  Rmax=1.4952    13
 N  C  Rav=1.3585 sigma=0.0295  Rmin=1.3186  Rmax=1.3919     5
 F  C  Rav=1.3513 sigma=0.0000  Rmin=1.3513  Rmax=1.3513     1

 selected bond angles (degree)
 --------------------
C3-C2-F1=119.66                C7-C2-F1=119.69                C7-C2-C3=120.64                C4-C3-C2=119.71                
H18-C3-C2=119.61               H18-C3-C4=120.68               C5-C4-C3=121.74                H19-C4-C3=118.83               
H19-C4-C5=119.43               C6-C5-C4=118.18                H20-C5-C4=120.12               H20-C5-C6=121.67               
C7-C6-C5=121.14                N10-C6-C5=131.55               N10-C6-C7=107.20               C6-C7-C2=118.50                
C8-C7-C2=134.30                C8-C7-C6=107.19                C9-C8-C7=106.69                H21-C8-C7=126.06               
H21-C8-C9=127.25               N10-C9-C8=110.56               H22-C9-C8=130.33               H22-C9-N10=119.11              
C9-N10-C6=108.34               C11-N10-C6=128.89              C11-N10-C9=122.75              

 selected dihedral angles (degree)
 ---------------------------------
C4-C3-C2-F1=178.35            C4-C3-C2-C7=358.91            H18-C3-C2-F1=359.45           H18-C3-C2-C7=180.01           
C5-C4-C3-C2=  1.46            C5-C4-C3-H18=180.34           H19-C4-C3-C2=181.81           H19-C4-C3-H18=  0.69          
C6-C5-C4-C3=  0.52            C6-C5-C4-H19=180.17           H20-C5-C4-C3=182.25           H20-C5-C4-H19=  1.89          
C7-C6-C5-C4=357.14            C7-C6-C5-H20=175.39           N10-C6-C5-C4=181.50           N10-C6-C5-H20=359.75          
C6-C7-C2-F1=179.38            C6-C7-C2-C3=358.83            C8-C7-C2-F1=358.06            C8-C7-C2-C3=177.50            
C2-C7-C6-C5=  3.20            C2-C7-C6-N10=179.79           C8-C7-C6-C5=184.19            C8-C7-C6-N10=  0.78           
C9-C8-C7-C2=181.44            C9-C8-C7-C6=  0.23            H21-C8-C7-C2=  1.38           H21-C8-C7-C6=180.17           
N10-C9-C8-C7=358.83           N10-C9-C8-H21=178.89          H22-C9-C8-C7=179.78           H22-C9-C8-H21=359.84          
C9-N10-C6-C5=174.61           C9-N10-C6-C7=358.52           C11-N10-C6-C5=353.08          C11-N10-C6-C7=176.99          
C6-N10-C9-C8=  1.69           C6-N10-C9-H22=180.86          C11-N10-C9-C8=183.11          C11-N10-C9-H22=  2.28         
           -------------------------------------------------
          |                Final Singlepoint                |
           -------------------------------------------------

          ...................................................
          :                      SETUP                      :
          :.................................................:
          :  # basis functions                  79          :
          :  # atomic orbitals                  79          :
          :  # shells                           45          :
          :  # electrons                        84          :
          :  max. iterations                   250          :
          :  Hamiltonian                  GFN2-xTB          :
          :  restarted?                      false          :
          :  GBSA solvation                  false          :
          :  PC potential                    false          :
          :  electronic temp.          300.0000000     K    :
          :  accuracy                    1.0000000          :
          :  -> integral cutoff          0.2500000E+02      :
          :  -> integral neglect         0.1000000E-07      :
          :  -> SCF convergence          0.1000000E-05 Eh   :
          :  -> wf. convergence          0.1000000E-03 e    :
          :  Broyden damping             0.4000000          :
          ...................................................

 iter      E             dE          RMSdq      gap      omega  full diag
   1    -46.9293772 -0.469294E+02  0.798E-05    3.05       0.0  T
   2    -46.9293772 -0.226521E-10  0.531E-05    3.05     355.7  T
   3    -46.9293772 -0.229079E-10  0.303E-05    3.05     624.0  T

   *** convergence criteria satisfied after 3 iterations ***

         #    Occupation            Energy/Eh            Energy/eV
      -------------------------------------------------------------
         1        2.0000           -0.8039820             -21.8775
       ...           ...                  ...                  ...
        36        2.0000           -0.4383670             -11.9286
        37        2.0000           -0.4348393             -11.8326
        38        2.0000           -0.4314985             -11.7417
        39        2.0000           -0.4131099             -11.2413
        40        2.0000           -0.3917005             -10.6587
        41        2.0000           -0.3818590             -10.3909
        42        2.0000           -0.3709332             -10.0936 (HOMO)
        43                         -0.2587590              -7.0412 (LUMO)
        44                         -0.2495351              -6.7902
        45                         -0.2350794              -6.3968
        46                         -0.2052700              -5.5857
        47                         -0.1639531              -4.4614
       ...                                ...                  ...
        79                          0.7248400              19.7239
      -------------------------------------------------------------
                  HL-Gap            0.1121743 Eh            3.0524 eV
             Fermi-level           -0.3148461 Eh           -8.5674 eV

 SCC (total)                   0 d,  0 h,  0 min,  0.224 sec
 SCC setup                      ...        0 min,  0.007 sec (  3.229%)
 Dispersion                     ...        0 min,  0.016 sec (  7.241%)
 classical contributions        ...        0 min,  0.016 sec (  7.170%)
 integral evaluation            ...        0 min,  0.040 sec ( 17.934%)
 iterations                     ...        0 min,  0.006 sec (  2.827%)
 molecular gradient             ...        0 min,  0.137 sec ( 61.470%)
 printout                       ...        0 min,  0.000 sec (  0.102%)

         :::::::::::::::::::::::::::::::::::::::::::::::::::::
         ::                     SUMMARY                     ::
         :::::::::::::::::::::::::::::::::::::::::::::::::::::
         :: total energy             -46.185961077274 Eh    ::
         :: gradient norm              0.000283297908 Eh/a0 ::
         :: HOMO-LUMO gap              3.052416896479 eV    ::
         ::.................................................::
         :: SCC energy               -46.929377206214 Eh    ::
         :: -> isotropic ES            0.023274007503 Eh    ::
         :: -> anisotropic ES          0.002829895255 Eh    ::
         :: -> anisotropic XC          0.022604572503 Eh    ::
         :: -> dispersion             -0.029804925534 Eh    ::
         :: repulsion energy           0.743525766282 Eh    ::
         :: add. restraining           0.000000000000 Eh    ::
         :: total charge              -0.000000000000 e     ::
         :::::::::::::::::::::::::::::::::::::::::::::::::::::

           -------------------------------------------------
          |                Property Printout                |
           -------------------------------------------------

    * Orbital Energies and Occupations

         #    Occupation            Energy/Eh            Energy/eV
      -------------------------------------------------------------
         1        2.0000           -0.8039820             -21.8775
       ...           ...                  ...                  ...
        30        2.0000           -0.4738938             -12.8953
        31        2.0000           -0.4672407             -12.7143
        32        2.0000           -0.4650461             -12.6545
        33        2.0000           -0.4599620             -12.5162
        34        2.0000           -0.4563290             -12.4173
        35        2.0000           -0.4432384             -12.0611
        36        2.0000           -0.4383670             -11.9286
        37        2.0000           -0.4348393             -11.8326
        38        2.0000           -0.4314985             -11.7417
        39        2.0000           -0.4131099             -11.2413
        40        2.0000           -0.3917005             -10.6587
        41        2.0000           -0.3818590             -10.3909
        42        2.0000           -0.3709332             -10.0936 (HOMO)
        43                         -0.2587590              -7.0412 (LUMO)
        44                         -0.2495351              -6.7902
        45                         -0.2350794              -6.3968
        46                         -0.2052700              -5.5857
        47                         -0.1639531              -4.4614
        48                         -0.1144617              -3.1147
        49                         -0.0808627              -2.2004
        50                          0.0128232               0.3489
        51                          0.0635694               1.7298
        52                          0.0906059               2.4655
        53                          0.1120973               3.0503
       ...                                ...                  ...
        79                          0.7248400              19.7239
      -------------------------------------------------------------
                  HL-Gap            0.1121743 Eh            3.0524 eV
             Fermi-level           -0.3148461 Eh           -8.5674 eV

     #   Z          covCN         q      C6AA      α(0)
     1   9 F        0.786    -0.228    11.532     4.011
     2   6 C        2.776     0.162    24.493     8.106
     3   6 C        2.916    -0.061    29.526     8.910
     4   6 C        2.926    -0.038    28.940     8.822
     5   6 C        2.908    -0.055    29.369     8.886
     6   6 C        3.079     0.037    27.080     8.532
     7   6 C        3.119    -0.022    28.384     8.726
     8   6 C        2.997    -0.060    29.468     8.905
     9   6 C        3.042     0.002    27.947     8.671
    10   7 N        2.836    -0.012    21.490     6.885
    11   6 C        2.904     0.142    24.907     8.183
    12   7 N        1.846    -0.242    27.179     7.726
    13   6 C        2.912     0.052    26.840     8.495
    14   6 C        2.961     0.003    27.957     8.673
    15   6 C        3.757    -0.111    22.672     6.789
    16   6 C        2.935    -0.022    28.557     8.764
    17   6 C        2.913    -0.058    29.445     8.898
    18   1 H        0.926     0.053     2.288     2.365
    19   1 H        0.926     0.040     2.444     2.445
    20   1 H        0.926     0.036     2.497     2.471
    21   1 H        0.926     0.048     2.350     2.397
    22   1 H        0.926     0.059     2.214     2.327
    23   1 H        0.925     0.043     2.414     2.430
    24   1 H        0.924     0.053     2.280     2.361
    25   1 H        0.925     0.049     2.331     2.387
    26   1 H        0.925     0.048     2.350     2.397
    27   1 H        0.926     0.039     2.459     2.452
    28   1 H        0.926     0.045     2.382     2.413

 Mol. C6AA /au·bohr⁶  :      10688.272241
 Mol. C8AA /au·bohr⁸  :     263288.073188
 Mol. α(0) /au        :        164.428422


Wiberg/Mayer (AO) data.
largest (>0.10) Wiberg bond orders for each atom

 ---------------------------------------------------------------------------
     #   Z sym  total        # sym  WBO       # sym  WBO       # sym  WBO
 ---------------------------------------------------------------------------
     1   9 F    1.087 --     2 C    0.955
     2   6 C    3.883 --     3 C    1.449     7 C    1.302     1 F    0.955
     3   6 C    3.981 --     2 C    1.449     4 C    1.378    18 H    0.968
     4   6 C    3.988 --     5 C    1.483     3 C    1.378    19 H    0.971
     5   6 C    3.986 --     4 C    1.483     6 C    1.347    20 H    0.964
     6   6 C    3.958 --     5 C    1.347     7 C    1.249    10 N    1.139
     7   6 C    3.980 --     2 C    1.302     6 C    1.249     8 C    1.210
     8   6 C    3.973 --     9 C    1.636     7 C    1.210    21 H    0.972
     9   6 C    3.951 --     8 C    1.636    10 N    1.156    22 H    0.966
    10   7 N    3.628 --     9 C    1.156     6 C    1.139    11 C    1.067
    11   6 C    3.969 --    12 N    1.377    17 C    1.347    10 N    1.067
    12   7 N    3.057 --    13 C    1.442    11 C    1.377
    13   6 C    3.980 --    12 N    1.442    14 C    1.397    23 H    0.961
                            17 C    0.109
    14   6 C    3.974 --    13 C    1.397    16 C    1.394    15 C    1.028
    15   6 C    3.995 --    14 C    1.028    26 H    0.983    25 H    0.979
                            24 H    0.966
    16   6 C    3.990 --    17 C    1.469    14 C    1.394    27 H    0.968
    17   6 C    3.987 --    16 C    1.469    11 C    1.347    28 H    0.964
                            13 C    0.109
    18   1 H    0.997 --     3 C    0.968
    19   1 H    0.998 --     4 C    0.971
    20   1 H    0.998 --     5 C    0.964
    21   1 H    0.997 --     8 C    0.972
    22   1 H    0.996 --     9 C    0.966
    23   1 H    0.998 --    13 C    0.961
    24   1 H    0.996 --    15 C    0.966
    25   1 H    0.997 --    15 C    0.979
    26   1 H    0.997 --    15 C    0.983
    27   1 H    0.998 --    16 C    0.968
    28   1 H    0.998 --    17 C    0.964
 ---------------------------------------------------------------------------

Topologies differ in total number of bonds
Writing topology from bond orders to xtbtopo.mol

molecular dipole:
                 x           y           z       tot (Debye)
 q only:        1.623      -0.178       0.494
   full:        1.915      -0.250       0.868       5.382
molecular quadrupole (traceless):
                xx          xy          yy          xz          yz          zz
 q only:       -6.066       3.141       2.155      -2.901      -1.775       3.912
  q+dip:       -3.902       3.865      -0.568      -3.643      -4.043       4.470
   full:       -5.774       4.118       2.846      -3.230      -1.763       2.928

           -------------------------------------------------
          |                Geometry Summary                 |
           -------------------------------------------------

      molecular mass/u    :      226.2494604
   center of mass at/Å    :       -0.6467147       0.0968260      -0.1540351
  moments of inertia/u·Å² :        0.3468968E+03   0.2064106E+04   0.2366386E+04
rotational constants/cm⁻¹ :        0.4859552E-01   0.8167040E-02   0.7123787E-02

 * 28 selected distances

     #   Z          #   Z                                           value/Å
     2   6 C        3   6 C                                       1.3749907
     3   6 C        4   6 C                                       1.3949601
     4   6 C        5   6 C                                       1.3794189
     5   6 C        6   6 C                                       1.3909834
     2   6 C        7   6 C                                       1.3924458
     6   6 C        7   6 C                                       1.4176193
     7   6 C        8   6 C                                       1.4242902 (max)
     8   6 C        9   6 C                                       1.3554644
     6   6 C       10   7 N                                       1.3768990
     9   6 C       10   7 N                                       1.3773209
    10   7 N       11   6 C                                       1.3919138
    11   6 C       12   7 N                                       1.3278760
    12   7 N       13   6 C                                       1.3186296
    13   6 C       14   6 C                                       1.3900590
    14   6 C       16   6 C                                       1.3927633
    11   6 C       17   6 C                                       1.3959248
    16   6 C       17   6 C                                       1.3810603
     3   6 C       18   1 H                                       1.0782679
     4   6 C       19   1 H                                       1.0791053
     5   6 C       20   1 H                                       1.0781296
     8   6 C       21   1 H                                       1.0710928 (min)
     9   6 C       22   1 H                                       1.0717725
    13   6 C       23   1 H                                       1.0827081
    15   6 C       24   1 H                                       1.0905392
    15   6 C       25   1 H                                       1.0879767
    15   6 C       26   1 H                                       1.0870778
    16   6 C       27   1 H                                       1.0811070
    17   6 C       28   1 H                                       1.0774453

 * 3 distinct bonds (by element types)

   Z      Z             #   av. dist./Å        max./Å        min./Å
   1 H    6 C          11     1.0804747     1.0905392     1.0710928
   6 C    6 C          12     1.3908317     1.4242902     1.3554644
   6 C    7 N           5     1.3585278     1.3919138     1.3186296


optimized geometry written to: xtbopt.xyz


           -------------------------------------------------
          | TOTAL ENERGY              -46.185961077274 Eh   |
          | GRADIENT NORM               0.000283297908 Eh/α |
          | HOMO-LUMO GAP               3.052416896479 eV   |
           -------------------------------------------------

------------------------------------------------------------------------
 * finished run on 2022/03/17 at 02:20:03.487     
------------------------------------------------------------------------
 total:
 * wall-time:     0 d,  0 h,  0 min,  4.544 sec
 *  cpu-time:     0 d,  0 h,  2 min, 24.357 sec
 * ratio c/w:    31.766 speedup
 SCF:
 * wall-time:     0 d,  0 h,  0 min,  0.230 sec
 *  cpu-time:     0 d,  0 h,  0 min,  6.740 sec
 * ratio c/w:    29.308 speedup
 ANC optimizer:
 * wall-time:     0 d,  0 h,  0 min,  4.176 sec
 *  cpu-time:     0 d,  0 h,  2 min, 13.633 sec
 * ratio c/w:    31.999 speedup

