28
 energy: -46.177320106201 gnorm: 0.075097759715 xtb: 6.3.3 (4ae9cef)
F        -5.27595000000000    0.73487900000000   -0.42522100000000
C        -4.15571800000000    0.20668800000000    0.08977500000000
C        -4.25099100000000   -0.61589900000000    1.20827100000000
C        -3.10853600000000   -1.20956100000000    1.72716700000000
C        -1.85066900000000   -0.96749700000000    1.15904400000000
C        -1.74731800000000   -0.08822800000000    0.05823000000000
C        -2.90834000000000    0.46404400000000   -0.51057300000000
C        -2.52303500000000    1.17699200000000   -1.67122600000000
C        -1.16321400000000    1.04835000000000   -1.79786700000000
N        -0.66055700000000    0.36770300000000   -0.69939000000000
C         0.74679000000000    0.21561000000000   -0.46847800000000
N         1.57060800000000    0.41319000000000   -1.53290700000000
C         2.90142200000000    0.27772500000000   -1.33811100000000
C         3.47995600000000   -0.03927300000000   -0.11813800000000
C         4.96393800000000   -0.13598700000000    0.03436200000000
C         2.62478900000000   -0.18858200000000    0.97153200000000
C         1.24483800000000   -0.05956200000000    0.79988100000000
H        -5.22498300000000   -0.80629300000000    1.64764500000000
H        -3.19132400000000   -1.88122700000000    2.57916700000000
H        -0.98918800000000   -1.48972800000000    1.56175700000000
H        -3.17833400000000    1.69985000000000   -2.35593900000000
H        -0.48918100000000    1.43490900000000   -2.55192000000000
H         3.50751300000000    0.44067300000000   -2.22571100000000
H         5.38175800000000    0.84620300000000    0.27581400000000
H         5.22934500000000   -0.83829500000000    0.83158100000000
H         5.42861200000000   -0.50100200000000   -0.88765000000000
H         3.02433600000000   -0.39042000000000    1.96271100000000
H         0.61343500000000   -0.11526400000000    1.67619400000000
28
 energy: -46.183866134192 gnorm: 0.030122936753 xtb: 6.3.3 (4ae9cef)
F        -5.25844415135436    0.73385208312349   -0.44109861081042
C        -4.13794029159248    0.20003982399844    0.07886848528134
C        -4.22946904238956   -0.60984131058014    1.19110145686366
C        -3.07978198860944   -1.19760501869405    1.70868672220158
C        -1.82914859353709   -0.95271610984861    1.16271664399655
C        -1.72897735018735   -0.08839121965853    0.07034480161341
C        -2.89696035809816    0.45644278065179   -0.51236623430333
C        -2.50290784740246    1.16993125130828   -1.67460987916892
C        -1.14951583438017    1.06264072771181   -1.76555711297092
N        -0.64978363320481    0.34086713038058   -0.69592277776427
C         0.73405815846509    0.19253017053890   -0.46104818423606
N         1.54001596022681    0.38394252047335   -1.51341254643671
C         2.85427149485769    0.27337177527954   -1.33108100596916
C         3.45629575365417   -0.03195583644952   -0.11749694664980
C         4.94407792767990   -0.13829808777695    0.02502928525191
C         2.60909048511825   -0.18312455299831    0.97450411518420
C         1.23764533779293   -0.06109926737932    0.81045525215276
H        -5.19873608556216   -0.79692226704435    1.63214469498446
H        -3.16425334349264   -1.86694681344475    2.55388896328717
H        -0.97247802646577   -1.47261877200654    1.56275940869075
H        -3.15174490639366    1.68645115089551   -2.35828274040605
H        -0.47579076630738    1.44981700909640   -2.50631620189464
H         3.44972818175277    0.44033620210926   -2.22104974340814
H         5.36830007321000    0.83732557585535    0.26515893771890
H         5.21178627629241   -0.82685551449012    0.82712031556748
H         5.40668834340950   -0.48990913817104   -0.89702627512636
H         3.01502796368895   -0.38739104453307    1.95661845262204
H         0.59894826282902   -0.12387524834739    1.67587072372856
28
 energy: -46.185238804400 gnorm: 0.006352942754 xtb: 6.3.3 (4ae9cef)
F        -5.24298711676004    0.72851883678271   -0.46177549320358
C        -4.12307609077408    0.19239719474475    0.06751556067907
C        -4.21433925999266   -0.61056253297344    1.17856010644556
C        -3.06021190609213   -1.19438854032732    1.69798429974695
C        -1.81431923943739   -0.95460621553219    1.15780476472461
C        -1.71716676261921   -0.09457288903543    0.07067625817919
C        -2.88705237354981    0.44988435356365   -0.51904636744337
C        -2.48095997859043    1.17334961455903   -1.67587267056004
C        -1.13308122066566    1.06499682173088   -1.74875587429809
N        -0.64287424911877    0.32817207043723   -0.68948752092732
C         0.72158663063519    0.19010743045176   -0.44507862376351
N         1.51587650596614    0.36291716986198   -1.49470303543919
C         2.81952714637062    0.25976561402435   -1.32955808120530
C         3.43755230010452   -0.03243907794328   -0.11848715393800
C         4.92521809101783   -0.13701125085912    0.01346035235929
C         2.59772033242583   -0.18155313750800    0.98051304890125
C         1.23048431153402   -0.05699095786262    0.82943821322148
H        -5.17960016942333   -0.79751996426135    1.62151918763724
H        -3.14704280947868   -1.85685931275545    2.54461292307815
H        -0.95569716458235   -1.45978005793796    1.56713307446253
H        -3.12438642842341    1.69687505626647   -2.35267966400887
H        -0.45059408625628    1.46130119809309   -2.47231047817523
H         3.40730637616337    0.42746881668651   -2.22335747248502
H         5.34957874782783    0.83900759102862    0.25045334247147
H         5.19166015720382   -0.82019830251755    0.81701353639625
H         5.37742045161209   -0.48339537040553   -0.91238639676916
H         3.01305454941058   -0.37815702852856    1.95810897012476
H         0.58640525549234   -0.11672912978321    1.68870519378887
28
 energy: -46.185411002609 gnorm: 0.003587227200 xtb: 6.3.3 (4ae9cef)
F        -5.24104730882376    0.72075901886354   -0.47453371981641
C        -4.12161302767596    0.18694730154600    0.06082513537113
C        -4.21434594505051   -0.61576800220701    1.17292612085733
C        -3.06032630193432   -1.19662722938040    1.69708872133976
C        -1.81357156777888   -0.95550885412710    1.15886776660439
C        -1.71760074600466   -0.09479900138739    0.07109914332626
C        -2.88572865073338    0.44911240344147   -0.52254728431008
C        -2.47352256181097    1.17921025986440   -1.67454548577044
C        -1.12508672880765    1.07221072346623   -1.74015061661053
N        -0.64268183365687    0.32708752066143   -0.68394014851537
C         0.71793232993082    0.18475262236685   -0.43738116081985
N         1.50979193272800    0.35009314847631   -1.49076920747653
C         2.81385302157651    0.25245468219089   -1.33119621094174
C         3.43405482914663   -0.03185598975806   -0.11929522166420
C         4.92068166440638   -0.13624438522443    0.00671734910859
C         2.59789924076119   -0.17467437721232    0.98442121345680
C         1.23008586296966   -0.05361137279098    0.83933121293386
H        -5.17890993232898   -0.80441447527799    1.61562553265968
H        -3.14894075829534   -1.85731396128174    2.54525953072202
H        -0.95355890326577   -1.45888913164496    1.56844910442500
H        -3.11531192151442    1.70597574779625   -2.35053408939691
H        -0.43506608687276    1.47457318598460   -2.45453181689176
H         3.39861351585646    0.40786395497713   -2.22936314054235
H         5.34428322962762    0.84124224738782    0.24008448071177
H         5.18953582886218   -0.81887744463841    0.80966761624622
H         5.36623653294740   -0.48329029404647   -0.92203829044044
H         3.01845322342421   -0.36769234207282    1.96103829429449
H         0.58589306231711   -0.10271795597280    1.69942517113930
28
 energy: -46.185549037726 gnorm: 0.003866245912 xtb: 6.3.3 (4ae9cef)
F        -5.24192114590658    0.70628219052481   -0.49218594480280
C        -4.12243805857271    0.17828259608883    0.05129348317460
C        -4.21685475381229   -0.62535362827944    1.16365101507438
C        -3.06339342556056   -1.20181490933402    1.69458380101839
C        -1.81513443177541   -0.95770599608221    1.15932780276587
C        -1.72061281068117   -0.09491029508424    0.07139289469744
C        -2.88585861900270    0.44883894852650   -0.52672170429763
C        -2.46597443365708    1.18978687895676   -1.67004870680052
C        -1.11670404259665    1.08457271097948   -1.72742008634116
N        -0.64342913510537    0.33145077392220   -0.67367911858626
C         0.71515009293872    0.18355161459831   -0.42541999653404
N         1.50325441666463    0.33032171083092   -1.48655062128416
C         2.80835695575735    0.23165630731250   -1.33481521828103
C         3.43117621042922   -0.03610558619363   -0.12068431435297
C         4.91743472328048   -0.13658795209699   -0.00286895989614
C         2.60059344423009   -0.16359608557412    0.98997400459986
C         1.23208013948319   -0.04204621707488    0.85309640639623
H        -5.18138949721456   -0.81869516779729    1.60402337801309
H        -3.15422126759709   -1.86019567510383    2.54492508225055
H        -0.95240638654445   -1.45691687130812    1.56956084252309
H        -3.10560344953499    1.72192944955916   -2.34457983220405
H        -0.41717759723185    1.49495065667551   -2.42915933287225
H         3.38921823609003    0.37444906571342   -2.23768685582801
H         5.33973684371843    0.84322924011878    0.22401679154645
H         5.19354177859103   -0.81702545543163    0.79942828926490
H         5.35543625682721   -0.48534952148401   -0.93475776029324
H         3.02869769915294   -0.34550420021322    1.96626918888869
H         0.58844425763003   -0.07749658274951    1.71503547216069
28
 energy: -46.185632053409 gnorm: 0.004087235379 xtb: 6.3.3 (4ae9cef)
F        -5.24468637279709    0.69379538839535   -0.50367997015937
C        -4.12458121476462    0.17125265440143    0.04446268412285
C        -4.21976693117602   -0.63454937212060    1.15520126367288
C        -3.06644354319636   -1.20685944748461    1.69117048762345
C        -1.81711414878232   -0.95814284779454    1.15992144678012
C        -1.72330531909234   -0.09356101312714    0.07286035086067
C        -2.88684336815014    0.44975160917165   -0.52809276386796
C        -2.46294627714222    1.19909615695898   -1.66430633357803
C        -1.11311471876349    1.09674690523036   -1.71651239110381
N        -0.64392772072988    0.33821048924157   -0.66499161540667
C         0.71483866440648    0.18348054541239   -0.41817955425970
N         1.49958781011415    0.31476569972706   -1.48451683778895
C         2.80531298134706    0.21375203382415   -1.33685284578702
C         3.43065975679784   -0.03964530837355   -0.12109523480686
C         4.91741839770164   -0.13853149153747   -0.00940449172805
C         2.60401539908842   -0.15256096014286    0.99408290166792
C         1.23506531061149   -0.03023621860139    0.86106515064497
H        -5.18510136632939   -0.83331897151925    1.59177603740632
H        -3.15865256365226   -1.86519068230332    2.54157292975075
H        -0.95214079504001   -1.45319989471971    1.57079704346563
H        -3.10123281237413    1.73430647856331   -2.33800131288068
H        -0.40916485813442    1.51177692705499   -2.41080060035074
H         3.38285350831246    0.34006555293948   -2.24443249113526
H         5.33929039432535    0.84248731827136    0.21312728750774
H         5.19967304586388   -0.81702362002175    0.79249942267967
H         5.35118160713573   -0.48861556372305   -0.94297392926631
H         3.03672902529281   -0.32330502710345    1.97065511242225
H         0.59239810912725   -0.05474934061933    1.72464825351411
28
 energy: -46.185734601595 gnorm: 0.003256119063 xtb: 6.3.3 (4ae9cef)
F        -5.24900403182019    0.67750511037671   -0.51634376598529
C        -4.12786881745079    0.16203855103228    0.03614071051600
C        -4.22380562129619   -0.64868732513947    1.14271003980111
C        -3.07017033686130   -1.21460020163543    1.68515100338515
C        -1.81943265352458   -0.95666643960450    1.16172713304717
C        -1.72602184055134   -0.08993032072222    0.07651611187974
C        -2.88823129237944    0.45187355858516   -0.52786184853145
C        -2.46140027012486    1.21126235389487   -1.65539709764861
C        -1.11093140096806    1.11431574086928   -1.70172860416255
N        -0.64413470066751    0.35061065110585   -0.65299715007391
C         0.71579255261960    0.18598130803842   -0.41051416588197
N         1.49548424064674    0.29358434649015   -1.48314596640874
C         2.80137783412288    0.18569078374063   -1.33968445310920
C         3.43111333237937   -0.04572178056723   -0.12173253066271
C         4.91897180992000   -0.14263123000507   -0.01702708778625
C         2.60927754733210   -0.13626884047805    0.99891330695532
C         1.23991698662721   -0.01165950834036    0.86897140881755
H        -5.19093610920976   -0.85632644012560    1.57196994712153
H        -3.16391449519677   -1.87476940730020    2.53387461233355
H        -0.95151927773341   -1.44452361431201    1.57507973267971
H        -3.09810040962634    1.74980490837604   -2.32801532737791
H        -0.40423380669134    1.53554176565972   -2.38859006425887
H         3.37476645676839    0.29060307058396   -2.25262012843376
H         5.34037064310629    0.83960756278515    0.20072415361740
H         5.20822144855610   -0.81832991235368    0.78485672410529
H         5.34878106723157   -0.49434213786106   -0.95191226978857
H         3.04644295671023   -0.29066888135709    1.97623497924424
H         0.59919018808124   -0.02329567173616    1.73470059660597
28
 energy: -46.185816578918 gnorm: 0.002485285447 xtb: 6.3.3 (4ae9cef)
F        -5.25288281343205    0.66046680158997   -0.52911313242763
C        -4.13099308532021    0.15168894091869    0.02715230134818
C        -4.22804561528916   -0.66714278994738    1.12709613532829
C        -3.07362572812703   -1.22478016167672    1.67690520580595
C        -1.82118593060853   -0.95312996343845    1.16510485256919
C        -1.72744344183405   -0.08361643115068    0.08278052155506
C        -2.88912961863933    0.45512946442243   -0.52559293428566
C        -2.46077982224725    1.22484728333803   -1.64453618394515
C        -1.10966231840071    1.13473444780601   -1.68476007881111
N        -0.64375803964894    0.36693943957673   -0.63891542933051
C         0.71717435604628    0.19072550857784   -0.40287771717332
N         1.49044486750476    0.26931968801702   -1.48201424782298
C         2.79606351474047    0.15302430486853   -1.34268267759235
C         3.43192566838077   -0.05251706872737   -0.12301504085439
C         4.92084948080017   -0.14893517512803   -0.02520243615028
C         2.61559606775357   -0.11626439756528    1.00355944047490
C         1.24588360673028    0.01197833687884    0.87663431764002
H        -5.19760556980719   -0.88660673565111    1.54571104098924
H        -3.16895022970727   -1.88919952675672    2.52191090018489
H        -0.95049906932479   -1.43133759444585    1.58392499923829
H        -3.09575369324710    1.76631454798369   -2.31623680022274
H        -0.40226636338501    1.56378013622228   -2.36545662843199
H         3.36465646006400    0.23009786436481   -2.26178321650247
H         5.34243881184201    0.83408119494700    0.18829829086186
H         5.21539453789984   -0.82185895435784    0.77706667867436
H         5.34685937743391   -0.50249533714623   -0.96106809909047
H         3.05677869832999   -0.25095424787558    1.98184566225186
H         0.60851789149237    0.01570842435546    1.74526427571885
28
 energy: -46.185853594742 gnorm: 0.001659762035 xtb: 6.3.3 (4ae9cef)
F        -5.25382148388493    0.65189024742557   -0.53500723618071
C        -4.13180724560365    0.14587712107842    0.02275042261154
C        -4.22930881358654   -0.67972471565154    1.11754004620809
C        -3.07402166171180   -1.23176429442412    1.67118307352664
C        -1.82076435570823   -0.94966192136149    1.16760716951123
C        -1.72679028348607   -0.07793134936288    0.08752583328070
C        -2.88907433550516    0.45781018444652   -0.52285402988250
C        -2.46136723955424    1.23228287629927   -1.63835148034305
C        -1.10986888426322    1.14649137474914   -1.67578200952296
N        -0.64325238789452    0.37809601014001   -0.63111141608010
C         0.71774610632030    0.19593770027651   -0.39905633656051
N         1.48713300378122    0.25628900275675   -1.48119890323437
C         2.79226465056062    0.13398560473272   -1.34408876739459
C         3.43204225152867   -0.05638998751420   -0.12422383743855
C         4.92115118943988   -0.15473187750578   -0.02916441341513
C         2.61895130849710   -0.10318663879696    1.00540659044822
C         1.24921048282472    0.02833101381786    0.88037059700218
H        -5.20007501585843   -0.90748318321360    1.52878407168823
H        -3.16962769075054   -1.90031937012476    2.51279117078077
H        -0.94900146170821   -1.42142514353256    1.59149411759710
H        -3.09581144564604    1.77411157031017   -2.30999601379145
H        -0.40398252042428    1.58017578248380   -2.35505497813557
H         3.35827151529347    0.19504257579631   -2.26557100128870
H         5.34412780475505    0.82802966322471    0.18268026141512
H         5.21600392726310   -0.82667491887277    0.77368770460170
H         5.34531070981223   -0.50987978838146   -0.96512439862334
H         3.06182567005074   -0.22705702639186    1.98392215041751
H         0.61453820545854    0.04187748759632    1.75084161280238
28
 energy: -46.185880659988 gnorm: 0.001131719580 xtb: 6.3.3 (4ae9cef)
F        -5.25331627394042    0.64610711213290   -0.53713558561778
C        -4.13125653316332    0.14124750420589    0.02082740862929
C        -4.22808319847922   -0.69221370504322    1.11002719715833
C        -3.07129332399169   -1.23873240828606    1.66551738635679
C        -1.81783735392457   -0.94508147332771    1.16956983064007
C        -1.72459031793594   -0.07037152144727    0.09213987109353
C        -2.88862868180290    0.46122725401235   -0.51897027512023
C        -2.46340595633970    1.23785970064270   -1.63396731521017
C        -1.11152366446389    1.15591295158694   -1.67075626424352
N        -0.64280948729931    0.38941104114383   -0.62613323919113
C         0.71772804181167    0.20378491982815   -0.39682971696243
N         1.48422750213181    0.24828893365582   -1.48051817414359
C         2.78888469893409    0.12076547863282   -1.34470532242832
C         3.43130249012399   -0.05867062666486   -0.12534380384168
C         4.91988792446659   -0.16307186474962   -0.03062651349012
C         2.62059382474508   -0.09062869575533    1.00618446771040
C         1.25114236471491    0.04542863360017    0.88281379126319
H        -5.19918464649777   -0.92889411199824    1.51453511301219
H        -3.16558584377421   -1.91289833418313    2.50279506547712
H        -0.94564723049708   -1.41112094248281    1.59880247236966
H        -3.09850041425283    1.77788532134283   -2.30622695993363
H        -0.40916198462053    1.59272604781814   -2.35200580893606
H         3.35310401020496    0.16692319638689   -2.26753067860679
H         5.34665931057757    0.81797090000240    0.18153972683994
H         5.21099481475007   -0.83595311827581    0.77271181447674
H         5.34291650624024   -0.52008949940148   -0.96624799609428
H         3.06429479624606   -0.20653925041142    1.98477856379307
H         0.61909062603612    0.06872455703522    1.75475494499926
28
 energy: -46.185894903917 gnorm: 0.000799630559 xtb: 6.3.3 (4ae9cef)
F        -5.25343008030921    0.64289794685754   -0.53621084721242
C        -4.13063062721339    0.13909778597653    0.02144596891443
C        -4.22565918434078   -0.69734292345961    1.10867554893910
C        -3.06748040490745   -1.24146306827489    1.66349242136739
C        -1.81452912075051   -0.94290236761319    1.16908775389701
C        -1.72338661472482   -0.06629068727323    0.09297174819841
C        -2.88874281312946    0.46299901787248   -0.51748767587586
C        -2.46508613021458    1.23975687157959   -1.63344584620747
C        -1.11297858327275    1.15942034382770   -1.67122451760179
N        -0.64299160057654    0.39446078253318   -0.62615917354708
C         0.71725412315273    0.20895765309664   -0.39658606563326
N         1.48356818628441    0.24785725325562   -1.48074726428884
C         2.78814943501415    0.11775949301216   -1.34527504258977
C         3.43007554622520   -0.05900790012472   -0.12526117012141
C         4.91807293337248   -0.16888544376332   -0.02950526984094
C         2.61959393179343   -0.08464338055287    1.00699793774812
C         1.25052864056436    0.05406429271505    0.88394377333932
H        -5.19611788013573   -0.93838412078381    1.51181720203577
H        -3.15981194037315   -1.91820669623679    2.49894522049903
H        -0.94164806638128   -1.40718750120023    1.59882218109126
H        -3.10143093853540    1.77810741770997   -2.30594154216908
H        -0.41219024096335    1.59647250473440   -2.35427819542885
H         3.35219966710031    0.15983467520192   -2.26824959913491
H         5.34853893114764    0.81032337986119    0.18383038020546
H         5.20558724582561   -0.84363847499106    0.77367434166063
H         5.34047963264866   -0.52699744212821   -0.96502417519118
H         3.06350382452216   -0.19907273767259    1.98583507572934
H         0.61856412817705    0.08201132584066    1.75585683121746
28
 energy: -46.185909966286 gnorm: 0.000832164230 xtb: 6.3.3 (4ae9cef)
F        -5.25401257238400    0.63919975564748   -0.53348046968808
C        -4.12972365701173    0.13729095936413    0.02334080394433
C        -4.22187464815840   -0.70064190126463    1.10966173170652
C        -3.06199916106150   -1.24299481836933    1.66265700460844
C        -1.81017082927411   -0.94126836785938    1.16733708430707
C        -1.72228428951510   -0.06296232571989    0.09219499211027
C        -2.88914511956072    0.46432507049115   -0.51675482702515
C        -2.46754556263117    1.24022532043451   -1.63442949783940
C        -1.11534513893169    1.16111245782060   -1.67434749507167
N        -0.64342493698659    0.39819574071826   -0.62863991990056
C         0.71669659462397    0.21427302051308   -0.39784817932146
N         1.48389642857554    0.25204088018088   -1.48109551545778
C         2.78838755616525    0.12025066146188   -1.34474084208092
C         3.42841466083677   -0.05858109296677   -0.12425988132078
C         4.91570136684969   -0.17588797296186   -0.02668873246493
C         2.61722207642340   -0.08039884000923    1.00749904905349
C         1.24878502149973    0.06158474211430    0.88371817421543
H        -5.19113500367233   -0.94513061520737    1.51340500956750
H        -3.15170160004513   -1.92151192009655    2.49700351148207
H        -0.93601962717642   -1.40460230640273    1.59551708636207
H        -3.10577925781271    1.77677141969842   -2.30672712875834
H        -0.41596314184184    1.59725294894603   -2.35957754904851
H         3.35292193751107    0.15941082779491   -2.26771777645842
H         5.35119666721283    0.80048194966395    0.18941810920752
H         5.19854962507016   -0.85411515938039    0.77536563907916
H         5.33750516657201   -0.53439351076936   -0.96238947911564
H         3.06097125783057   -0.19415431447649    1.98677497948410
H         0.61587818689227    0.09422539063447    1.75480411842355
28
 energy: -46.185925301707 gnorm: 0.000988285998 xtb: 6.3.3 (4ae9cef)
F        -5.25527611088217    0.63316973393612   -0.53028879531083
C        -4.12878467925487    0.13414166467542    0.02500163874193
C        -4.21723074256450   -0.70448122268841    1.11101212272062
C        -3.05532461578875   -1.24477643259728    1.66201405442838
C        -1.80494720882642   -0.93978866418700    1.16491718430769
C        -1.72125462615324   -0.06000892299778    0.09054598454370
C        -2.88981300198171    0.46482496016278   -0.51694510476089
C        -2.47070845347153    1.24068186785604   -1.63572116079606
C        -1.11834701428886    1.16390695482691   -1.67760783406313
N        -0.64402090849880    0.40265606292824   -0.63171325407306
C         0.71621062669502    0.22108779173469   -0.39966524246211
N         1.48466377839253    0.25594800832938   -1.48248875116952
C         2.78888244629373    0.12079736363650   -1.34472159132623
C         3.42652980109670   -0.05918731230033   -0.12288066426624
C         4.91302363302337   -0.18476106441898   -0.02332914472704
C         2.61425385173077   -0.07422630561446    1.00863514400565
C         1.24655061461961    0.07175993999937    0.88328029142779
H        -5.18507707070336   -0.95195258657523    1.51637865459683
H        -3.14219001910873   -1.92441823744235    2.49576334106077
H        -0.92863251157572   -1.40187660496760    1.59008507244475
H        -3.11107101436620    1.77579188129119   -2.30723940998416
H        -0.42000344428573    1.60013191226838   -2.36397614267072
H         3.35447290365100    0.16069123624005   -2.26651612261882
H         5.35399728309672    0.78833422966713    0.19629778494022
H         5.19063985188533   -0.86708993370200    0.77720088121503
H         5.33406875783690   -0.54323792902085   -0.95938915148995
H         3.05725785871512   -0.18758493762042    1.98831986886944
H         0.61213201471363    0.10946454658056    1.75303034641585
28
 energy: -46.185939536283 gnorm: 0.000747582227 xtb: 6.3.3 (4ae9cef)
F        -5.25677231482289    0.62549341462713   -0.52683258664309
C        -4.12767822069436    0.12988056362961    0.02624758971872
C        -4.21193957262225   -0.70884728367883    1.11244140962011
C        -3.04787997647192   -1.24684199092837    1.66135307436954
C        -1.79930014284643   -0.93874763550326    1.16191862425771
C        -1.72003940240483   -0.05793231993755    0.08808261626428
C        -2.89049373235551    0.46420572945658   -0.51788500164859
C        -2.47445708642615    1.24123000055691   -1.63696372813781
C        -1.12186498994977    1.16801761405271   -1.68038286787237
N        -0.64464311969711    0.40777813832923   -0.63505642157125
C         0.71581227289394    0.22848600041385   -0.40220637748128
N         1.48557459821949    0.26054202965847   -1.48417914677885
C         2.78936852223278    0.12257272592396   -1.34400613602324
C         3.42452137396422   -0.05936145624119   -0.12106869840152
C         4.91011305912415   -0.19471169703501   -0.01957049579300
C         2.61106964115936   -0.06764974714906    1.00963272895835
C         1.24416239093555    0.08305311671942    0.88196996751975
H        -5.17841277116176   -0.95873276362562    1.51974691813067
H        -3.13182579413614   -1.92687595816463    2.49504406185846
H        -0.92038909603589   -1.39864034871896    1.58424427973324
H        -3.11698541146013    1.77494311290560   -2.30753641534191
H        -0.42484241901550    1.60568246258272   -2.36714560835882
H         3.35638803494741    0.15815201099209   -2.26590034105849
H         5.35708612557930    0.77442166177758    0.20524506823627
H         5.18188468517634   -0.88238374750132    0.77845532751337
H         5.33040845839804   -0.55206330590165   -0.95637702387400
H         3.05280905321143   -0.17877310307653    1.99021003890194
H         0.60832783425852    0.12710077583616    1.75051914390169
28
 energy: -46.185951361538 gnorm: 0.000476886166 xtb: 6.3.3 (4ae9cef)
F        -5.25833272582600    0.61591160800475   -0.52371006854591
C        -4.12629528879275    0.12449780487767    0.02704399002995
C        -4.20589727851683   -0.71408230267652    1.11371706577349
C        -3.03940469149107   -1.24890089770013    1.66072190779940
C        -1.79284778937086   -0.93719252284531    1.15883842926234
C        -1.71840573226666   -0.05590139693736    0.08508923233718
C        -2.89114070802239    0.46267248747572   -0.51945887518247
C        -2.47871264451935    1.24191841170893   -1.63821544406950
C        -1.12588052479950    1.17335490134422   -1.68281575135783
N        -0.64525401656727    0.41409843409675   -0.63854829399516
C         0.71535336814911    0.23664744399290   -0.40523219729756
N         1.48636608557100    0.26487147593827   -1.48600568168617
C         2.78940215330733    0.12228131594568   -1.34331384790823
C         3.42224584972282   -0.06043125720979   -0.11937447428493
C         4.90674044358414   -0.20596055165618   -0.01557873096771
C         2.60777383876728   -0.06001399376141    1.01040255082567
C         1.24174317234530    0.09606819324560    0.88010553395177
H        -5.17096296657256   -0.96622260884971    1.52305575413085
H        -3.12011177691534   -1.92894425334434    2.49470530438914
H        -0.91129640639880   -1.39429871318263    1.57864658911247
H        -3.12357920911114    1.77387578134414   -2.30791347372016
H        -0.43073885005285    1.61388938046368   -2.36949895163189
H         3.35824274010031    0.15591430352650   -2.26365761988432
H         5.36008729013427    0.75868402111188    0.21565971193125
H         5.17192475773567   -0.89991497064902    0.77928435310126
H         5.32644217384316   -0.56137448351372   -0.95332188189044
H         3.04779026383071   -0.16857587882608    1.99194766949847
H         0.60475047213215    0.14712626807551    1.74742720027893
28
 energy: -46.185958024016 gnorm: 0.000453221435 xtb: 6.3.3 (4ae9cef)
F        -5.25963024241405    0.60698726323358   -0.52174692842357
C        -4.12521890081714    0.11911964513754    0.02704308127745
C        -4.20094591731153   -0.71944732181831    1.11404638669379
C        -3.03237805062886   -1.25108971426420    1.65970490240375
C        -1.78740489660414   -0.93570452618008    1.15627370471378
C        -1.71698240186396   -0.05409608171865    0.08259488422708
C        -2.89170632093558    0.46102847629447   -0.52099218894175
C        -2.48236625592010    1.24299087587655   -1.63885663345052
C        -1.12920989810374    1.17930876059130   -1.68382517527890
N        -0.64575893094080    0.42069530857228   -0.64068484756016