      -----------------------------------------------------------      
     |                   =====================                   |     
     |                           x T B                           |     
     |                   =====================                   |     
     |                         S. Grimme                         |     
     |          Mulliken Center for Theoretical Chemistry        |     
     |                    University of Bonn                     |     
      -----------------------------------------------------------      

   * xtb version 6.3.3 (4ae9cef) compiled by 'conda@95abc7406d43' on 2020-10-14

   xtb is free software: you can redistribute it and/or modify it under
   the terms of the GNU Lesser General Public License as published by
   the Free Software Foundation, either version 3 of the License, or
   (at your option) any later version.
   
   xtb is distributed in the hope that it will be useful,
   but WITHOUT ANY WARRANTY; without even the implied warranty of
   MERCHANTABILITY or FITNESS FOR A PARTICULAR PURPOSE.  See the
   GNU Lesser General Public License for more details.
   
   Cite this work as:
   * C. Bannwarth, E. Caldeweyher, S. Ehlert, A. Hansen, P. Pracht,
     J. Seibert, S. Spicher, S. Grimme, WIREs Comput. Mol. Sci., 2020,
     e01493. DOI: 10.1002/wcms.1493
   
   for GFN2-xTB:
   * S. Grimme, C. Bannwarth, P. Shushkov, J. Chem. Theory Comput., 2017,
     13, 1989-2009. DOI: 10.1021/acs.jctc.7b00118
   for GFN1-xTB:
   * C. Bannwarth, S. Ehlert and S. Grimme., J. Chem. Theory Comput., 2019,
     15, 1652-1671. DOI: 10.1021/acs.jctc.8b01176
   for GFN0-xTB:
   * P. Pracht, E. Caldeweyher, S. Ehlert, S. Grimme, ChemRxiv, 2019, preprint.
     DOI: 10.26434/chemrxiv.8326202.v1
   for GFN-FF:
   * S. Spicher and S. Grimme, Angew. Chem. Int. Ed., 2020, 59, 15665-15673.
     DOI: 10.1002/anie.202004239
   
   for DFT-D4:
   * E. Caldeweyher, C. Bannwarth and S. Grimme, J. Chem. Phys., 2017,
     147, 034112. DOI: 10.1063/1.4993215
   * E. Caldeweyher, S. Ehlert, A. Hansen, H. Neugebauer, S. Spicher,
     C. Bannwarth and S. Grimme, J. Chem. Phys., 2019, 150, 154122.
     DOI: 10.1063/1.5090222
   * E. Caldeweyher, J.-M. Mewes, S. Ehlert and S. Grimme, Phys. Chem. Chem. Phys.
     2020, 22, 8499-8512. DOI: 10.1039/D0CP00502A
   
   for sTDA-xTB:
   * S. Grimme and C. Bannwarth, J. Chem. Phys., 2016, 145, 054103.
     DOI: 10.1063/1.4959605
   
   in the mass-spec context:
   * V. Asgeirsson, C. Bauer and S. Grimme, Chem. Sci., 2017, 8, 4879.
     DOI: 10.1039/c7sc00601b
   * J. Koopman and S. Grimme, ACS Omega 2019, 4, 12, 15120-15133.
     DOI: 10.1021/acsomega.9b02011
   
   for metadynamics refer to:
   * S. Grimme, J. Chem. Theory Comput., 2019, 155, 2847-2862
     DOI: 10.1021/acs.jctc.9b00143
   
   with help from (in alphabetical order)
   C. Bannwarth, F. Bohle, G. Brandenburg, E. Caldeweyher, M. Checinski,
   S. Dohm, S. Ehlert, S. Ehrlich, F. März, H. Neugebauer, J. Pisarek,
   P. Pracht, P. Shushkov, and S. Spicher.
   
 * started run on 2022/03/17 at 02:20:06.506     

           -------------------------------------------------
          |                Calculation Setup                |
           -------------------------------------------------

          program call               : xtb sub_11.xyz --opt --chrg 0 --uhf 0 --gfn 2
          coordinate file            : sub_11.xyz
          omp threads                :                    64
          number of atoms            :                    32
          number of electrons        :                    90
          charge                     :                     0
          spin                       :                   0.0
          first test random number   :      0.29154004755523

   ID    Z sym.   atoms
    1    6 C      1, 3-6, 8-10, 12-18
    2    8 O      2
    3    7 N      7, 11
    4    1 H      19-32

           -------------------------------------------------
          |                 G F N 2 - x T B                 |
           -------------------------------------------------

        Reference                      10.1021/acs.jctc.8b01176
      * Hamiltonian:
        H0-scaling (s, p, d)           1.850000    2.230000    2.230000
        zeta-weighting                 0.500000
      * Dispersion:
        s8                             2.700000
        a1                             0.520000
        a2                             5.000000
        s9                             5.000000
      * Repulsion:
        kExp                           1.500000    1.000000
        rExp                           1.000000
      * Coulomb:
        alpha                          2.000000
        third order                    shell-resolved
        anisotropic                    true
        a3                             3.000000
        a5                             4.000000
        cn-shift                       1.200000
        cn-exp                         4.000000
        max-rad                        5.000000


          ...................................................
          :                      SETUP                      :
          :.................................................:
          :  # basis functions                  86          :
          :  # atomic orbitals                  86          :
          :  # shells                           50          :
          :  # electrons                        90          :
          :  max. iterations                   250          :
          :  Hamiltonian                  GFN2-xTB          :
          :  restarted?                      false          :
          :  GBSA solvation                  false          :
          :  PC potential                    false          :
          :  electronic temp.          300.0000000     K    :
          :  accuracy                    1.0000000          :
          :  -> integral cutoff          0.2500000E+02      :
          :  -> integral neglect         0.1000000E-07      :
          :  -> SCF convergence          0.1000000E-05 Eh   :
          :  -> wf. convergence          0.1000000E-03 e    :
          :  Broyden damping             0.4000000          :
          ...................................................

 iter      E             dE          RMSdq      gap      omega  full diag
   1    -49.8628146 -0.498628E+02  0.396E+00    2.91       0.0  T
   2    -49.9175919 -0.547773E-01  0.249E+00    2.74       1.0  T
   3    -49.9068188  0.107731E-01  0.123E+00    2.88       1.0  T
   4    -49.9241017 -0.172829E-01  0.485E-01    2.65       1.0  T
   5    -49.9294205 -0.531878E-02  0.111E-01    2.74       1.0  T
   6    -49.9295712 -0.150710E-03  0.522E-02    2.74       1.0  T
   7    -49.9296176 -0.464165E-04  0.244E-02    2.74       1.0  T
   8    -49.9296208 -0.310915E-05  0.104E-02    2.74       1.7  T
   9    -49.9296223 -0.158484E-05  0.278E-03    2.74       6.4  T
  10    -49.9296224 -0.682806E-07  0.101E-03    2.74      17.5  T
  11    -49.9296224 -0.934439E-08  0.520E-04    2.74      34.0  T
  12    -49.9296224 -0.138280E-08  0.240E-04    2.74      73.7  T

   *** convergence criteria satisfied after 12 iterations ***

         #    Occupation            Energy/Eh            Energy/eV
      -------------------------------------------------------------
         1        2.0000           -0.7048431             -19.1798
       ...           ...                  ...                  ...
        39        2.0000           -0.4310729             -11.7301
        40        2.0000           -0.4194866             -11.4148
        41        2.0000           -0.4140388             -11.2666
        42        2.0000           -0.4008503             -10.9077
        43        2.0000           -0.3759389             -10.2298
        44        2.0000           -0.3677218             -10.0062
        45        2.0000           -0.3578812              -9.7384 (HOMO)
        46                         -0.2572585              -7.0004 (LUMO)
        47                         -0.2425774              -6.6009
        48                         -0.2276638              -6.1950
        49                         -0.1858329              -5.0568
        50                         -0.1579381              -4.2977
       ...                                ...                  ...
        86                          0.7029996              19.1296
      -------------------------------------------------------------
                  HL-Gap            0.1006228 Eh            2.7381 eV
             Fermi-level           -0.3075698 Eh           -8.3694 eV

 SCC (total)                   0 d,  0 h,  0 min,  0.252 sec
 SCC setup                      ...        0 min,  0.021 sec (  8.352%)
 Dispersion                     ...        0 min,  0.016 sec (  6.250%)
 classical contributions        ...        0 min,  0.018 sec (  7.030%)
 integral evaluation            ...        0 min,  0.026 sec ( 10.396%)
 iterations                     ...        0 min,  0.034 sec ( 13.286%)
 molecular gradient             ...        0 min,  0.138 sec ( 54.543%)
 printout                       ...        0 min,  0.000 sec (  0.114%)

         :::::::::::::::::::::::::::::::::::::::::::::::::::::
         ::                     SUMMARY                     ::
         :::::::::::::::::::::::::::::::::::::::::::::::::::::
         :: total energy             -49.179901734109 Eh    ::
         :: gradient norm              0.080379147250 Eh/a0 ::
         :: HOMO-LUMO gap              2.738084559547 eV    ::
         ::.................................................::
         :: SCC energy               -49.929622419659 Eh    ::
         :: -> isotropic ES            0.026949769110 Eh    ::
         :: -> anisotropic ES          0.006111666686 Eh    ::
         :: -> anisotropic XC          0.027539893566 Eh    ::
         :: -> dispersion             -0.032892067276 Eh    ::
         :: repulsion energy           0.749944182361 Eh    ::
         :: add. restraining           0.000000000000 Eh    ::
         :: total charge               0.000000000000 e     ::
         :::::::::::::::::::::::::::::::::::::::::::::::::::::

      ----------------------------------------------------------- 
     |                   =====================                   |
     |                        A N C O P T                        |
     |                   =====================                   |
     |               Approximate Normal Coordinate               |
     |                Rational Function Optimizer                |
      ----------------------------------------------------------- 

          ...................................................
          :                      SETUP                      :
          :.................................................:
          :   optimization level            normal          :
          :   max. optcycles                   200          :
          :   ANC micro-cycles                  20          :
          :   degrees of freedom                90          :
          :.................................................:
          :   RF solver                   davidson          :
          :   write xtbopt.log                true          :
          :   linear?                        false          :
          :   energy convergence         0.5000000E-05 Eh   :
          :   grad. convergence          0.1000000E-02 Eh/α :
          :   maximium RF displ.         1.0000000          :
          :   Hlow (freq-cutoff)         0.1000000E-01      :
          :   Hmax (freq-cutoff)         5.0000000          :
          :   S6 in model hess.         20.0000000          :
          ...................................................

generating ANC from model Hessian ...
Using Lindh-Hessian (1995)
 Shifting diagonal of input Hessian by    9.5240029847438804E-003
 Lowest  eigenvalues of input Hessian
    0.000000    0.000000    0.000000    0.000000    0.000000    0.000000
    0.010000    0.010673    0.011218    0.012078    0.013988    0.014748
    0.015782    0.018380    0.019434    0.021047    0.023840    0.024379
 Highest eigenvalues
    1.915988    1.948310    1.986216    2.037168    2.093502    2.134965


........................................................................
.............................. CYCLE    1 ..............................
........................................................................
   1    -49.9296224 -0.499296E+02  0.791E-05    2.74       0.0  T
   2    -49.9296224 -0.324434E-10  0.511E-05    2.74     345.8  T
   3    -49.9296224 -0.140261E-10  0.340E-05    2.74     519.5  T
     SCC iter.                  ...        0 min,  0.008 sec
     gradient                   ...        0 min,  0.104 sec
 * total energy  :   -49.1799017 Eh     change       -0.7351133E-09 Eh
   gradient norm :     0.0803800 Eh/α   predicted     0.0000000E+00 (-100.00%)
   displ. norm   :     0.2963696 α      lambda       -0.1034489E-01
   maximum displ.:     0.1258627 α      in ANC's #14, #11, #22, ...

........................................................................
.............................. CYCLE    2 ..............................
........................................................................
   1    -49.9674068 -0.499674E+02  0.186E-01    2.87       0.0  T
   2    -49.9674994 -0.926146E-04  0.127E-01    2.88       1.0  T
   3    -49.9674876  0.118033E-04  0.659E-02    2.89       1.0  T
   4    -49.9675674 -0.797987E-04  0.144E-02    2.89       1.2  T
   5    -49.9675720 -0.462906E-05  0.493E-03    2.89       3.6  T
   6    -49.9675723 -0.299183E-06  0.237E-03    2.89       7.5  T
   7    -49.9675724 -0.352559E-07  0.761E-04    2.89      23.2  T
   8    -49.9675724 -0.852572E-08  0.235E-04    2.89      75.1  T
     SCC iter.                  ...        0 min,  0.030 sec
     gradient                   ...        0 min,  0.132 sec
 * total energy  :   -49.1869434 Eh     change       -0.7041679E-02 Eh
   gradient norm :     0.0323351 Eh/α   predicted    -0.5626773E-02 ( -20.09%)
   displ. norm   :     0.2479594 α      lambda       -0.2748580E-02
   maximum displ.:     0.1274955 α      in ANC's #11, #14, #6, ...

........................................................................
.............................. CYCLE    3 ..............................
........................................................................
   1    -49.9866437 -0.499866E+02  0.116E-01    2.95       0.0  T
   2    -49.9866983 -0.546133E-04  0.825E-02    2.96       1.0  T
   3    -49.9867129 -0.145979E-04  0.427E-02    2.97       1.0  T
   4    -49.9867338 -0.209501E-04  0.114E-02    2.97       1.6  T
   5    -49.9867364 -0.255659E-05  0.366E-03    2.97       4.8  T
   6    -49.9867366 -0.197901E-06  0.162E-03    2.97      10.9  T
   7    -49.9867366 -0.170847E-07  0.506E-04    2.97      34.9  T
   8    -49.9867366 -0.339512E-08  0.163E-04    2.97     108.2  T
     SCC iter.                  ...        0 min,  0.023 sec
     gradient                   ...        0 min,  0.153 sec
 * total energy  :   -49.1884450 Eh     change       -0.1501596E-02 Eh
   gradient norm :     0.0068234 Eh/α   predicted    -0.1458788E-02 (  -2.85%)
   displ. norm   :     0.1049876 α      lambda       -0.2236301E-03
   maximum displ.:     0.0490092 α      in ANC's #3, #6, #11, ...

........................................................................
.............................. CYCLE    4 ..............................
........................................................................
   1    -49.9868108 -0.499868E+02  0.465E-02    2.96       0.0  T
   2    -49.9868130 -0.216644E-05  0.279E-02    2.97       1.0  T
   3    -49.9868108  0.217103E-05  0.919E-03    2.97       1.9  T
   4    -49.9868132 -0.240542E-05  0.291E-03    2.97       6.1  T
   5    -49.9868135 -0.248565E-06  0.706E-04    2.97      25.0  T
   6    -49.9868135 -0.274855E-08  0.364E-04    2.97      48.5  T
     SCC iter.                  ...        0 min,  0.019 sec
     gradient                   ...        0 min,  0.153 sec
 * total energy  :   -49.1886069 Eh     change       -0.1619093E-03 Eh
   gradient norm :     0.0036533 Eh/α   predicted    -0.1130512E-03 ( -30.18%)
   displ. norm   :     0.1509639 α      lambda       -0.1651467E-03
   maximum displ.:     0.0915962 α      in ANC's #3, #6, #1, ...

........................................................................
.............................. CYCLE    5 ..............................
........................................................................
   1    -49.9859649 -0.499860E+02  0.628E-02    2.96       0.0  T
   2    -49.9859664 -0.156179E-05  0.371E-02    2.96       1.0  T
   3    -49.9859640  0.243346E-05  0.966E-03    2.96       1.8  T
   4    -49.9859669 -0.292564E-05  0.194E-03    2.96       9.1  T
   5    -49.9859670 -0.644975E-07  0.857E-04    2.96      20.6  T
   6    -49.9859670 -0.361197E-08  0.406E-04    2.96      43.5  T
     SCC iter.                  ...        0 min,  0.031 sec
     gradient                   ...        0 min,  0.122 sec
 * total energy  :   -49.1887140 Eh     change       -0.1071100E-03 Eh
   gradient norm :     0.0033559 Eh/α   predicted    -0.8447172E-04 ( -21.14%)
   displ. norm   :     0.1122137 α      lambda       -0.6667356E-04
   maximum displ.:     0.0742921 α      in ANC's #3, #1, #6, ...

........................................................................
.............................. CYCLE    6 ..............................
........................................................................
   1    -49.9856964 -0.499857E+02  0.469E-02    2.96       0.0  T
   2    -49.9856970 -0.507782E-06  0.274E-02    2.95       1.0  T
   3    -49.9856960  0.991700E-06  0.607E-03    2.95       2.9  T
   4    -49.9856972 -0.120954E-05  0.102E-03    2.95      17.3  T
   5    -49.9856972 -0.656257E-08  0.477E-04    2.95      37.0  T
   6    -49.9856972 -0.153876E-08  0.177E-04    2.95     100.1  T
     SCC iter.                  ...        0 min,  0.018 sec
     gradient                   ...        0 min,  0.142 sec
 * total energy  :   -49.1887680 Eh     change       -0.5392877E-04 Eh
   gradient norm :     0.0033382 Eh/α   predicted    -0.3375806E-04 ( -37.40%)
   displ. norm   :     0.1498367 α      lambda       -0.8236123E-04
   maximum displ.:     0.0965507 α      in ANC's #3, #1, #6, ...

........................................................................
.............................. CYCLE    7 ..............................
........................................................................
   1    -49.9857953 -0.499858E+02  0.620E-02    2.95       0.0  T
   2    -49.9857965 -0.125331E-05  0.361E-02    2.95       1.0  T
   3    -49.9857954  0.108810E-05  0.680E-03    2.95       2.6  T
   4    -49.9857968 -0.135544E-05  0.170E-03    2.95      10.4  T
   5    -49.9857968 -0.488784E-07  0.690E-04    2.95      25.6  T
   6    -49.9857968 -0.195937E-08  0.342E-04    2.95      51.7  T
     SCC iter.                  ...        0 min,  0.026 sec
     gradient                   ...        0 min,  0.149 sec
 * total energy  :   -49.1888329 Eh     change       -0.6493130E-04 Eh
   gradient norm :     0.0023389 Eh/α   predicted    -0.4210643E-04 ( -35.15%)
   displ. norm   :     0.1698294 α      lambda       -0.6928066E-04
   maximum displ.:     0.1077814 α      in ANC's #3, #1, #6, ...

........................................................................
.............................. CYCLE    8 ..............................
........................................................................
   1    -49.9860355 -0.499860E+02  0.709E-02    2.95       0.0  T
   2    -49.9860369 -0.135236E-05  0.413E-02    2.94       1.0  T
   3    -49.9860365  0.431265E-06  0.528E-03    2.94       3.4  T
   4    -49.9860371 -0.667764E-06  0.178E-03    2.94       9.9  T
   5    -49.9860372 -0.476595E-07  0.727E-04    2.94      24.3  T
   6    -49.9860372 -0.187280E-08  0.329E-04    2.94      53.8  T
     SCC iter.                  ...        0 min,  0.014 sec
     gradient                   ...        0 min,  0.147 sec
 * total energy  :   -49.1888844 Eh     change       -0.5152743E-04 Eh
   gradient norm :     0.0017700 Eh/α   predicted    -0.3564351E-04 ( -30.83%)
   displ. norm   :     0.2085153 α      lambda       -0.3979929E-04
   maximum displ.:     0.1343103 α      in ANC's #1, #3, #8, ...

........................................................................
.............................. CYCLE    9 ..............................
........................................................................
   1    -49.9862879 -0.499863E+02  0.871E-02    2.95       0.0  T
   2    -49.9862892 -0.134020E-05  0.507E-02    2.94       1.0  T
   3    -49.9862891  0.156895E-06  0.485E-03    2.94       3.6  T
   4    -49.9862895 -0.484449E-06  0.189E-03    2.94       9.3  T
   5    -49.9862896 -0.331561E-07  0.781E-04    2.94      22.6  T
   6    -49.9862896 -0.332422E-08  0.343E-04    2.94      51.6  T
     SCC iter.                  ...        0 min,  0.019 sec
     gradient                   ...        0 min,  0.124 sec
 * total energy  :   -49.1889230 Eh     change       -0.3857084E-04 Eh
   gradient norm :     0.0017630 Eh/α   predicted    -0.2028477E-04 ( -47.41%)
   displ. norm   :     0.0874931 α      lambda       -0.1703509E-04
   maximum displ.:     0.0653427 α      in ANC's #1, #3, #2, ...

........................................................................
.............................. CYCLE   10 ..............................
........................................................................
   1    -49.9866943 -0.499867E+02  0.335E-02    2.94       0.0  T
   2    -49.9866945 -0.185701E-06  0.196E-02    2.94       1.0  T
   3    -49.9866940  0.435786E-06  0.401E-03    2.94       4.4  T
   4    -49.9866946 -0.524700E-06  0.809E-04    2.94      21.9  T
   5    -49.9866946 -0.569142E-08  0.392E-04    2.94      45.1  T
     SCC iter.                  ...        0 min,  0.017 sec
     gradient                   ...        0 min,  0.118 sec
 * total energy  :   -49.1889439 Eh     change       -0.2086388E-04 Eh
   gradient norm :     0.0010273 Eh/α   predicted    -0.8547579E-05 ( -59.03%)
   displ. norm   :     0.1065702 α      lambda       -0.1984592E-04
   maximum displ.:     0.0756324 α      in ANC's #1, #2, #5, ...

........................................................................
.............................. CYCLE   11 ..............................
........................................................................
   1    -49.9866483 -0.499866E+02  0.340E-02    2.94       0.0  T
   2    -49.9866485 -0.225219E-06  0.199E-02    2.94       1.0  T
   3    -49.9866481  0.467835E-06  0.421E-03    2.94       4.2  T
   4    -49.9866486 -0.558088E-06  0.862E-04    2.94      20.5  T
   5    -49.9866486 -0.104304E-07  0.407E-04    2.94      43.4  T
     SCC iter.                  ...        0 min,  0.013 sec
     gradient                   ...        0 min,  0.136 sec
 * total energy  :   -49.1889674 Eh     change       -0.2356900E-04 Eh
   gradient norm :     0.0009154 Eh/α   predicted    -0.9978024E-05 ( -57.66%)
   displ. norm   :     0.1220516 α      lambda       -0.1779596E-04
   maximum displ.:     0.0835237 α      in ANC's #1, #2, #5, ...

........................................................................
.............................. CYCLE   12 ..............................
........................................................................
   1    -49.9865808 -0.499866E+02  0.351E-02    2.94       0.0  T
   2    -49.9865809 -0.127590E-06  0.206E-02    2.94       1.0  T
   3    -49.9865807  0.265218E-06  0.306E-03    2.94       5.8  T
   4    -49.9865810 -0.326886E-06  0.693E-04    2.94      25.5  T
   5    -49.9865810 -0.336075E-08  0.345E-04    2.94      51.2  T
     SCC iter.                  ...        0 min,  0.012 sec
     gradient                   ...        0 min,  0.132 sec
 * total energy  :   -49.1889881 Eh     change       -0.2069473E-04 Eh
   gradient norm :     0.0013730 Eh/α   predicted    -0.8957423E-05 ( -56.72%)
   displ. norm   :     0.1296136 α      lambda       -0.1696055E-04
   maximum displ.:     0.0898272 α      in ANC's #1, #2, #4, ...

........................................................................
.............................. CYCLE   13 ..............................
........................................................................
   1    -49.9864840 -0.499865E+02  0.365E-02    2.94       0.0  T
   2    -49.9864841 -0.120845E-06  0.214E-02    2.94       1.0  T
   3    -49.9864839  0.182698E-06  0.265E-03    2.94       6.7  T
   4    -49.9864842 -0.245190E-06  0.672E-04    2.94      26.3  T
   5    -49.9864842 -0.573543E-09  0.296E-04    2.94      59.7  T
     SCC iter.                  ...        0 min,  0.025 sec
     gradient                   ...        0 min,  0.139 sec
 * total energy  :   -49.1890078 Eh     change       -0.1971330E-04 Eh
   gradient norm :     0.0014075 Eh/α   predicted    -0.8547920E-05 ( -56.64%)
   displ. norm   :     0.1360913 α      lambda       -0.1558496E-04
   maximum displ.:     0.0970230 α      in ANC's #1, #2, #8, ...

........................................................................
.............................. CYCLE   14 ..............................
........................................................................
   1    -49.9863262 -0.499863E+02  0.399E-02    2.94       0.0  T
   2    -49.9863264 -0.209047E-06  0.234E-02    2.93       1.0  T
   3    -49.9863262  0.205632E-06  0.305E-03    2.93       5.8  T
   4    -49.9863264 -0.280821E-06  0.815E-04    2.93      21.7  T
   5    -49.9863265 -0.424831E-08  0.339E-04    2.93      52.1  T
     SCC iter.                  ...        0 min,  0.021 sec
     gradient                   ...        0 min,  0.148 sec
 * total energy  :   -49.1890263 Eh     change       -0.1851772E-04 Eh
   gradient norm :     0.0008752 Eh/α   predicted    -0.7858147E-05 ( -57.56%)
   displ. norm   :     0.1332608 α      lambda       -0.1214758E-04
   maximum displ.:     0.0985231 α      in ANC's #1, #2, #8, ...

........................................................................
.............................. CYCLE   15 ..............................
........................................................................
   1    -49.9865264 -0.499865E+02  0.398E-02    2.93       0.0  T
   2    -49.9865267 -0.249626E-06  0.234E-02    2.93       1.0  T
   3    -49.9865265  0.154983E-06  0.280E-03    2.93       6.3  T
   4    -49.9865268 -0.225423E-06  0.847E-04    2.93      20.9  T
   5    -49.9865268 -0.629082E-08  0.406E-04    2.93      43.6  T
     SCC iter.                  ...        0 min,  0.012 sec
     gradient                   ...        0 min,  0.124 sec
 * total energy  :   -49.1890402 Eh     change       -0.1384344E-04 Eh
   gradient norm :     0.0004734 Eh/α   predicted    -0.6123332E-05 ( -55.77%)
   displ. norm   :     0.0944898 α      lambda       -0.6560560E-05
   maximum displ.:     0.0733361 α      in ANC's #1, #2, #8, ...

........................................................................
.............................. CYCLE   16 ..............................
........................................................................
   1    -49.9865335 -0.499865E+02  0.289E-02    2.93       0.0  T
   2    -49.9865337 -0.135046E-06  0.169E-02    2.93       1.0  T
   3    -49.9865336  0.905330E-07  0.223E-03    2.93       7.9  T
   4    -49.9865337 -0.134763E-06  0.644E-04    2.93      27.4  T
   5    -49.9865337 -0.237890E-08  0.280E-04    2.93      63.1  T
     SCC iter.                  ...        0 min,  0.016 sec
     gradient                   ...        0 min,  0.147 sec
 * total energy  :   -49.1890478 Eh     change       -0.7587722E-05 Eh
   gradient norm :     0.0005805 Eh/α   predicted    -0.3294111E-05 ( -56.59%)
   displ. norm   :     0.0953460 α      lambda       -0.3636032E-06
   maximum displ.:     0.0744363 α      in ANC's #1, #2, #8, ...

........................................................................
.............................. CYCLE   17 ..............................
........................................................................
   1    -49.9864291 -0.499864E+02  0.290E-02    2.93       0.0  T
   2    -49.9864292 -0.134702E-06  0.170E-02    2.93       1.0  T
   3    -49.9864291  0.901145E-07  0.223E-03    2.93       7.9  T
   4    -49.9864293 -0.134534E-06  0.644E-04    2.93      27.4  T
   5    -49.9864293 -0.226380E-08  0.283E-04    2.93      62.5  T
     SCC iter.                  ...        0 min,  0.016 sec
     gradient                   ...        0 min,  0.149 sec
 * total energy  :   -49.1890509 Eh     change       -0.3092400E-05 Eh
   gradient norm :     0.0011527 Eh/α   predicted    -0.1852279E-06 ( -94.01%)
   displ. norm   :     0.0946911 α      lambda        0.4985699E-05
   maximum displ.:     0.0736012 α      in ANC's #1, #2, #8, ...

........................................................................
.............................. CYCLE   18 ..............................
........................................................................
   1    -49.9862284 -0.499862E+02  0.289E-02    2.92       0.0  T
   2    -49.9862286 -0.133829E-06  0.169E-02    2.92       1.0  T
   3    -49.9862285  0.889006E-07  0.223E-03    2.92       7.9  T
   4    -49.9862286 -0.132989E-06  0.639E-04    2.92      27.7  T
   5    -49.9862286 -0.216878E-08  0.278E-04    2.92      63.6  T
     SCC iter.                  ...        0 min,  0.012 sec
     gradient                   ...        0 min,  0.133 sec
 * total energy  :   -49.1890492 Eh     change        0.1709032E-05 Eh
   gradient norm :     0.0018214 Eh/α   predicted     0.2501264E-05 (  46.36%)
   displ. norm   :     0.0280467 α      lambda       -0.6237316E-05
   maximum displ.:     0.0161816 α      in ANC's #2, #1, #3, ...

........................................................................
.............................. CYCLE   19 ..............................
........................................................................
   1    -49.9866844 -0.499867E+02  0.130E-02    2.93       0.0  T
   2    -49.9866844 -0.451309E-07  0.761E-03    2.93       2.3  T
   3    -49.9866844  0.567234E-07  0.162E-03    2.93      10.9  T
   4    -49.9866844 -0.742502E-07  0.349E-04    2.93      50.6  T
   5    -49.9866844 -0.409358E-09  0.169E-04    2.93     104.4  T
     SCC iter.                  ...        0 min,  0.012 sec
     gradient                   ...        0 min,  0.135 sec
 * total energy  :   -49.1890555 Eh     change       -0.6295117E-05 Eh
   gradient norm :     0.0008575 Eh/α   predicted    -0.3123478E-05 ( -50.38%)
   displ. norm   :     0.0274683 α      lambda       -0.4518718E-05
   maximum displ.:     0.0151323 α      in ANC's #2, #10, #3, ...

........................................................................
.............................. CYCLE   20 ..............................
........................................................................
   1    -49.9869582 -0.499870E+02  0.101E-02    2.93       0.0  T
   2    -49.9869582 -0.480369E-07  0.594E-03    2.93       3.0  T
   3    -49.9869581  0.689318E-07  0.175E-03    2.93      10.1  T
   4    -49.9869582 -0.851697E-07  0.334E-04    2.93      53.0  T
   5    -49.9869582 -0.116970E-08  0.164E-04    2.93     107.9  T
     SCC iter.                  ...        0 min,  0.016 sec
     gradient                   ...        0 min,  0.136 sec
 * total energy  :   -49.1890605 Eh     change       -0.5062205E-05 Eh
   gradient norm :     0.0005521 Eh/α   predicted    -0.2261202E-05 ( -55.33%)
   displ. norm   :     0.0451933 α      lambda       -0.4572955E-05
   maximum displ.:     0.0233584 α      in ANC's #1, #3, #8, ...
 * RMSD in coord.:     0.3090521 α      energy gain  -0.9158785E-02 Eh

generating ANC from model Hessian ...
Using Lindh-Hessian (1995)
 Shifting diagonal of input Hessian by    9.4615198563780187E-003
 Lowest  eigenvalues of input Hessian
    0.000000    0.000000    0.000000    0.000000    0.000000    0.000000
    0.010000    0.010685    0.011532    0.012508    0.014139    0.015251
    0.016166    0.018621    0.019764    0.022137    0.024883    0.025793
 Highest eigenvalues
    1.983879    2.030755    2.060304    2.139903    2.209582    2.283473


........................................................................
.............................. CYCLE   21 ..............................
........................................................................
   1    -49.9868506 -0.499869E+02  0.118E-02    2.93       0.0  T
   2    -49.9868506 -0.394161E-07  0.701E-03    2.93       2.5  T
   3    -49.9868506  0.282677E-07  0.115E-03    2.93      15.4  T
   4    -49.9868506 -0.381731E-07  0.279E-04    2.93      63.4  T
   5    -49.9868506 -0.698996E-09  0.143E-04    2.93     123.6  T
     SCC iter.                  ...        0 min,  0.018 sec
     gradient                   ...        0 min,  0.157 sec
 * total energy  :   -49.1890652 Eh     change       -0.4698187E-05 Eh
   gradient norm :     0.0006643 Eh/α   predicted     0.0000000E+00 (-100.00%)
   displ. norm   :     0.0144831 α      lambda       -0.1761623E-05
   maximum displ.:     0.0090690 α      in ANC's #1, #3, #4, ...

   *** GEOMETRY OPTIMIZATION CONVERGED AFTER 21 ITERATIONS ***

------------------------------------------------------------------------
 total energy gain   :        -0.0091635 Eh       -5.7502 kcal/mol
 total RMSD          :         0.3090521 a0        0.1635 Å
 total power (kW/mol):        -1.1456534 (step)   -4.6456 (real)
------------------------------------------------------------------------

 ANCopt (total)                0 d,  0 h,  0 min,  5.179 sec
 optimizer setup                ...        0 min,  0.000 sec (  0.002%)
 model hessian                  ...        0 min,  0.014 sec (  0.263%)
 ANC generation                 ...        0 min,  0.005 sec (  0.092%)
 coordinate transformation      ...        0 min,  0.000 sec (  0.007%)
 single point calculation       ...        0 min,  4.880 sec ( 94.222%)
 optimization log               ...        0 min,  0.002 sec (  0.036%)
 hessian update                 ...        0 min,  0.275 sec (  5.306%)
 rational function              ...        0 min,  0.002 sec (  0.033%)

================
 final structure:
================
32
 xtb: 6.3.3 (4ae9cef)
C        -5.82029817856189   -0.38611380102424    0.45159792003694
O        -4.68935635956399   -1.20215134837669    0.61731607709455
C        -3.46184181329574   -0.67141153106279    0.32881179839030
C        -3.24440773761295    0.61124213072616   -0.13672558356111
C        -1.93089408652824    1.01360760309797   -0.37738853088930
C        -0.84757201935195    0.14063774971082   -0.12669543983968
N         0.31472116308943    0.80734204673212   -0.46217464337313
C        -0.03051512656212    2.05049432124158   -0.94124741796726
C        -1.37501209868205    2.22133323403682   -0.89131266350206
C         1.63141195028792    0.38911824819484   -0.32825589700435
N         2.49152767355094    0.91267511787980   -1.19518183319295
C         3.76265159809463    0.56980684074977   -1.11725859230681
C         4.27436987726686   -0.31567437634589   -0.17716368624593
C         5.72800276782779   -0.66388337902754   -0.12894970064918
C         3.37034034550462   -0.83609452829855    0.74615523069994
C         2.03739006449470   -0.48385987310704    0.68448873916139
C        -1.08090470240609   -1.16376676018234    0.29390089067025
C        -2.38163310979565   -1.54981388708815    0.52134304469597
H        -5.77169336049570    0.50367005334485    1.08860752952148
H        -5.94572624839705   -0.07735491480172   -0.59179772636788
H        -6.67197796006059   -0.99572960418456    0.75028428688796
H        -4.05153402455194    1.29955687743178   -0.32995208509990
H         0.74253052323182    2.71828965785903   -1.26647682863493
H        -1.91976111586018    3.09705714485582   -1.18326555799556
H         4.40807862506453    1.03163539720081   -1.85342566530855
H         6.20843610477783   -0.44985667896716   -1.08045398379449
H         6.22690965281951   -0.07882844856828    0.64442395117668
H         5.86343663477993   -1.71706944049454    0.10882835649204
H         3.71703065837172   -1.50590907050850    1.52111354510248
H         1.33521733287602   -0.83999547276981    1.41979214764338
H        -0.28154524026146   -1.87726010631677    0.41725570687621
H        -2.60738179004837   -2.55169220193982    0.85000261128341

 Bond Distances (Angstroems)
 ---------------------------
C1-O2=1.4044         C1-H19=1.0954        C1-H20=1.0953        C1-H21=1.0891        O2-C1=1.4044         O2-C3=1.3681         
C3-O2=1.3681         C3-C4=1.3817         C3-C18=1.4055        C4-C3=1.3817         C4-C5=1.3947         C4-H22=1.0782        
C5-C4=1.3947         C5-C6=1.4137         C5-C9=1.4254         C6-C5=1.4137         C6-N7=1.3813         C6-C17=1.3903        
N7-C6=1.3813         N7-C8=1.3763         N7-C10=1.3880        C8-N7=1.3763         C8-C9=1.3562         C8-H23=1.0721        
C9-C5=1.4254         C9-C8=1.3562         C9-H24=1.0719        C10-N7=1.3880        C10-N11=1.3287       C10-C16=1.3973       
N11-C10=1.3287       N11-C12=1.3189       C12-N11=1.3189       C12-C13=1.3891       C12-H25=1.0825       C13-C12=1.3891       
C13-C14=1.4955       C13-C15=1.3931       C14-C13=1.4955       C14-H26=1.0872       C14-H27=1.0906       C14-H28=1.0882       
C15-C13=1.3931       C15-C16=1.3801       C15-H29=1.0814       C16-C10=1.3973       C16-C15=1.3801       C16-H30=1.0773       
C17-C6=1.3903        C17-C18=1.3757       C17-H31=1.0785       C18-C3=1.4055        C18-C17=1.3757       C18-H32=1.0783       
H19-C1=1.0954        H20-C1=1.0953        H21-C1=1.0891        H22-C4=1.0782        H23-C8=1.0721        H24-C9=1.0719        
H25-C12=1.0825       H26-C14=1.0872       H27-C14=1.0906       H28-C14=1.0882       H29-C15=1.0814       H30-C16=1.0773       
H31-C17=1.0785       H32-C18=1.0783       
 C  H  Rav=1.0833 sigma=0.0075  Rmin=1.0719  Rmax=1.0954    14
 C  C  Rav=1.3999 sigma=0.0322  Rmin=1.3562  Rmax=1.4955    13
 N  C  Rav=1.3586 sigma=0.0289  Rmin=1.3189  Rmax=1.3880     5
 O  C  Rav=1.3863 sigma=0.0182  Rmin=1.3681  Rmax=1.4044     2

 selected bond angles (degree)
 --------------------
H19-C1-O2=111.57               H20-C1-O2=111.62               H20-C1-H19=109.27              H21-C1-O2=105.79               
H21-C1-H19=109.26              H21-C1-H20=109.24              C3-O2-C1=118.18                C4-C3-O2=124.91                
C18-C3-O2=114.72               C18-C3-C4=120.36               C5-C4-C3=118.30                H22-C4-C3=122.36               
H22-C4-C5=119.33               C6-C5-C4=120.86                C9-C5-C4=132.37                C9-C5-C6=106.76                
N7-C6-C5=107.68                C17-C6-C5=120.29               C17-C6-N7=131.88               C8-N7-C6=108.03                
C10-N7-C6=129.00               C10-N7-C8=122.94               C9-C8-N7=110.47                H23-C8-N7=119.17               
H23-C8-C9=130.36               C8-C9-C5=107.05                H24-C9-C5=126.32               H24-C9-C8=126.64               
N11-C10-N7=115.62              C16-C10-N7=122.26              C16-C10-N11=122.07             

 selected dihedral angles (degree)
 ---------------------------------
C3-O2-C1-H19=299.68           C3-O2-C1-H20= 62.26           C3-O2-C1-H21=180.97           C4-C3-O2-C1=358.98            
C18-C3-O2-C1=179.94           C5-C4-C3-O2=179.55            C5-C4-C3-C18=358.54           H22-C4-C3-O2=358.74           
H22-C4-C3-C18=177.73          C6-C5-C4-C3=358.78            C6-C5-C4-H22=179.56           C9-C5-C4-C3=177.49            
C9-C5-C4-H22=358.27           N7-C6-C5-C4=179.73            N7-C6-C5-C9=  0.72            C17-C6-C5-C4=  3.65           
C17-C6-C5-C9=184.65           C8-N7-C6-C5=358.55            C8-N7-C6-C17=174.00           C10-N7-C6-C5=176.45           
C10-N7-C6-C17=351.89          C9-C8-N7-C6=  1.68            C9-C8-N7-C10=183.63           H23-C8-N7-C6=180.68           
H23-C8-N7-C10=  2.63          C8-C9-C5-C4=181.44            C8-C9-C5-C6=  0.28            H24-C9-C5-C4=  1.38           
H24-C9-C5-C6=180.22           C5-C9-C8-N7=358.80            C5-C9-C8-H23=179.94           H24-C9-C8-N7=178.86           
H24-C9-C8-H23=  0.00          N11-C10-N7-C6=152.44          N11-C10-N7-C8=330.06          C16-C10-N7-C6=329.99          
C16-C10-N7-C8=147.60          
           -------------------------------------------------
          |                Final Singlepoint                |
           -------------------------------------------------

          ...................................................
          :                      SETUP                      :
          :.................................................:
          :  # basis functions                  86          :
          :  # atomic orbitals                  86          :
          :  # shells                           50          :
          :  # electrons                        90          :
          :  max. iterations                   250          :
          :  Hamiltonian                  GFN2-xTB          :
          :  restarted?                      false          :
          :  GBSA solvation                  false          :
          :  PC potential                    false          :
          :  electronic temp.          300.0000000     K    :
          :  accuracy                    1.0000000          :
          :  -> integral cutoff          0.2500000E+02      :
          :  -> integral neglect         0.1000000E-07      :
          :  -> SCF convergence          0.1000000E-05 Eh   :
          :  -> wf. convergence          0.1000000E-03 e    :
          :  Broyden damping             0.4000000          :
          ...................................................

 iter      E             dE          RMSdq      gap      omega  full diag
   1    -49.9868506 -0.499869E+02  0.715E-05    2.93       0.0  T
   2    -49.9868506 -0.213092E-10  0.497E-05    2.93     355.6  T
   3    -49.9868506 -0.448068E-10  0.279E-05    2.93     634.3  T

   *** convergence criteria satisfied after 3 iterations ***

         #    Occupation            Energy/Eh            Energy/eV
      -------------------------------------------------------------
         1        2.0000           -0.7060606             -19.2129
       ...           ...                  ...                  ...
        39        2.0000           -0.4323343             -11.7644
        40        2.0000           -0.4218156             -11.4782
        41        2.0000           -0.4138500             -11.2614
        42        2.0000           -0.4013080             -10.9201
        43        2.0000           -0.3738161             -10.1721
        44        2.0000           -0.3675935             -10.0027
        45        2.0000           -0.3578498              -9.7376 (HOMO)
        46                         -0.2502343              -6.8092 (LUMO)
        47                         -0.2408022              -6.5526
        48                         -0.2231315              -6.0717
        49                         -0.1855934              -5.0503
        50                         -0.1535177              -4.1774
       ...                                ...                  ...
        86                          0.7298024              19.8589
      -------------------------------------------------------------
                  HL-Gap            0.1076155 Eh            2.9284 eV
             Fermi-level           -0.3040421 Eh           -8.2734 eV

 SCC (total)                   0 d,  0 h,  0 min,  0.247 sec
 SCC setup                      ...        0 min,  0.019 sec (  7.502%)
 Dispersion                     ...        0 min,  0.020 sec (  7.971%)
 classical contributions        ...        0 min,  0.016 sec (  6.460%)
 integral evaluation            ...        0 min,  0.021 sec (  8.408%)
 iterations                     ...        0 min,  0.009 sec (  3.605%)
 molecular gradient             ...        0 min,  0.163 sec ( 65.883%)
 printout                       ...        0 min,  0.000 sec (  0.135%)

         :::::::::::::::::::::::::::::::::::::::::::::::::::::
         ::                     SUMMARY                     ::
         :::::::::::::::::::::::::::::::::::::::::::::::::::::
         :: total energy             -49.189065217310 Eh    ::
         :: gradient norm              0.000663705761 Eh/a0 ::
         :: HOMO-LUMO gap              2.928366362531 eV    ::
         ::.................................................::
         :: SCC energy               -49.986850616451 Eh    ::
         :: -> isotropic ES            0.026551947421 Eh    ::
         :: -> anisotropic ES          0.005521726956 Eh    ::
         :: -> anisotropic XC          0.026080735884 Eh    ::
         :: -> dispersion             -0.033322410997 Eh    ::
         :: repulsion energy           0.797996297248 Eh    ::
         :: add. restraining           0.000000000000 Eh    ::
         :: total charge              -0.000000000000 e     ::
         :::::::::::::::::::::::::::::::::::::::::::::::::::::

           -------------------------------------------------
          |                Property Printout                |
           -------------------------------------------------

    * Orbital Energies and Occupations

         #    Occupation            Energy/Eh            Energy/eV
      -------------------------------------------------------------
         1        2.0000           -0.7060606             -19.2129
       ...           ...                  ...                  ...
        33        2.0000           -0.4635120             -12.6128
        34        2.0000           -0.4628570             -12.5950
        35        2.0000           -0.4539459             -12.3525
        36        2.0000           -0.4487440             -12.2109
        37        2.0000           -0.4403947             -11.9838
        38        2.0000           -0.4340625             -11.8114
        39        2.0000           -0.4323343             -11.7644
        40        2.0000           -0.4218156             -11.4782
        41        2.0000           -0.4138500             -11.2614
        42        2.0000           -0.4013080             -10.9201
        43        2.0000           -0.3738161             -10.1721
        44        2.0000           -0.3675935             -10.0027
        45        2.0000           -0.3578498              -9.7376 (HOMO)
        46                         -0.2502343              -6.8092 (LUMO)
        47                         -0.2408022              -6.5526
        48                         -0.2231315              -6.0717
        49                         -0.1855934              -5.0503
        50                         -0.1535177              -4.1774
        51                         -0.1057414              -2.8774
        52                         -0.0666591              -1.8139
        53                          0.0235935               0.6420
        54                          0.0430086               1.1703
        55                          0.0985456               2.6816
        56                          0.1135434               3.0897
       ...                                ...                  ...
        86                          0.7298024              19.8589
      -------------------------------------------------------------
                  HL-Gap            0.1076155 Eh            2.9284 eV
             Fermi-level           -0.3040421 Eh           -8.2734 eV

     #   Z          covCN         q      C6AA      α(0)
     1   6 C        3.645     0.040    20.228     6.464
     2   8 O        1.705    -0.276    18.586     5.821
     3   6 C        2.866     0.134    25.068     8.207
     4   6 C        2.910    -0.076    29.885     8.964
     5   6 C        3.115    -0.009    28.072     8.679
     6   6 C        3.083     0.027    27.312     8.567
     7   7 N        2.833    -0.016    21.553     6.895
     8   6 C        3.038     0.001    27.979     8.676
     9   6 C        3.004    -0.070    29.733     8.945
    10   6 C        2.903     0.143    24.895     8.181
    11   7 N        1.846    -0.247    27.282     7.741
    12   6 C        2.912     0.051    26.850     8.497
    13   6 C        2.961     0.000    28.020     8.682
    14   6 C        3.757    -0.110    22.649     6.785
    15   6 C        2.935    -0.023    28.573     8.766
    16   6 C        2.913    -0.059    29.473     8.902
    17   6 C        2.909    -0.048    29.195     8.860
    18   6 C        2.925    -0.060    29.496     8.906
    19   1 H        0.924     0.037     2.486     2.466
    20   1 H        0.924     0.037     2.484     2.465
    21   1 H        0.925     0.058     2.224     2.332
    22   1 H        0.926     0.034     2.525     2.485
    23   1 H        0.926     0.053     2.282     2.362
    24   1 H        0.926     0.033     2.539     2.492
    25   1 H        0.925     0.039     2.458     2.452
    26   1 H        0.925     0.045     2.378     2.411
    27   1 H        0.924     0.051     2.310     2.377
    28   1 H        0.925     0.048     2.350     2.397
    29   1 H        0.925     0.037     2.495     2.470
    30   1 H        0.926     0.044     2.394     2.420
    31   1 H        0.926     0.034     2.535     2.490
    32   1 H        0.926     0.046     2.365     2.405

 Mol. C6AA /au·bohr⁶  :      12963.337030
 Mol. C8AA /au·bohr⁸  :     314187.126481
 Mol. α(0) /au        :        180.563998


Wiberg/Mayer (AO) data.
largest (>0.10) Wiberg bond orders for each atom

 ---------------------------------------------------------------------------
     #   Z sym  total        # sym  WBO       # sym  WBO       # sym  WBO
 ---------------------------------------------------------------------------
     1   6 C    3.950 --     2 O    0.990    21 H    0.980    19 H    0.977
                            20 H    0.976
     2   8 O    2.212 --     3 C    1.047     1 C    0.990
     3   6 C    3.927 --     4 C    1.431    18 C    1.304     2 O    1.047
     4   6 C    3.982 --     3 C    1.431     5 C    1.329    22 H    0.965
                            17 C    0.102
     5   6 C    3.982 --     4 C    1.329     6 C    1.261     9 C    1.208
     6   6 C    3.954 --    17 C    1.343     5 C    1.261     7 N    1.120
     7   7 N    3.623 --     8 C    1.157     6 C    1.120    10 C    1.078
     8   6 C    3.951 --     9 C    1.632     7 N    1.157    23 H    0.967
     9   6 C    3.970 --     8 C    1.632     5 C    1.208    24 H    0.973
    10   6 C    3.969 --    11 N    1.373    16 C    1.340     7 N    1.078
    11   7 N    3.055 --    12 C    1.441    10 C    1.373
    12   6 C    3.981 --    11 N    1.441    13 C    1.400    25 H    0.962
                            16 C    0.109
    13   6 C    3.972 --    12 C    1.400    15 C    1.390    14 C    1.027
    14   6 C    3.995 --    13 C    1.027    26 H    0.984    28 H    0.979
                            27 H    0.967
    15   6 C    3.990 --    16 C    1.474    13 C    1.390    29 H    0.969
    16   6 C    3.987 --    15 C    1.474    10 C    1.340    30 H    0.964
                            12 C    0.109
    17   6 C    3.987 --    18 C    1.501     6 C    1.343    31 H    0.964
                             4 C    0.102
    18   6 C    3.985 --    17 C    1.501     3 C    1.304    32 H    0.969
    19   1 H    0.998 --     1 C    0.977
    20   1 H    0.998 --     1 C    0.976
    21   1 H    0.996 --     1 C    0.980
    22   1 H    0.998 --     4 C    0.965
    23   1 H    0.996 --     8 C    0.967
    24   1 H    0.998 --     9 C    0.973
    25   1 H    0.998 --    12 C    0.962
    26   1 H    0.997 --    14 C    0.984
    27   1 H    0.996 --    14 C    0.967
    28   1 H    0.997 --    14 C    0.979
    29   1 H    0.998 --    15 C    0.969
    30   1 H    0.998 --    16 C    0.964
    31   1 H    0.998 --    17 C    0.964
    32   1 H    0.997 --    18 C    0.969
 ---------------------------------------------------------------------------

Topologies differ in total number of bonds
Writing topology from bond orders to xtbtopo.mol

molecular dipole:
                 x           y           z       tot (Debye)
 q only:        0.450       0.092       0.197
   full:        0.617      -0.042       0.426       1.910
molecular quadrupole (traceless):
                xx          xy          yy          xz          yz          zz
 q only:       12.976      -6.668      -5.911       1.958      -0.212      -7.066
  q+dip:       17.154      -9.574      -6.706       3.233      -2.245     -10.448
   full:       15.878      -9.272      -7.096       3.811       0.818      -8.783

           -------------------------------------------------
          |                Geometry Summary                 |
           -------------------------------------------------

      molecular mass/u    :      238.2850203
   center of mass at/Å    :       -0.1128012       0.0609376      -0.1142993
  moments of inertia/u·Å² :        0.3706083E+03   0.2600283E+04   0.2925810E+04
rotational constants/cm⁻¹ :        0.4548639E-01   0.6482999E-02   0.5761698E-02

 * 33 selected distances

     #   Z          #   Z                                           value/Å
     1   6 C        2   8 O                                       1.4044249
     2   8 O        3   6 C                                       1.3681051
     3   6 C        4   6 C                                       1.3817391
     4   6 C        5   6 C                                       1.3946809
     5   6 C        6   6 C                                       1.4136867
     6   6 C        7   7 N                                       1.3812916
     7   7 N        8   6 C                                       1.3762726
     5   6 C        9   6 C                                       1.4253856 (max)
     8   6 C        9   6 C                                       1.3562269
     7   7 N       10   6 C                                       1.3879914
    10   6 C       11   7 N                                       1.3287104
    11   7 N       12   6 C                                       1.3188581
    12   6 C       13   6 C                                       1.3891404
    13   6 C       15   6 C                                       1.3930629
    10   6 C       16   6 C                                       1.3973406
    15   6 C       16   6 C                                       1.3800828
     6   6 C       17   6 C                                       1.3902577
     3   6 C       18   6 C                                       1.4055283
    17   6 C       18   6 C                                       1.3757386
     1   6 C       19   1 H                                       1.0953807
     1   6 C       20   1 H                                       1.0953259
     1   6 C       21   1 H                                       1.0891297
     4   6 C       22   1 H                                       1.0782238
     8   6 C       23   1 H                                       1.0720655
     9   6 C       24   1 H                                       1.0718584 (min)
    12   6 C       25   1 H                                       1.0824988
    14   6 C       26   1 H                                       1.0871909
    14   6 C       27   1 H                                       1.0905522
    14   6 C       28   1 H                                       1.0881551
    15   6 C       29   1 H                                       1.0813908
    16   6 C       30   1 H                                       1.0772884
    17   6 C       31   1 H                                       1.0785475
    18   6 C       32   1 H                                       1.0783041

 * 4 distinct bonds (by element types)

   Z      Z             #   av. dist./Å        max./Å        min./Å
   1 H    6 C          14     1.0832794     1.0953807     1.0718584
   6 C    6 C          12     1.3919059     1.4253856     1.3562269
   6 C    7 N           5     1.3586248     1.3879914     1.3188581
   6 C    8 O           2     1.3862650     1.4044249     1.3681051


optimized geometry written to: xtbopt.xyz


           -------------------------------------------------
          | TOTAL ENERGY              -49.189065217310 Eh   |
          | GRADIENT NORM               0.000663705761 Eh/α |
          | HOMO-LUMO GAP               2.928366362531 eV   |
           -------------------------------------------------

------------------------------------------------------------------------
 * finished run on 2022/03/17 at 02:20:12.303     
------------------------------------------------------------------------
 total:
 * wall-time:     0 d,  0 h,  0 min,  5.796 sec
 *  cpu-time:     0 d,  0 h,  3 min,  1.855 sec
 * ratio c/w:    31.374 speedup
 SCF:
 * wall-time:     0 d,  0 h,  0 min,  0.253 sec
 *  cpu-time:     0 d,  0 h,  0 min,  7.568 sec
 * ratio c/w:    29.944 speedup
 ANC optimizer:
 * wall-time:     0 d,  0 h,  0 min,  5.427 sec
 *  cpu-time:     0 d,  0 h,  2 min, 50.627 sec
 * ratio c/w:    31.443 speedup

