32
 energy: -49.179901734844 gnorm: 0.080379970870 xtb: 6.3.3 (4ae9cef)
C        -5.84938900000000   -0.32423700000000    0.59091000000000
O        -4.73517400000000   -1.20108800000000    0.69971300000000
C        -3.51084700000000   -0.68892600000000    0.36486100000000
C        -3.26563900000000    0.59983600000000   -0.11224600000000
C        -1.94568900000000    0.99881700000000   -0.42522700000000
C        -0.87907000000000    0.11067700000000   -0.21541300000000
N         0.29825900000000    0.78903100000000   -0.55597100000000
C        -0.05956800000000    2.00558600000000   -1.11605200000000
C        -1.41342200000000    2.18426900000000   -0.98812200000000
C         1.66671800000000    0.39106500000000   -0.39434600000000
N         2.59344000000000    1.05272100000000   -1.13950000000000
C         3.88984300000000    0.69549300000000   -1.00125900000000
C         4.33563800000000   -0.29507200000000   -0.13890300000000
C         5.79054000000000   -0.61290200000000   -0.00890800000000
C         3.37901200000000   -0.92649800000000    0.65292400000000
C         2.03122000000000   -0.58258700000000    0.52851100000000
C        -1.13406300000000   -1.20701800000000    0.21162900000000
C        -2.45139800000000   -1.57893400000000    0.50681700000000
H        -5.73604900000000    0.54357600000000    1.24912100000000
H        -6.00816100000000   -0.01595800000000   -0.44771200000000
H        -6.73915700000000   -0.87297600000000    0.91441500000000
H        -4.06550200000000    1.31229200000000   -0.27552000000000
H         0.70224700000000    2.66744600000000   -1.50794500000000
H        -1.96456100000000    3.06279600000000   -1.29653700000000
H         4.58193100000000    1.25333900000000   -1.62692200000000
H         6.31056800000000   -0.45985200000000   -0.96044200000000
H         6.24869000000000    0.02741200000000    0.75113400000000
H         5.93729800000000   -1.65996100000000    0.27634700000000
H         3.67418200000000   -1.67803200000000    1.38151100000000
H         1.32171700000000   -1.04311700000000    1.20261200000000
H        -0.35218100000000   -1.95364600000000    0.29083500000000
H        -2.65143300000000   -2.59355100000000    0.84588100000000
32
 energy: -49.186943414335 gnorm: 0.032335132710 xtb: 6.3.3 (4ae9cef)
C        -5.83869807105397   -0.32050751883598    0.58784303954724
O        -4.71917617705804   -1.17672878706617    0.69287849421296
C        -3.49194303544280   -0.67158844330694    0.35577033806963
C        -3.25469335925712    0.60507393966982   -0.12516473256299
C        -1.93990377036032    0.98633078002949   -0.42732276274042
C        -0.86227399800275    0.10200539608952   -0.20276348054727
N         0.30900668174531    0.76442379610398   -0.56747323207611
C        -0.05044375546609    1.99686207097070   -1.08067120299711
C        -1.39798998919994    2.17193508671531   -0.99086711760028
C         1.65286206295661    0.37184824128724   -0.40180013620653
N         2.56166946707797    1.02305639458000   -1.14067767219494
C         3.84404105401942    0.69347221462967   -0.99950731179314
C         4.31355227910177   -0.28692736129006   -0.13567589845837
C         5.77268790728315   -0.60803779817775   -0.01834193632026
C         3.36374811361854   -0.92168489970160    0.65696993433838
C         2.02378555059999   -0.58774293904312    0.53518913970072
C        -1.11713138088370   -1.20001977852300    0.22536116466445
C        -2.42353374538069   -1.56483782250041    0.50103670158940
H        -5.72743061381321    0.55354867039546    1.23594709524814
H        -5.99776022586141   -0.00432144681675   -0.44709558201953
H        -6.70649430818498   -0.89626371573514    0.91748466282769
H        -4.05304491804363    1.31412372335811   -0.28723579667891
H         0.70777982742732    2.65458959154406   -1.46238347077932
H        -1.94440181915546    3.04437789704334   -1.30175131289062
H         4.52700072588415    1.25654736653947   -1.62501824463610
H         6.29195053568889   -0.44389487214887   -0.96248463132054
H         6.23705822908206    0.02659104518859    0.73751236265132
H         5.92181267684401   -1.64678136243787    0.27836103303890
H         3.66572537718296   -1.67096616376318    1.37719887147059
H         1.30728234036070   -1.04741017346020    1.19566797809334
H        -0.34067310542647   -1.94476453942258    0.30230014774428
H        -2.63437055628224   -2.57230759191516    0.83290955862540
32
 energy: -49.188445010693 gnorm: 0.006823390365 xtb: 6.3.3 (4ae9cef)
C        -5.82205637301914   -0.31702259985622    0.58304941089136
O        -4.70340744808659   -1.16346495625610    0.68882461094511
C        -3.47611462899985   -0.66301011092891    0.34802385452635
C        -3.24440062346026    0.60794178275956   -0.13862978905438
C        -1.93270027438180    0.97851440216424   -0.43248707755176
C        -0.85127800157263    0.09446038077597   -0.20236819174189
N         0.31479033437712    0.74956351053197   -0.56916678391349
C        -0.03897517300755    1.98696753379502   -1.06408410696586
C        -1.37982140763103    2.16854046565053   -0.98673762246309
C         1.63786686246641    0.36356943269665   -0.39142008575554
N         2.53460020687019    0.99978712338570   -1.13732824678482
C         3.80838424408110    0.68647590704157   -1.00608668074849
C         4.29470311465465   -0.28398508628516   -0.13735787920470
C         5.75495193842582   -0.59862931291777   -0.02769046696467
C         3.35104847863969   -0.92233350611898    0.66145085867380
C         2.01451891839380   -0.59427319087499    0.55102832690640
C        -1.10622356605199   -1.20259465001712    0.22316528693566
C        -2.40552218538213   -1.56113389970686    0.49645565681028
H        -5.71880869408565    0.56365823431847    1.22463570392290
H        -5.98827378434866    0.00258241608780   -0.45028463484776
H        -6.67370333008117   -0.90926842277409    0.91745068666796
H        -4.04198817135611    1.31424838371560   -0.30516771283155
H         0.72455172733873    2.64433163845085   -1.42726106693193
H        -1.92210892072244    3.04190203420284   -1.28905717705541
H         4.48466670596821    1.25319377107962   -1.63414863177099
H         6.26505252345099   -0.42693911243214   -0.97225261935740
H         6.22019800703946    0.03724728245607    0.72618096489297
H         5.90257111055907   -1.63381402310857    0.27269144144376
H         3.66322226742461   -1.66438267861442    1.38196522809477
H         1.29265030249251   -1.04837132315220    1.20635323987363
H        -0.32873455260810   -1.94257748899179    0.31552139085935
H        -2.62965960738720   -2.56118293707723    0.83092811249942
32
 energy: -49.188606920040 gnorm: 0.003653319692 xtb: 6.3.3 (4ae9cef)
C        -5.81708271469388   -0.31638458396261    0.57959575215243
O        -4.70035530586705   -1.16269903260368    0.68615633139186
C        -3.47402241585959   -0.66360602213943    0.34291543448520
C        -3.24319256459157    0.60779242656124   -0.14540799692356
C        -1.93092598203910    0.97820487878926   -0.43428924438850
C        -0.85164579812667    0.09302907461159   -0.20153344514798
N         0.31373546437093    0.74540242247997   -0.56572803827377
C        -0.03304754079648    1.98688828223260   -1.05396104229889
C        -1.37371080859993    2.17064104095621   -0.98223037029142
C         1.63252556039591    0.35574878258482   -0.38836156436605
N         2.52697607084079    0.98940927731144   -1.14040509157884
C         3.80203019074791    0.68319501065031   -1.01064634029105
C         4.29067033796786   -0.28231508079853   -0.13776709772553
C         5.75037490930183   -0.59358142714983   -0.03273866008864
C         3.35037994164795   -0.91954767476086    0.66745451166014
C         2.01259407808772   -0.59772752479382    0.55965308402480
C        -1.10546658683117   -1.20536009279426    0.22412558184392
C        -2.40532595697278   -1.56328312103780    0.49599554292879
H        -5.71435486444204    0.56691678863504    1.21867409721068
H        -5.98529155641888    0.00222329341712   -0.45426559070685
H        -6.66709802145974   -0.90816336956609    0.91614117206110
H        -4.04062977494131    1.31322817266603   -0.31606205214902
H         0.73665666043522    2.64440632565867   -1.40623985834997
H        -1.91492879608091    3.04568686087530   -1.28172577222923
H         4.47509120271506    1.24334937712059   -1.64824830419614
H         6.25431340047988   -0.41977630898994   -0.98020279125834
H         6.21527216057866    0.04503591855176    0.71935829862620
H         5.90015397555802   -1.62849268494455    0.26689068223235
H         3.66788045555913   -1.65930511365108    1.38873680996699
H         1.29063770884124   -1.04480861675224    1.21999083979359
H        -0.32678517584204   -1.94480674373854    0.31758661194356
H        -2.63542825396486   -2.56129953541883    0.83273450994211
32
 energy: -49.188714029991 gnorm: 0.003355954784 xtb: 6.3.3 (4ae9cef)
C        -5.81402723471965   -0.31609644762221    0.57299217240095
O        -4.69941373866414   -1.16308283353699    0.68049156887694
C        -3.47370778123355   -0.66498303842427    0.33611091480444
C        -3.24374187816870    0.60697733602857   -0.15360197890675
C        -1.93014340860963    0.97843619959526   -0.43571797329799
C        -0.85431825506561    0.09137759263801   -0.20044638316166
N         0.31170735644992    0.74247236811627   -0.55608860962079
C        -0.02691282570000    1.98784681569655   -1.03881147838908
C        -1.36765163445616    2.17428447744474   -0.97297572486366
C         1.62826225096855    0.34861738107249   -0.38001543471510
N         2.51862237187171    0.97445601479286   -1.14616544436004
C         3.79529494712589    0.67131223243264   -1.02302469555550
C         4.28725496460749   -0.28395539662458   -0.14125368986272
C         5.74760127587063   -0.58753673017414   -0.04072205596873
C         3.35255423225970   -0.91540564430141    0.67606765479940
C         2.01344986140787   -0.59797890188863    0.57458336741995
C        -1.10656758356697   -1.20912522511052    0.22396195704824
C        -2.40757466728763   -1.56628055802239    0.49423269309656
H        -5.70931138002978    0.57029318219759    1.20847719137349
H        -5.98377915151313    0.00016525015423   -0.46188381366842
H        -6.66460152579405   -0.90419696036671    0.91292776479264
H        -4.04129048389894    1.31078920163253   -0.33033383175634
H         0.75047282697381    2.64469202625033   -1.37740756673599
H        -1.90744319159569    3.05214228571183   -1.26783300665314
H         4.46423685194632    1.22605690383158   -1.66969288943190
H         6.24455699839042   -0.41196103042990   -0.99174629335805
H         6.21189486527010    0.05590064734493    0.70787619558590
H         5.90443564817595   -1.62135050025582    0.25898044551915
H         3.67789930872940   -1.64793766282066    1.40221433217827
H         1.29231558647791   -1.03705587835710    1.24194582737914
H        -0.32578804493980   -1.94689467084986    0.31906775801561
H        -2.64428656128205   -2.56197743615546    0.83398702701515
32
 energy: -49.188767958756 gnorm: 0.003338227740 xtb: 6.3.3 (4ae9cef)
C        -5.81483713559925   -0.31613135179234    0.56644487859212
O        -4.70133157556126   -1.16424948105795    0.67433947329076
C        -3.47514598067715   -0.66616838189092    0.33143769880642
C        -3.24522212954467    0.60604181069469   -0.15779575269302
C        -1.93054610852559    0.97890487300776   -0.43474316637349
C        -0.85659554803143    0.09075584051784   -0.19787795562982
N         0.31081778327030    0.74196197116835   -0.54707135415044
C        -0.02434550451566    1.98971272997765   -1.02604278928812
C        -1.36535844632350    2.17671683438905   -0.96449221230591
C         1.62750336732817    0.34448964434768   -0.37522213799521
N         2.51435427175709    0.96417601788350   -1.15098427745593
C         3.79184552980479    0.66173674223931   -1.03170367672976
C         4.28685868816155   -0.28569466992226   -0.14355630016407
C         5.74835317806575   -0.58479939294201   -0.04702635584525
C         3.35610755747156   -0.91124338794368    0.68268196616306
C         2.01626896291758   -0.59556794033092    0.58431553824054
C        -1.10812058760365   -1.21055614198558    0.22531891615571
C        -2.40987109274441   -1.56772004780525    0.49287957518412
H        -5.70743927278350    0.57198477894297    1.19933923205599
H        -5.98560701022616   -0.00237225151068   -0.46916749050055
H        -6.66667890917109   -0.90089720638669    0.90934018864537
H        -4.04293265414035    1.30866043862083   -0.33825192904073
H         0.75637267423049    2.64574286406682   -1.35785797973925
H        -1.90429248252472    3.05596635369724   -1.25711929500747
H         4.45722828693787    1.20900523400031   -1.68833693100402
H         6.24158341488724   -0.40786322460254   -0.99991043025504
H         6.21250944673800    0.06108324978093    0.69952287922936
H         5.91105717519976   -1.61779773331494    0.25255055987677
H         3.68610630374451   -1.63745569378803    1.41329883774889
H         1.29643641152075   -1.02930001632944    1.25705998660187
H        -0.32576405779004   -1.94654808126981    0.32158451420643
H        -2.64931455627272   -2.56257338046222    0.83324178938061
32
 energy: -49.188832890054 gnorm: 0.002338989324 xtb: 6.3.3 (4ae9cef)
C        -5.81806246372403   -0.31652981017402    0.55609987496940
O        -4.70571261341146   -1.16667539062044    0.66393026021828
C        -3.47796467659528   -0.66794301369009    0.32560566450511
C        -3.24738400204102    0.60456586675142   -0.16152703356412
C        -1.93147853720314    0.97956864334000   -0.43168792865474
C        -0.85890232273598    0.09066658079508   -0.19252209171849
N         0.31050049981344    0.74336844005135   -0.53349278545597
C        -0.02273155507804    1.99300090127367   -1.00883388334067
C        -1.36415335274834    2.17936980969847   -0.95288505117985
C         1.62832108970458    0.34176823646810   -0.36909031215349
N         2.51006139736199    0.95132039159269   -1.15815447481365
C         3.78781415687437    0.64701852935061   -1.04477256048779
C         4.28772858359494   -0.28897080524353   -0.14742248332975
C         5.75099186994194   -0.58306570697919   -0.05559608338999
C         3.36184889182302   -0.90497076903639    0.69101222941766
C         2.02139008215123   -0.58960153766770    0.59616377054411
C        -1.11006769159252   -1.21087895765690    0.22945946446564
C        -2.41267839687689   -1.56893014948307    0.49140514282920
H        -5.70649914195583    0.57336754328911    1.18563434803913
H        -5.99068765057033   -0.00648608409055   -0.48028019342966
H        -6.67131964165043   -0.89731993291998    0.90347893053803
H        -4.04523305163882    1.30592349286478   -0.34580317461121
H         0.76011731675862    2.64901534155628   -1.33388035177795
H        -1.90201817288824    3.06001522227132   -1.24325416566685
H         4.44887678685332    1.18509144677643   -1.71304490919638
H         6.24068588567726   -0.40404435114541   -1.00998989254586
H         6.21497105161670    0.06464713278172    0.68936546025712
H         5.92038652420297   -1.61520961276140    0.24337063008699
H         3.69648287367253   -1.62249720649849    1.42791208156818
H         1.30383302043710   -1.01796373404025    1.27515596540030
H        -0.32559808433198   -1.94403048425672    0.32879475753132
H        -2.65351867544125   -2.56358903259743    0.83104479494588
32
 energy: -49.188884417483 gnorm: 0.001770031816 xtb: 6.3.3 (4ae9cef)
C        -5.82233206462258   -0.31773836248186    0.54291393817910
O        -4.71108648630413   -1.17019878054479    0.65003663757946
C        -3.48104926477610   -0.67009070895758    0.31964600724817
C        -3.24900515521103    0.60318883844574   -0.16344681353336
C        -1.93207906502698    0.98047414327485   -0.42608783438884
C        -0.85999399504090    0.09136949394827   -0.18441107191851
N         0.31089527765416    0.74619394923508   -0.51818111367734
C        -0.02183535827734    1.99698447840166   -0.99042911754609
C        -1.36355193632727    2.18221881830035   -0.93962033637158
C         1.62963980474064    0.34046015131460   -0.36305306172533
N         2.50560891913544    0.93749365400665   -1.16707141164433
C         3.78325411245236    0.63078161488473   -1.05976497843099
C         4.28914932104965   -0.29226376323859   -0.15221970162002
C         5.75386477934838   -0.58282192348766   -0.06520635964907
C         3.36833937661412   -0.89700057251552    0.69977616083923
C         2.02738692415900   -0.58113971780612    0.60870077227424
C        -1.11162902197643   -1.21008720677695    0.23621317137741
C        -2.41512757775021   -1.56999448521233    0.49014138339508
H        -5.70684131724469    0.57332013229629    1.16961660092527
H        -5.99709598966445   -0.01072603437128   -0.49386222341625
H        -6.67618916707429   -0.89563783835604    0.89448255212162
H        -4.04671263802542    1.30391227500391   -0.35045650580707
H         0.76162578959220    2.65458263690546   -1.30970225681856
H        -1.90023318776926    3.06413839178669   -1.22802472586940
H         4.43972641889918    1.15682517405727   -1.74218066238181
H         6.24049191836226   -0.40147824930695   -1.02064363419731
H         6.21802247394200    0.06543687399638    0.67908767891616
H         5.92792982009310   -1.61448304181441    0.23263430439878
H         3.70699757884419   -1.60457798836562    1.44414956750868
H         1.31320231614046   -1.00326411996683    1.29541647715611
H        -0.32535336089975   -1.94047415932585    0.34045886262639
H        -2.65601924503575   -2.56540267333024    0.82728369445009
32
 energy: -49.188922988327 gnorm: 0.001763064963 xtb: 6.3.3 (4ae9cef)
C        -5.82696200062903   -0.32114610883501    0.52518482123800
O        -4.71656305723323   -1.17567923780257    0.63102042693934
C        -3.48375764313313   -0.67286323272374    0.31334253075962
C        -3.24959908711878    0.60241330252751   -0.16264737604882
C        -1.93192040025454    0.98249995835135   -0.41623429816753
C        -0.85938750118649    0.09391913814418   -0.17216535688306
N         0.31190939651457    0.75120208412516   -0.50046764929910
C        -0.02128425780593    2.00238914738195   -0.97028415149631
C        -1.36323337492770    2.18637435628557   -0.92334340159467
C         1.63080245649329    0.34106924366016   -0.35608883205878
N         2.50011912813270    0.92128644837710   -1.17862000002777
C         3.77728872613597    0.61096327300635   -1.07901290439313
C         4.29034518702837   -0.29594025306213   -0.15901048118786
C         5.75580179317698   -0.58502228330908   -0.07689780793747
C         3.37539950423020   -0.88564469299129    0.71000971616569
C         2.03408759536738   -0.56862797552718    0.62407129610721
C        -1.11212949212141   -1.20760364522398    0.24641661002537
C        -2.41669259449354   -1.57090266787266    0.48931040957492
H        -5.70893232915444    0.56995548358494    1.15066487069684
H        -6.00328296601786   -0.01508859749648   -0.51145724464792
H        -6.68057628526755   -0.89794784142530    0.87899061127557
H        -4.04689823382436    1.30319441264863   -0.35135147069306
H         0.76114872669604    2.66323168076415   -1.28537923776635
H        -1.89877562455333    3.06933136999744   -1.21026876182118
H         4.42884169202370    1.12203432793040   -1.77742811668700
H         6.23969109921181   -0.40152925573520   -1.03308681879655
H         6.22102302828024    0.06236463109766    0.66752655558862
H         5.93170053884897   -1.61676936487329    0.21925196905920
H         3.71801080734838   -1.58161387886702    1.46316417934079
H         1.32463401137176   -0.98211914078933    1.32113918692875
H        -0.32447194463383   -1.93553739753223    0.35802225018278
H        -2.65633689850439   -2.56819228381698    0.82182447562377
32
 energy: -49.188943852205 gnorm: 0.001027321815 xtb: 6.3.3 (4ae9cef)
C        -5.82743409764923   -0.32528277827807    0.51708251208443
O        -4.71636902226142   -1.17890390475474    0.62329608235024
C        -3.48311898172948   -0.67368620680581    0.31256054487388
C        -3.24876213740320    0.60334870453963   -0.15924758597257
C        -1.93125059695463    0.98485823035807   -0.40979471033655
C        -0.85781735445818    0.09717909096323   -0.16576208095540
N         0.31240934446676    0.75480153239819   -0.49548413387019
C        -0.02148811318380    2.00538124360358   -0.96572082722207
C        -1.36351278289988    2.18921092561304   -0.91739935222973
C         1.63056045418776    0.34333187837942   -0.35366312667645
N         2.49799987411511    0.91659271231289   -1.18237643321047
C         3.77491183346504    0.60471690871738   -1.08526561059679
C         4.28968689070083   -0.29698257965881   -0.16174327164205
C         5.75440732884191   -0.58909254872187   -0.08149154957907
C         3.37659423788638   -0.88014018082604    0.71339061060939
C         2.03552108961539   -0.56184668812324    0.63015781005807
C        -1.11052011171459   -1.20475661539021    0.25166798674157
C        -2.41532068611753   -1.57028871842500    0.49034201762724
H        -5.71194402978589    0.56442178305549    1.14495527628326
H        -6.00183651777426   -0.01657664967611   -0.51915485327623
H        -6.68072964799093   -0.90424891190230    0.86739174648275
H        -4.04606391564518    1.30431401184653   -0.34766339221240
H         0.75934628681464    2.66756656827283   -1.28263771463016
H        -1.89923733217304    3.07195498892703   -1.20455933152224
H         4.42501211338735    1.10870708150655   -1.78980430675533
H         6.23795420826081   -0.40531088476739   -1.03775999407713
H         6.22153041421157    0.05605529134631    0.66376057607436
H         5.92771669323549   -1.62174071194100    0.21308624302673
H         3.72033777869513   -1.57205971205687    1.46959621226983
H         1.32788958443713   -0.97023303124158    1.33194274785378
H        -0.32289253394724   -1.93244431035613    0.36623031286203
H        -2.65358027063187   -2.56884551891602    0.82026359556717
32
 energy: -49.188967421206 gnorm: 0.000915441391 xtb: 6.3.3 (4ae9cef)
C        -5.82658943915060   -0.33261196862024    0.50869151343096
O        -4.71359360332555   -1.18322583242564    0.61721249740941
C        -3.48074688016824   -0.67397352977888    0.31390461088851
C        -3.24761648085730    0.60539603132151   -0.15322519216596
C        -1.93062083535087    0.98913086299829   -0.40185254748486
C        -0.85575290661667    0.10297193660724   -0.15876301486702
N         0.31273299736225    0.76054217011686   -0.49277484876806
C        -0.02247074837045    2.00989371030340   -0.96475913495193
C        -1.36466276958850    2.19340726134844   -0.91262458933781
C         1.63018296640778    0.34818070428280   -0.35149491593156
N         2.49682344010105    0.91408342890047   -1.18607454851600
C         3.77336387857962    0.59913127803832   -1.09149645407906
C         4.28797709945911   -0.29846629530686   -0.16418716567677
C         5.75125851671841   -0.59707444065904   -0.08584036558815
C         3.37578345297258   -0.87357211767455    0.71760308184340
C         2.03542695179817   -0.55264964269319    0.63673096427396
C        -1.10685075624234   -1.19975140517264    0.25723729815516
C        -2.41158984940503   -1.56830605781976    0.49277882248198
H        -5.71804419768365    0.55396816708393    1.14246560021209
H        -5.99527747194232   -0.01819978198002   -0.52693225010134
H        -6.68006590754970   -0.91649284588285    0.84999361531748
H        -4.04553174572848    1.30599940483555   -0.34058921358375
H         0.75624625890881    2.67273331645220   -1.28649444370694
H        -1.90136220858040    3.07544000800195   -1.20024647003981
H         4.42289384878425    1.09753047657127   -1.79990277339976
H         6.23509150022714   -0.41340839285052   -1.04201633570227
H         6.22192390595236    0.04382642174800    0.66090400566476
H         5.91931355799903   -1.63147541765687    0.20603267470870
H         3.71988057808368   -1.56279801483842    1.47610128486949
H         1.32859400825079   -0.95475548564109    1.34279761772255
H        -0.31897264800971   -1.92708690747555    0.37322933098123
H        -2.64774451303411   -2.56838604213526    0.81978734594127
32
 energy: -49.188988115940 gnorm: 0.001372985255 xtb: 6.3.3 (4ae9cef)
C        -5.82526506570795   -0.34163513044605    0.50019532374796
O        -4.70939952959419   -1.18755594436902    0.61406837095167
C        -3.47730532715491   -0.67351408695359    0.31699484779911
C        -3.24654269352546    0.60776134517053   -0.14661158181426
C        -1.93024714769351    0.99422930574722   -0.39448733853740
C        -0.85389538655024    0.10961602023841   -0.15275666613822
N         0.31301179088291    0.76722810855463   -0.49129306905327
C        -0.02393429620864    2.01542922075894   -0.96481263206742
C        -1.36621109941879    2.19831492299302   -0.90852177325754
C         1.63002100639444    0.35405762861843   -0.35004759379763
N         2.49637655475155    0.91335570751210   -1.18885041350215
C         3.77235883957567    0.59521090715491   -1.09528107637195
C         4.28562884252376   -0.30039633421027   -0.16574974763396
C         5.74734883356982   -0.60733508206271   -0.09042429642459
C         3.37377325411420   -0.86745428624426    0.72158067015476
C         2.03460832042927   -0.54212134966046    0.64298951743918
C        -1.10220537944819   -1.19391605102010    0.26224668745878
C        -2.40637951314725   -1.56541634806834    0.49647184209245
H        -5.72718726114441    0.54132091590801    1.14110759991677
H        -5.98526084458602   -0.02087817094770   -0.53497407913791
H        -6.67940111914452   -0.93186736651322    0.82893896926824
H        -4.04573462157333    1.30714374153722   -0.33302891333001
H         0.75304674432178    2.67805827942164   -1.29158637755628
H        -1.90430028582785    3.07952401953772   -1.19616362486342
H         4.42142992705385    1.08569550987888   -1.81034275031708
H         6.23121889309699   -0.42241619597665   -1.04640166027470
H         6.22255407624344    0.02730635432324    0.65878878465385
H         5.90964385468351   -1.64410813177817    0.19662655335183
H         3.71814424409431   -1.55288029838826    1.48369392161504
H         1.32782882301692   -0.93619710220524    1.35377238042706
H        -0.31313079348206   -1.91994552305523    0.37855488689281
H        -2.64059364054384   -2.56661358545689    0.82149923830817
32
 energy: -49.189007829244 gnorm: 0.001407492248 xtb: 6.3.3 (4ae9cef)
C        -5.82360473865146   -0.35133734193925    0.49176111632125
O        -4.70435108514177   -1.19139429319911    0.61388923402997
C        -3.47334061524308   -0.67274760097491    0.32040563985973
C        -3.24565959179533    0.60980982227081   -0.14119110456910
C        -1.93012472467933    0.99935335260071   -0.38897401977072
C        -0.85242042167998    0.11637888904639   -0.14798679489224
N         0.31318087962242    0.77454100987271   -0.48955717235218
C        -0.02547044747639    2.02185310756942   -0.96402507350707
C        -1.36789320129305    2.20354276048456   -0.90506690721758
C         1.62997390763161    0.36093001205498   -0.34796693030270
N         2.49608373350341    0.91247358592370   -1.19222753875397
C         3.77110327803095    0.58900885133071   -1.10106954523960
C         4.28288023922606   -0.30373482226474   -0.16780641796599
C         5.74307087462784   -0.61878791189553   -0.09589706781436
C         3.37147210869490   -0.86043586507207    0.72706307108156
C         2.03364297850998   -0.53000765019858    0.65040228176768
C        -1.09718553706693   -1.18787335517255    0.26693332147006
C        -2.40051884260298   -1.56227796038866    0.50076378808785
H        -5.73824007804100    0.52849478360175    1.13912601549293
H        -5.97333785898692   -0.02535779654638   -0.54335146939831
H        -6.67833974718412   -0.94836611322818    0.80679785489584
H        -4.04654808947121    1.30744840518628   -0.32668032714733
H         0.75069663481691    2.68410519844916   -1.29369349086927
H        -1.90753472888326    3.08396042464621   -1.19230731832160
H         4.42035508924624    1.07556030115577   -1.81765272469050
H         6.22642518101241   -0.43187963560293   -1.05172715299241
H         6.22293709563558    0.00921089157248    0.65593048371691
H         5.89987064863348   -1.65799365992168    0.18561405005926
H         3.71571812660090   -1.54296113119003    1.49170924270012
H         1.32650119593488   -0.91578953046647    1.36538572712788
H        -0.30603932707081   -1.91175110047412    0.38239122331948
H        -2.63330293645852   -2.56397462723185    0.82520400587431
32
 energy: -49.189026346961 gnorm: 0.000875267232 xtb: 6.3.3 (4ae9cef)
C        -5.82222653505591   -0.36116399356513    0.48321315748090
O        -4.69925172374148   -1.19457092465254    0.61631221142713
C        -3.46948349519060   -0.67194131312897    0.32369963490905
C        -3.24511480291298    0.61115463086384   -0.13755070317580
C        -1.93029618436177    1.00399757331415   -0.38561716953426
C        -0.85140592273558    0.12273138455431   -0.14473747953107
N         0.31328220364371    0.78245844368505   -0.48648815500273
C        -0.02706918231876    2.02920270652158   -0.96110366462606
C        -1.36983040461631    2.20886574102008   -0.90175290844083
C         1.63023164855931    0.36813412624696   -0.34535819471806
N         2.49583142589662    0.91195869978593   -1.19510252845463
C         3.76992767727531    0.58356857009543   -1.10524788285971
C         4.28022745528182   -0.30710957056651   -0.16913671371280
C         5.73886054603625   -0.63089661389783   -0.10234255019494
C         3.36958505160634   -0.85336537276315    0.73300361614442
C         2.03316494726425   -0.51698797646239    0.65837828172380