      -----------------------------------------------------------      
     |                   =====================                   |     
     |                           x T B                           |     
     |                   =====================                   |     
     |                         S. Grimme                         |     
     |          Mulliken Center for Theoretical Chemistry        |     
     |                    University of Bonn                     |     
      -----------------------------------------------------------      

   * xtb version 6.3.3 (4ae9cef) compiled by 'conda@95abc7406d43' on 2020-10-14

   xtb is free software: you can redistribute it and/or modify it under
   the terms of the GNU Lesser General Public License as published by
   the Free Software Foundation, either version 3 of the License, or
   (at your option) any later version.
   
   xtb is distributed in the hope that it will be useful,
   but WITHOUT ANY WARRANTY; without even the implied warranty of
   MERCHANTABILITY or FITNESS FOR A PARTICULAR PURPOSE.  See the
   GNU Lesser General Public License for more details.
   
   Cite this work as:
   * C. Bannwarth, E. Caldeweyher, S. Ehlert, A. Hansen, P. Pracht,
     J. Seibert, S. Spicher, S. Grimme, WIREs Comput. Mol. Sci., 2020,
     e01493. DOI: 10.1002/wcms.1493
   
   for GFN2-xTB:
   * S. Grimme, C. Bannwarth, P. Shushkov, J. Chem. Theory Comput., 2017,
     13, 1989-2009. DOI: 10.1021/acs.jctc.7b00118
   for GFN1-xTB:
   * C. Bannwarth, S. Ehlert and S. Grimme., J. Chem. Theory Comput., 2019,
     15, 1652-1671. DOI: 10.1021/acs.jctc.8b01176
   for GFN0-xTB:
   * P. Pracht, E. Caldeweyher, S. Ehlert, S. Grimme, ChemRxiv, 2019, preprint.
     DOI: 10.26434/chemrxiv.8326202.v1
   for GFN-FF:
   * S. Spicher and S. Grimme, Angew. Chem. Int. Ed., 2020, 59, 15665-15673.
     DOI: 10.1002/anie.202004239
   
   for DFT-D4:
   * E. Caldeweyher, C. Bannwarth and S. Grimme, J. Chem. Phys., 2017,
     147, 034112. DOI: 10.1063/1.4993215
   * E. Caldeweyher, S. Ehlert, A. Hansen, H. Neugebauer, S. Spicher,
     C. Bannwarth and S. Grimme, J. Chem. Phys., 2019, 150, 154122.
     DOI: 10.1063/1.5090222
   * E. Caldeweyher, J.-M. Mewes, S. Ehlert and S. Grimme, Phys. Chem. Chem. Phys.
     2020, 22, 8499-8512. DOI: 10.1039/D0CP00502A
   
   for sTDA-xTB:
   * S. Grimme and C. Bannwarth, J. Chem. Phys., 2016, 145, 054103.
     DOI: 10.1063/1.4959605
   
   in the mass-spec context:
   * V. Asgeirsson, C. Bauer and S. Grimme, Chem. Sci., 2017, 8, 4879.
     DOI: 10.1039/c7sc00601b
   * J. Koopman and S. Grimme, ACS Omega 2019, 4, 12, 15120-15133.
     DOI: 10.1021/acsomega.9b02011
   
   for metadynamics refer to:
   * S. Grimme, J. Chem. Theory Comput., 2019, 155, 2847-2862
     DOI: 10.1021/acs.jctc.9b00143
   
   with help from (in alphabetical order)
   C. Bannwarth, F. Bohle, G. Brandenburg, E. Caldeweyher, M. Checinski,
   S. Dohm, S. Ehlert, S. Ehrlich, F. März, H. Neugebauer, J. Pisarek,
   P. Pracht, P. Shushkov, and S. Spicher.
   
 * started run on 2022/03/17 at 01:50:30.072     

           -------------------------------------------------
          |                Calculation Setup                |
           -------------------------------------------------

          program call               : xtb acid_56.xyz --opt --chrg 0 --uhf 0 --gfn 2
          coordinate file            : acid_56.xyz
          omp threads                :                    64
          number of atoms            :                    62
          number of electrons        :                   194
          charge                     :                     0
          spin                       :                   0.0
          first test random number   :      0.27375159350036

   ID    Z sym.   atoms
    1    6 C      1, 3-16, 18, 20-24, 27, 28, 32-36
    2    8 O      2, 17, 25, 26, 29, 30, 37, 38
    3    7 N      19, 31
    4    1 H      39-62

           -------------------------------------------------
          |                 G F N 2 - x T B                 |
           -------------------------------------------------

        Reference                      10.1021/acs.jctc.8b01176
      * Hamiltonian:
        H0-scaling (s, p, d)           1.850000    2.230000    2.230000
        zeta-weighting                 0.500000
      * Dispersion:
        s8                             2.700000
        a1                             0.520000
        a2                             5.000000
        s9                             5.000000
      * Repulsion:
        kExp                           1.500000    1.000000
        rExp                           1.000000
      * Coulomb:
        alpha                          2.000000
        third order                    shell-resolved
        anisotropic                    true
        a3                             3.000000
        a5                             4.000000
        cn-shift                       1.200000
        cn-exp                         4.000000
        max-rad                        5.000000


          ...................................................
          :                      SETUP                      :
          :.................................................:
          :  # basis functions                 176          :
          :  # atomic orbitals                 176          :
          :  # shells                          100          :
          :  # electrons                       194          :
          :  max. iterations                   250          :
          :  Hamiltonian                  GFN2-xTB          :
          :  restarted?                      false          :
          :  GBSA solvation                  false          :
          :  PC potential                    false          :
          :  electronic temp.          300.0000000     K    :
          :  accuracy                    1.0000000          :
          :  -> integral cutoff          0.2500000E+02      :
          :  -> integral neglect         0.1000000E-07      :
          :  -> SCF convergence          0.1000000E-05 Eh   :
          :  -> wf. convergence          0.1000000E-03 e    :
          :  Broyden damping             0.4000000          :
          ...................................................

 iter      E             dE          RMSdq      gap      omega  full diag
   1   -111.7608375 -0.111761E+03  0.464E+00    2.83       0.0  T
   2   -111.8991076 -0.138270E+00  0.271E+00    2.85       1.0  T
   3   -111.8862698  0.128378E-01  0.131E+00    2.46       1.0  T
   4   -111.9210336 -0.347638E-01  0.361E-01    2.49       1.0  T
   5   -111.9264102 -0.537659E-02  0.105E-01    2.51       1.0  T
   6   -111.9266626 -0.252383E-03  0.509E-02    2.52       1.0  T
   7   -111.9266960 -0.333863E-04  0.247E-02    2.52       1.0  T
   8   -111.9267028 -0.684826E-05  0.102E-02    2.52       1.2  T
   9   -111.9267066 -0.376614E-05  0.399E-03    2.52       3.2  T
  10   -111.9267069 -0.363372E-06  0.163E-03    2.52       7.8  T
  11   -111.9267070 -0.426854E-07  0.817E-04    2.52      15.6  T
  12   -111.9267070 -0.713361E-08  0.350E-04    2.52      36.3  T

   *** convergence criteria satisfied after 12 iterations ***

         #    Occupation            Energy/Eh            Energy/eV
      -------------------------------------------------------------
         1        2.0000           -0.7641215             -20.7928
       ...           ...                  ...                  ...
        91        2.0000           -0.4068006             -11.0696
        92        2.0000           -0.4062487             -11.0546
        93        2.0000           -0.4026661             -10.9571
        94        2.0000           -0.3983541             -10.8398
        95        2.0000           -0.3950167             -10.7490
        96        2.0000           -0.3876373             -10.5481
        97        2.0000           -0.3835660             -10.4374 (HOMO)
        98                         -0.2909554              -7.9173 (LUMO)
        99                         -0.2621773              -7.1342
       100                         -0.2464544              -6.7064
       101                         -0.2429549              -6.6111
       102                         -0.2363088              -6.4303
       ...                                ...                  ...
       176                          0.6795561              18.4917
      -------------------------------------------------------------
                  HL-Gap            0.0926106 Eh            2.5201 eV
             Fermi-level           -0.3372607 Eh           -9.1773 eV

 SCC (total)                   0 d,  0 h,  0 min,  0.437 sec
 SCC setup                      ...        0 min,  0.014 sec (  3.199%)
 Dispersion                     ...        0 min,  0.014 sec (  3.178%)
 classical contributions        ...        0 min,  0.014 sec (  3.147%)
 integral evaluation            ...        0 min,  0.084 sec ( 19.132%)
 iterations                     ...        0 min,  0.169 sec ( 38.588%)
 molecular gradient             ...        0 min,  0.142 sec ( 32.392%)
 printout                       ...        0 min,  0.002 sec (  0.348%)

         :::::::::::::::::::::::::::::::::::::::::::::::::::::
         ::                     SUMMARY                     ::
         :::::::::::::::::::::::::::::::::::::::::::::::::::::
         :: total energy            -110.593560923308 Eh    ::
         :: gradient norm              0.112770790088 Eh/a0 ::
         :: HOMO-LUMO gap              2.520062897495 eV    ::
         ::.................................................::
         :: SCC energy              -111.926706977615 Eh    ::
         :: -> isotropic ES            0.168147071956 Eh    ::
         :: -> anisotropic ES          0.000731484699 Eh    ::
         :: -> anisotropic XC          0.028830416044 Eh    ::
         :: -> dispersion             -0.082601018295 Eh    ::
         :: repulsion energy           1.330169138364 Eh    ::
         :: add. restraining           0.000000000000 Eh    ::
         :: total charge              -0.000000000000 e     ::
         :::::::::::::::::::::::::::::::::::::::::::::::::::::

      ----------------------------------------------------------- 
     |                   =====================                   |
     |                        A N C O P T                        |
     |                   =====================                   |
     |               Approximate Normal Coordinate               |
     |                Rational Function Optimizer                |
      ----------------------------------------------------------- 

          ...................................................
          :                      SETUP                      :
          :.................................................:
          :   optimization level            normal          :
          :   max. optcycles                   200          :
          :   ANC micro-cycles                  20          :
          :   degrees of freedom               180          :
          :.................................................:
          :   RF solver                   davidson          :
          :   write xtbopt.log                true          :
          :   linear?                        false          :
          :   energy convergence         0.5000000E-05 Eh   :
          :   grad. convergence          0.1000000E-02 Eh/α :
          :   maximium RF displ.         1.0000000          :
          :   Hlow (freq-cutoff)         0.1000000E-01      :
          :   Hmax (freq-cutoff)         5.0000000          :
          :   S6 in model hess.         20.0000000          :
          ...................................................

generating ANC from model Hessian ...
Using Lindh-Hessian (1995)
 Shifting diagonal of input Hessian by    9.7882327557941417E-003
 Lowest  eigenvalues of input Hessian
    0.000000    0.000000    0.000000    0.000000    0.000000    0.000000
    0.010000    0.010029    0.010116    0.010195    0.010309    0.010461
    0.010577    0.010903    0.011357    0.011956    0.012465    0.012666
 Highest eigenvalues
    2.007180    2.010623    2.020671    2.153391    2.236975    2.286259


........................................................................
.............................. CYCLE    1 ..............................
........................................................................
   1   -111.9267070 -0.111927E+03  0.135E-04    2.52       0.0  T
   2   -111.9267070 -0.182794E-09  0.897E-05    2.52     141.6  T
   3   -111.9267070 -0.154884E-09  0.580E-05    2.52     218.8  T
     SCC iter.                  ...        0 min,  0.044 sec
     gradient                   ...        0 min,  0.151 sec
 * total energy  :  -110.5935609 Eh     change       -0.3501853E-08 Eh
   gradient norm :     0.1127749 Eh/α   predicted     0.0000000E+00 (-100.00%)
   displ. norm   :     0.3808103 α      lambda       -0.2119214E-01
   maximum displ.:     0.1511588 α      in ANC's #35, #30, #42, ...

........................................................................
.............................. CYCLE    2 ..............................
........................................................................
   1   -112.0052717 -0.112005E+03  0.187E-01    2.59       0.0  T
   2   -112.0055754 -0.303706E-03  0.116E-01    2.64       1.0  T
   3   -112.0056029 -0.275816E-04  0.667E-02    2.63       1.0  T
   4   -112.0056986 -0.956233E-04  0.170E-02    2.65       1.0  T
   5   -112.0057150 -0.163916E-04  0.495E-03    2.64       2.6  T
   6   -112.0057155 -0.557210E-06  0.257E-03    2.64       4.9  T
   7   -112.0057157 -0.147878E-06  0.114E-03    2.64      11.2  T
   8   -112.0057157 -0.179964E-07  0.463E-04    2.64      27.4  T
   9   -112.0057157 -0.316172E-08  0.162E-04    2.64      78.3  T
     SCC iter.                  ...        0 min,  0.126 sec
     gradient                   ...        0 min,  0.169 sec
 * total energy  :  -110.6082719 Eh     change       -0.1471098E-01 Eh
   gradient norm :     0.0463340 Eh/α   predicted    -0.1213268E-01 ( -17.53%)
   displ. norm   :     0.4130080 α      lambda       -0.7548275E-02
   maximum displ.:     0.1749907 α      in ANC's #35, #30, #17, ...

........................................................................
.............................. CYCLE    3 ..............................
........................................................................
   1   -112.0465401 -0.112047E+03  0.148E-01    2.70       0.0  T
   2   -112.0467820 -0.241861E-03  0.939E-02    2.75       1.0  T
   3   -112.0468332 -0.511742E-04  0.522E-02    2.73       1.0  T
   4   -112.0468789 -0.456949E-04  0.160E-02    2.74       1.0  T
   5   -112.0468933 -0.144088E-04  0.346E-03    2.74       3.7  T
   6   -112.0468936 -0.326061E-06  0.179E-03    2.74       7.1  T
   7   -112.0468937 -0.605624E-07  0.814E-04    2.74      15.6  T
   8   -112.0468937 -0.942011E-08  0.309E-04    2.74      41.1  T
     SCC iter.                  ...        0 min,  0.112 sec
     gradient                   ...        0 min,  0.123 sec
 * total energy  :  -110.6130470 Eh     change       -0.4775110E-02 Eh
   gradient norm :     0.0152192 Eh/α   predicted    -0.4417913E-02 (  -7.48%)
   displ. norm   :     0.3560618 α      lambda       -0.2259617E-02
   maximum displ.:     0.1308732 α      in ANC's #17, #13, #35, ...

........................................................................
.............................. CYCLE    4 ..............................
........................................................................
   1   -112.0535701 -0.112054E+03  0.971E-02    2.77       0.0  T
   2   -112.0536423 -0.722846E-04  0.610E-02    2.78       1.0  T
   3   -112.0536343  0.803137E-05  0.324E-02    2.77       1.0  T
   4   -112.0536652 -0.308481E-04  0.988E-03    2.78       1.3  T
   5   -112.0536711 -0.598490E-05  0.206E-03    2.78       6.2  T
   6   -112.0536712 -0.999866E-07  0.105E-03    2.78      12.1  T
   7   -112.0536713 -0.913388E-08  0.508E-04    2.78      25.0  T
   8   -112.0536713 -0.513931E-08  0.163E-04    2.78      77.8  T
     SCC iter.                  ...        0 min,  0.113 sec
     gradient                   ...        0 min,  0.114 sec
 * total energy  :  -110.6144896 Eh     change       -0.1442558E-02 Eh
   gradient norm :     0.0120532 Eh/α   predicted    -0.1273110E-02 ( -11.75%)
   displ. norm   :     0.3823763 α      lambda       -0.1406410E-02
   maximum displ.:     0.1599873 α      in ANC's #17, #13, #8, ...

........................................................................
.............................. CYCLE    5 ..............................
........................................................................
   1   -112.0536593 -0.112054E+03  0.870E-02    2.78       0.0  T
   2   -112.0536734 -0.140454E-04  0.532E-02    2.80       1.0  T
   3   -112.0536425  0.308540E-04  0.236E-02    2.79       1.0  T
   4   -112.0536806 -0.381074E-04  0.412E-03    2.79       3.1  T
   5   -112.0536815 -0.824854E-06  0.161E-03    2.79       7.9  T
   6   -112.0536815 -0.164854E-07  0.806E-04    2.79      15.8  T
   7   -112.0536815 -0.743208E-08  0.315E-04    2.79      40.3  T
     SCC iter.                  ...        0 min,  0.102 sec
     gradient                   ...        0 min,  0.131 sec
 * total energy  :  -110.6153689 Eh     change       -0.8793201E-03 Eh
   gradient norm :     0.0113154 Eh/α   predicted    -0.8060240E-03 (  -8.34%)
   displ. norm   :     0.3566307 α      lambda       -0.8686541E-03
   maximum displ.:     0.1402553 α      in ANC's #8, #13, #17, ...

........................................................................
.............................. CYCLE    6 ..............................
........................................................................
   1   -112.0517501 -0.112052E+03  0.781E-02    2.78       0.0  T
   2   -112.0517551 -0.503777E-05  0.463E-02    2.78       1.0  T
   3   -112.0517459  0.920669E-05  0.125E-02    2.78       1.0  T
   4   -112.0517570 -0.111083E-04  0.205E-03    2.78       6.2  T
   5   -112.0517572 -0.124032E-06  0.103E-03    2.78      12.3  T
   6   -112.0517572 -0.972865E-08  0.501E-04    2.78      25.3  T
   7   -112.0517572 -0.318876E-08  0.193E-04    2.78      65.7  T
     SCC iter.                  ...        0 min,  0.099 sec
     gradient                   ...        0 min,  0.130 sec
 * total energy  :  -110.6160183 Eh     change       -0.6493858E-03 Eh
   gradient norm :     0.0088058 Eh/α   predicted    -0.4895674E-03 ( -24.61%)
   displ. norm   :     0.4127555 α      lambda       -0.7731651E-03
   maximum displ.:     0.1816090 α      in ANC's #8, #3, #13, ...

........................................................................
.............................. CYCLE    7 ..............................
........................................................................
   1   -112.0506481 -0.112051E+03  0.878E-02    2.77       0.0  T
   2   -112.0506605 -0.123572E-04  0.522E-02    2.76       1.0  T
   3   -112.0506462  0.142915E-04  0.171E-02    2.76       1.0  T
   4   -112.0506634 -0.171886E-04  0.356E-03    2.76       3.6  T
   5   -112.0506641 -0.705160E-06  0.124E-03    2.76      10.2  T
   6   -112.0506641 -0.201780E-07  0.722E-04    2.76      17.6  T
   7   -112.0506641 -0.771351E-08  0.273E-04    2.76      46.5  T
     SCC iter.                  ...        0 min,  0.098 sec
     gradient                   ...        0 min,  0.133 sec
 * total energy  :  -110.6165837 Eh     change       -0.5654488E-03 Eh
   gradient norm :     0.0075687 Eh/α   predicted    -0.4524481E-03 ( -19.98%)
   displ. norm   :     0.3982878 α      lambda       -0.5407838E-03
   maximum displ.:     0.1835173 α      in ANC's #8, #3, #4, ...

........................................................................
.............................. CYCLE    8 ..............................
........................................................................
   1   -112.0509196 -0.112051E+03  0.859E-02    2.75       0.0  T
   2   -112.0509252 -0.558685E-05  0.509E-02    2.75       1.0  T
   3   -112.0509177  0.750437E-05  0.117E-02    2.75       1.1  T
   4   -112.0509266 -0.891528E-05  0.252E-03    2.75       5.0  T
   5   -112.0509269 -0.288460E-06  0.108E-03    2.75      11.7  T
   6   -112.0509269 -0.593285E-08  0.572E-04    2.75      22.2  T
   7   -112.0509269 -0.827552E-08  0.196E-04    2.75      64.9  T
     SCC iter.                  ...        0 min,  0.099 sec
     gradient                   ...        0 min,  0.133 sec
 * total energy  :  -110.6170075 Eh     change       -0.4237966E-03 Eh
   gradient norm :     0.0083771 Eh/α   predicted    -0.3133050E-03 ( -26.07%)
   displ. norm   :     0.4503933 α      lambda       -0.5449093E-03
   maximum displ.:     0.2083864 α      in ANC's #8, #3, #4, ...

........................................................................
.............................. CYCLE    9 ..............................
........................................................................
   1   -112.0517410 -0.112052E+03  0.981E-02    2.75       0.0  T
   2   -112.0517459 -0.481471E-05  0.579E-02    2.74       1.0  T
   3   -112.0517415  0.433578E-05  0.918E-03    2.74       1.4  T
   4   -112.0517470 -0.547219E-05  0.226E-03    2.74       5.6  T
   5   -112.0517472 -0.176506E-06  0.112E-03    2.74      11.3  T
   6   -112.0517472 -0.559295E-08  0.468E-04    2.74      27.2  T
   7   -112.0517472 -0.507271E-08  0.171E-04    2.74      74.1  T
     SCC iter.                  ...        0 min,  0.099 sec
     gradient                   ...        0 min,  0.159 sec
 * total energy  :  -110.6174407 Eh     change       -0.4331313E-03 Eh
   gradient norm :     0.0077904 Eh/α   predicted    -0.3277254E-03 ( -24.34%)
   displ. norm   :     0.4841906 α      lambda       -0.5106321E-03
   maximum displ.:     0.2203612 α      in ANC's #8, #3, #4, ...

........................................................................
.............................. CYCLE   10 ..............................
........................................................................
   1   -112.0523796 -0.112052E+03  0.106E-01    2.75       0.0  T
   2   -112.0523842 -0.460458E-05  0.625E-02    2.74       1.0  T
   3   -112.0523779  0.626407E-05  0.105E-02    2.74       1.2  T
   4   -112.0523856 -0.763242E-05  0.249E-03    2.74       5.1  T
   5   -112.0523858 -0.198273E-06  0.125E-03    2.74      10.1  T
   6   -112.0523858 -0.103645E-07  0.596E-04    2.74      21.3  T
   7   -112.0523858 -0.738170E-08  0.198E-04    2.74      64.1  T
     SCC iter.                  ...        0 min,  0.099 sec
     gradient                   ...        0 min,  0.128 sec
 * total energy  :  -110.6178371 Eh     change       -0.3964621E-03 Eh
   gradient norm :     0.0066719 Eh/α   predicted    -0.3151821E-03 ( -20.50%)
   displ. norm   :     0.4639894 α      lambda       -0.4100904E-03
   maximum displ.:     0.2047062 α      in ANC's #8, #3, #4, ...

........................................................................
.............................. CYCLE   11 ..............................
........................................................................
   1   -112.0529226 -0.112053E+03  0.100E-01    2.74       0.0  T
   2   -112.0529262 -0.366485E-05  0.593E-02    2.74       1.0  T
   3   -112.0529177  0.854656E-05  0.123E-02    2.74       1.0  T
   4   -112.0529278 -0.101028E-04  0.221E-03    2.74       5.7  T
   5   -112.0529279 -0.114117E-06  0.117E-03    2.74      10.8  T
   6   -112.0529279 -0.109937E-07  0.546E-04    2.74      23.3  T
   7   -112.0529279 -0.628206E-08  0.185E-04    2.74      68.5  T
     SCC iter.                  ...        0 min,  0.106 sec
     gradient                   ...        0 min,  0.154 sec
 * total energy  :  -110.6181548 Eh     change       -0.3176719E-03 Eh
   gradient norm :     0.0066802 Eh/α   predicted    -0.2491887E-03 ( -21.56%)
   displ. norm   :     0.4497023 α      lambda       -0.3557992E-03
   maximum displ.:     0.1923673 α      in ANC's #4, #8, #3, ...

........................................................................
.............................. CYCLE   12 ..............................
........................................................................
   1   -112.0534291 -0.112053E+03  0.977E-02    2.74       0.0  T
   2   -112.0534320 -0.287145E-05  0.578E-02    2.74       1.0  T
   3   -112.0534226  0.930657E-05  0.130E-02    2.74       1.0  T
   4   -112.0534336 -0.109195E-04  0.186E-03    2.74       6.8  T
   5   -112.0534336 -0.439978E-07  0.106E-03    2.74      12.0  T
   6   -112.0534336 -0.131724E-07  0.479E-04    2.74      26.5  T
   7   -112.0534336 -0.453682E-08  0.176E-04    2.74      72.3  T
     SCC iter.                  ...        0 min,  0.117 sec
     gradient                   ...        0 min,  0.125 sec
 * total energy  :  -110.6184385 Eh     change       -0.2837515E-03 Eh
   gradient norm :     0.0067773 Eh/α   predicted    -0.2138806E-03 ( -24.62%)
   displ. norm   :     0.4791106 α      lambda       -0.3740388E-03
   maximum displ.:     0.2102797 α      in ANC's #4, #1, #3, ...

........................................................................
.............................. CYCLE   13 ..............................
........................................................................
   1   -112.0538657 -0.112054E+03  0.106E-01    2.74       0.0  T
   2   -112.0538695 -0.376139E-05  0.625E-02    2.74       1.0  T
   3   -112.0538628  0.673243E-05  0.116E-02    2.74       1.1  T
   4   -112.0538709 -0.816672E-05  0.202E-03    2.74       6.3  T
   5   -112.0538710 -0.811437E-07  0.106E-03    2.74      12.0  T
   6   -112.0538710 -0.443413E-08  0.522E-04    2.74      24.3  T
   7   -112.0538710 -0.618729E-08  0.194E-04    2.74      65.5  T
     SCC iter.                  ...        0 min,  0.101 sec
     gradient                   ...        0 min,  0.146 sec
 * total energy  :  -110.6187390 Eh     change       -0.3004061E-03 Eh
   gradient norm :     0.0065043 Eh/α   predicted    -0.2299673E-03 ( -23.45%)
   displ. norm   :     0.5226446 α      lambda       -0.3840241E-03
   maximum displ.:     0.2293424 α      in ANC's #4, #1, #3, ...

........................................................................
.............................. CYCLE   14 ..............................
........................................................................
   1   -112.0528091 -0.112053E+03  0.122E-01    2.73       0.0  T
   2   -112.0528137 -0.461923E-05  0.715E-02    2.74       1.0  T
   3   -112.0528072  0.651294E-05  0.115E-02    2.74       1.1  T
   4   -112.0528153 -0.809235E-05  0.224E-03    2.74       5.7  T
   5   -112.0528154 -0.119557E-06  0.118E-03    2.74      10.8  T
   6   -112.0528154 -0.401508E-08  0.567E-04    2.74      22.4  T
   7   -112.0528154 -0.702387E-08  0.195E-04    2.74      65.3  T
     SCC iter.                  ...        0 min,  0.105 sec
     gradient                   ...        0 min,  0.151 sec
 * total energy  :  -110.6190420 Eh     change       -0.3030880E-03 Eh
   gradient norm :     0.0065892 Eh/α   predicted    -0.2444641E-03 ( -19.34%)
   displ. norm   :     0.4801446 α      lambda       -0.4123012E-03
   maximum displ.:     0.2282963 α      in ANC's #1, #4, #3, ...

........................................................................
.............................. CYCLE   15 ..............................
........................................................................
   1   -112.0579573 -0.112058E+03  0.117E-01    2.74       0.0  T
   2   -112.0579649 -0.758735E-05  0.686E-02    2.74       1.0  T
   3   -112.0579524  0.124392E-04  0.161E-02    2.74       1.0  T
   4   -112.0579676 -0.152014E-04  0.264E-03    2.75       4.8  T
   5   -112.0579678 -0.188104E-06  0.141E-03    2.75       9.0  T
   6   -112.0579679 -0.149090E-07  0.714E-04    2.75      17.8  T
   7   -112.0579679 -0.911142E-08  0.277E-04    2.75      45.9  T
     SCC iter.                  ...        0 min,  0.105 sec
     gradient                   ...        0 min,  0.124 sec
 * total energy  :  -110.6192643 Eh     change       -0.2222197E-03 Eh
   gradient norm :     0.0092921 Eh/α   predicted    -0.2536977E-03 (  14.17%)
   displ. norm   :     0.6006367 α      lambda       -0.4765225E-03
   maximum displ.:     0.2608403 α      in ANC's #4, #1, #8, ...

........................................................................
.............................. CYCLE   16 ..............................
........................................................................
   1   -112.0473627 -0.112047E+03  0.149E-01    2.74       0.0  T
   2   -112.0473773 -0.146161E-04  0.866E-02    2.74       1.0  T
   3   -112.0473154  0.619026E-04  0.370E-02    2.74       1.0  T
   4   -112.0473888 -0.733738E-04  0.300E-03    2.74       4.2  T
   5   -112.0473890 -0.191037E-06  0.172E-03    2.74       7.4  T
   6   -112.0473890 -0.224768E-07  0.967E-04    2.74      13.1  T
   7   -112.0473890 -0.205975E-07  0.311E-04    2.74      40.8  T
     SCC iter.                  ...        0 min,  0.103 sec
     gradient                   ...        0 min,  0.124 sec
 * total energy  :  -110.6194352 Eh     change       -0.1709392E-03 Eh
   gradient norm :     0.0108913 Eh/α   predicted    -0.3242284E-03 (  89.67%)
   displ. norm   :     0.0972941 α      lambda       -0.2905449E-03
   maximum displ.:     0.0396188 α      in ANC's #12, #8, #7, ...

........................................................................
.............................. CYCLE   17 ..............................
........................................................................
   1   -112.0544397 -0.112054E+03  0.341E-02    2.76       0.0  T
   2   -112.0544420 -0.227763E-05  0.200E-02    2.76       1.0  T
   3   -112.0544380  0.400843E-05  0.108E-02    2.76       1.2  T
   4   -112.0544433 -0.534499E-05  0.129E-03    2.76       9.8  T
   5   -112.0544434 -0.629335E-07  0.627E-04    2.76      20.3  T
   6   -112.0544434 -0.845300E-08  0.313E-04    2.76      40.6  T
     SCC iter.                  ...        0 min,  0.121 sec
     gradient                   ...        0 min,  0.148 sec
 * total energy  :  -110.6196141 Eh     change       -0.1788819E-03 Eh
   gradient norm :     0.0067981 Eh/α   predicted    -0.1466479E-03 ( -18.02%)
   displ. norm   :     0.3001200 α      lambda       -0.2404229E-03
   maximum displ.:     0.1579044 α      in ANC's #1, #4, #2, ...

........................................................................
.............................. CYCLE   18 ..............................
........................................................................
   1   -112.0575864 -0.112058E+03  0.664E-02    2.77       0.0  T
   2   -112.0575894 -0.301068E-05  0.397E-02    2.77       1.0  T
   3   -112.0575754  0.139378E-04  0.160E-02    2.77       1.0  T
   4   -112.0575919 -0.164343E-04  0.168E-03    2.77       7.5  T
   5   -112.0575920 -0.818606E-07  0.943E-04    2.77      13.5  T
   6   -112.0575920 -0.116496E-07  0.453E-04    2.77      28.0  T
     SCC iter.                  ...        0 min,  0.085 sec
     gradient                   ...        0 min,  0.123 sec
 * total energy  :  -110.6197646 Eh     change       -0.1505528E-03 Eh
   gradient norm :     0.0049560 Eh/α   predicted    -0.1310404E-03 ( -12.96%)
   displ. norm   :     0.4698244 α      lambda       -0.2178941E-03
   maximum displ.:     0.2406304 α      in ANC's #1, #4, #2, ...

........................................................................
.............................. CYCLE   19 ..............................
........................................................................
   1   -112.0568369 -0.112057E+03  0.105E-01    2.77       0.0  T
   2   -112.0568436 -0.663606E-05  0.616E-02    2.77       1.0  T
   3   -112.0568276  0.159662E-04  0.183E-02    2.77       1.0  T
   4   -112.0568464 -0.188174E-04  0.274E-03    2.77       4.6  T
   5   -112.0568467 -0.270732E-06  0.128E-03    2.77       9.9  T
   6   -112.0568467 -0.740212E-08  0.605E-04    2.77      21.0  T
   7   -112.0568467 -0.452329E-08  0.183E-04    2.77      69.4  T
     SCC iter.                  ...        0 min,  0.103 sec
     gradient                   ...        0 min,  0.145 sec
 * total energy  :  -110.6199094 Eh     change       -0.1447317E-03 Eh
   gradient norm :     0.0052085 Eh/α   predicted    -0.1330012E-03 (  -8.10%)
   displ. norm   :     0.3984254 α      lambda       -0.1687626E-03
   maximum displ.:     0.2093693 α      in ANC's #1, #4, #2, ...

........................................................................
.............................. CYCLE   20 ..............................
........................................................................
   1   -112.0549708 -0.112055E+03  0.834E-02    2.77       0.0  T
   2   -112.0549741 -0.338690E-05  0.490E-02    2.77       1.0  T
   3   -112.0549654  0.877061E-05  0.126E-02    2.77       1.0  T
   4   -112.0549757 -0.103506E-04  0.202E-03    2.77       6.3  T
   5   -112.0549758 -0.113002E-06  0.106E-03    2.77      12.0  T
   6   -112.0549758 -0.725002E-08  0.524E-04    2.77      24.2  T
   7   -112.0549758 -0.497596E-08  0.173E-04    2.77      73.5  T
     SCC iter.                  ...        0 min,  0.098 sec
     gradient                   ...        0 min,  0.118 sec
 * total energy  :  -110.6199973 Eh     change       -0.8789339E-04 Eh
   gradient norm :     0.0066185 Eh/α   predicted    -0.9777870E-04 (  11.25%)
   displ. norm   :     0.2928967 α      lambda       -0.1299275E-03
   maximum displ.:     0.1613771 α      in ANC's #1, #4, #2, ...
 * RMSD in coord.:     0.8259749 α      energy gain  -0.2643633E-01 Eh

generating ANC from model Hessian ...
Using Lindh-Hessian (1995)
 Shifting diagonal of input Hessian by    9.7433356093957445E-003
 Lowest  eigenvalues of input Hessian
    0.000000    0.000000    0.000000    0.000000    0.000000    0.000000
    0.010000    0.010050    0.010143    0.010187    0.010366    0.010565
    0.010738    0.010919    0.011580    0.012214    0.012926    0.013165
 Highest eigenvalues
    2.084316    2.101212    2.102738    2.331574    2.354174    2.371799


........................................................................
.............................. CYCLE   21 ..............................
........................................................................
   1   -112.0543490 -0.112054E+03  0.629E-02    2.77       0.0  T
   2   -112.0543504 -0.142783E-05  0.371E-02    2.77       1.0  T
   3   -112.0543472  0.320839E-05  0.773E-03    2.77       1.6  T
   4   -112.0543511 -0.383123E-05  0.123E-03    2.77      10.3  T
   5   -112.0543511 -0.269746E-07  0.664E-04    2.77      19.1  T
   6   -112.0543511 -0.291179E-08  0.346E-04    2.77      36.7  T
     SCC iter.                  ...        0 min,  0.085 sec
     gradient                   ...        0 min,  0.147 sec
 * total energy  :  -110.6200741 Eh     change       -0.7688068E-04 Eh
   gradient norm :     0.0056499 Eh/α   predicted     0.0000000E+00 (-100.00%)
   displ. norm   :     0.0462492 α      lambda       -0.8496539E-04
   maximum displ.:     0.0220661 α      in ANC's #3, #6, #2, ...

........................................................................
.............................. CYCLE   22 ..............................
........................................................................
   1   -112.0567210 -0.112057E+03  0.158E-02    2.77       0.0  T
   2   -112.0567216 -0.669262E-06  0.927E-03    2.77       1.4  T
   3   -112.0567213  0.321201E-06  0.374E-03    2.77       3.4  T
   4   -112.0567217 -0.440033E-06  0.703E-04    2.77      18.1  T
   5   -112.0567218 -0.196890E-07  0.272E-04    2.77      46.7  T
     SCC iter.                  ...        0 min,  0.076 sec
     gradient                   ...        0 min,  0.073 sec
 * total energy  :  -110.6201341 Eh     change       -0.5992458E-04 Eh
   gradient norm :     0.0023618 Eh/α   predicted    -0.4259536E-04 ( -28.92%)
   displ. norm   :     0.0807171 α      lambda       -0.5668788E-04
   maximum displ.:     0.0426082 α      in ANC's #3, #6, #2, ...

........................................................................
.............................. CYCLE   23 ..............................
........................................................................
   1   -112.0583115 -0.112058E+03  0.202E-02    2.77       0.0  T
   2   -112.0583125 -0.963780E-06  0.119E-02    2.77       1.1  T
   3   -112.0583119  0.557905E-06  0.467E-03    2.77       2.7  T
   4   -112.0583127 -0.746901E-06  0.883E-04    2.77      14.4  T
   5   -112.0583127 -0.265276E-07  0.336E-04    2.77      37.8  T
     SCC iter.                  ...        0 min,  0.072 sec
     gradient                   ...        0 min,  0.130 sec
 * total energy  :  -110.6201729 Eh     change       -0.3885211E-04 Eh
   gradient norm :     0.0018384 Eh/α   predicted    -0.2854211E-04 ( -26.54%)
   displ. norm   :     0.1619224 α      lambda       -0.4388457E-04
   maximum displ.:     0.0856792 α      in ANC's #3, #2, #6, ...

........................................................................
.............................. CYCLE   24 ..............................
........................................................................
   1   -112.0586617 -0.112059E+03  0.379E-02    2.76       0.0  T
   2   -112.0586634 -0.174429E-05  0.223E-02    2.76       1.0  T
   3   -112.0586618  0.160186E-05  0.646E-03    2.76       2.0  T
   4   -112.0586638 -0.199285E-05  0.126E-03    2.76      10.0  T
   5   -112.0586639 -0.542332E-07  0.540E-04    2.76      23.5  T
   6   -112.0586639 -0.335885E-08  0.281E-04    2.76      45.2  T
     SCC iter.                  ...        0 min,  0.085 sec
     gradient                   ...        0 min,  0.122 sec
 * total energy  :  -110.6202166 Eh     change       -0.4369460E-04 Eh
   gradient norm :     0.0035212 Eh/α   predicted    -0.2220812E-04 ( -49.17%)
   displ. norm   :     0.1276042 α      lambda       -0.4758892E-04
   maximum displ.:     0.0670874 α      in ANC's #3, #2, #6, ...

........................................................................
.............................. CYCLE   25 ..............................
........................................................................
   1   -112.0579419 -0.112058E+03  0.288E-02    2.76       0.0  T
   2   -112.0579423 -0.401682E-06  0.170E-02    2.76       1.0  T
   3   -112.0579419  0.406297E-06  0.285E-03    2.76       4.4  T
   4   -112.0579424 -0.508364E-06  0.730E-04    2.76      17.4  T
   5   -112.0579424 -0.177088E-07  0.358E-04    2.76      35.5  T
     SCC iter.                  ...        0 min,  0.072 sec
     gradient                   ...        0 min,  0.118 sec
 * total energy  :  -110.6202562 Eh     change       -0.3960597E-04 Eh
   gradient norm :     0.0031491 Eh/α   predicted    -0.2418227E-04 ( -38.94%)
   displ. norm   :     0.2432108 α      lambda       -0.7986823E-04
   maximum displ.:     0.1264313 α      in ANC's #3, #2, #6, ...

........................................................................
.............................. CYCLE   26 ..............................
........................................................................
   1   -112.0561945 -0.112056E+03  0.539E-02    2.75       0.0  T
   2   -112.0561958 -0.132552E-05  0.317E-02    2.75       1.0  T
   3   -112.0561940  0.187552E-05  0.597E-03    2.75       2.1  T
   4   -112.0561962 -0.226142E-05  0.134E-03    2.75       9.5  T
   5   -112.0561963 -0.688936E-07  0.656E-04    2.75      19.4  T
   6   -112.0561963 -0.150619E-08  0.243E-04    2.75      52.2  T
     SCC iter.                  ...        0 min,  0.095 sec
     gradient                   ...        0 min,  0.155 sec
 * total energy  :  -110.6203164 Eh     change       -0.6017269E-04 Eh
   gradient norm :     0.0024442 Eh/α   predicted    -0.4230904E-04 ( -29.69%)
   displ. norm   :     0.2396268 α      lambda       -0.5653421E-04
   maximum displ.:     0.1259505 α      in ANC's #3, #2, #6, ...

........................................................................
.............................. CYCLE   27 ..............................
........................................................................
   1   -112.0552818 -0.112055E+03  0.501E-02    2.75       0.0  T
   2   -112.0552829 -0.112302E-05  0.295E-02    2.75       1.0  T
   3   -112.0552808  0.209983E-05  0.626E-03    2.75       2.0  T
   4   -112.0552833 -0.249336E-05  0.123E-03    2.75      10.3  T
   5   -112.0552834 -0.528669E-07  0.594E-04    2.75      21.4  T
   6   -112.0552834 -0.621469E-09  0.242E-04    2.75      52.5  T
     SCC iter.                  ...        0 min,  0.120 sec
     gradient                   ...        0 min,  0.135 sec
 * total energy  :  -110.6203607 Eh     change       -0.4435070E-04 Eh
   gradient norm :     0.0027501 Eh/α   predicted    -0.2989188E-04 ( -32.60%)
   displ. norm   :     0.2363821 α      lambda       -0.5491611E-04
   maximum displ.:     0.1254687 α      in ANC's #3, #2, #6, ...

........................................................................
.............................. CYCLE   28 ..............................
........................................................................
   1   -112.0553876 -0.112055E+03  0.465E-02    2.75       0.0  T
   2   -112.0553885 -0.948116E-06  0.274E-02    2.75       1.0  T
   3   -112.0553862  0.228792E-05  0.649E-03    2.75       2.0  T
   4   -112.0553889 -0.270259E-05  0.110E-03    2.75      11.6  T
   5   -112.0553890 -0.344451E-07  0.548E-04    2.75      23.2  T
   6   -112.0553890 -0.812634E-09  0.244E-04    2.75      52.0  T
     SCC iter.                  ...        0 min,  0.092 sec
     gradient                   ...        0 min,  0.126 sec
 * total energy  :  -110.6204056 Eh     change       -0.4486048E-04 Eh
   gradient norm :     0.0027500 Eh/α   predicted    -0.2899587E-04 ( -35.36%)
   displ. norm   :     0.2788234 α      lambda       -0.6363295E-04
   maximum displ.:     0.1488353 α      in ANC's #3, #2, #6, ...

........................................................................
.............................. CYCLE   29 ..............................
........................................................................
   1   -112.0561509 -0.112056E+03  0.524E-02    2.75       0.0  T
   2   -112.0561520 -0.107617E-05  0.309E-02    2.75       1.0  T
   3   -112.0561487  0.329560E-05  0.772E-03    2.75       1.6  T
   4   -112.0561526 -0.389628E-05  0.117E-03    2.75      10.9  T
   5   -112.0561526 -0.275489E-07  0.636E-04    2.75      20.0  T
   6   -112.0561526 -0.204105E-08  0.266E-04    2.75      47.8  T
     SCC iter.                  ...        0 min,  0.085 sec
     gradient                   ...        0 min,  0.147 sec
 * total energy  :  -110.6204557 Eh     change       -0.5013312E-04 Eh
   gradient norm :     0.0025559 Eh/α   predicted    -0.3429011E-04 ( -31.60%)
   displ. norm   :     0.2981988 α      lambda       -0.5752969E-04
   maximum displ.:     0.1589393 α      in ANC's #3, #2, #8, ...

........................................................................
.............................. CYCLE   30 ..............................
........................................................................
   1   -112.0568357 -0.112057E+03  0.554E-02    2.75       0.0  T
   2   -112.0568367 -0.109429E-05  0.326E-02    2.75       1.0  T
   3   -112.0568334  0.339800E-05  0.787E-03    2.75       1.6  T
   4   -112.0568374 -0.403907E-05  0.122E-03    2.75      10.4  T
   5   -112.0568374 -0.254489E-07  0.685E-04    2.75      18.5  T
   6   -112.0568374 -0.322609E-08  0.258E-04    2.75      49.3  T
     SCC iter.                  ...        0 min,  0.087 sec
     gradient                   ...        0 min,  0.129 sec
 * total energy  :  -110.6205012 Eh     change       -0.4544987E-04 Eh
   gradient norm :     0.0024578 Eh/α   predicted    -0.3132388E-04 ( -31.08%)
   displ. norm   :     0.3059510 α      lambda       -0.5520551E-04
   maximum displ.:     0.1606703 α      in ANC's #3, #2, #8, ...

........................................................................
.............................. CYCLE   31 ..............................
........................................................................
   1   -112.0573405 -0.112057E+03  0.573E-02    2.75       0.0  T
   2   -112.0573417 -0.119291E-05  0.337E-02    2.75       1.0  T
   3   -112.0573387  0.298794E-05  0.755E-03    2.75       1.7  T
   4   -112.0573423 -0.358888E-05  0.128E-03    2.75       9.9  T
   5   -112.0573423 -0.322607E-07  0.713E-04    2.75      17.8  T
   6   -112.0573423 -0.367328E-08  0.295E-04    2.75      43.1  T
     SCC iter.                  ...        0 min,  0.085 sec
     gradient                   ...        0 min,  0.145 sec
 * total energy  :  -110.6205446 Eh     change       -0.4336975E-04 Eh
   gradient norm :     0.0022906 Eh/α   predicted    -0.3019020E-04 ( -30.39%)
   displ. norm   :     0.3394520 α      lambda       -0.5642735E-04
   maximum displ.:     0.1730179 α      in ANC's #3, #2, #1, ...

........................................................................
.............................. CYCLE   32 ..............................
........................................................................
   1   -112.0575134 -0.112058E+03  0.648E-02    2.75       0.0  T
   2   -112.0575149 -0.154818E-05  0.381E-02    2.75       1.0  T
   3   -112.0575119  0.308597E-05  0.791E-03    2.76       1.6  T
   4   -112.0575156 -0.374917E-05  0.148E-03    2.76       8.6  T
   5   -112.0575157 -0.486593E-07  0.801E-04    2.76      15.9  T
   6   -112.0575157 -0.443619E-08  0.356E-04    2.76      35.7  T
     SCC iter.                  ...        0 min,  0.089 sec
     gradient                   ...        0 min,  0.114 sec
 * total energy  :  -110.6205877 Eh     change       -0.4317350E-04 Eh
   gradient norm :     0.0020887 Eh/α   predicted    -0.3146493E-04 ( -27.12%)
   displ. norm   :     0.2689931 α      lambda       -0.4175596E-04
   maximum displ.:     0.1391116 α      in ANC's #2, #3, #1, ...

........................................................................
.............................. CYCLE   33 ..............................
........................................................................
   1   -112.0578041 -0.112058E+03  0.522E-02    2.75       0.0  T
   2   -112.0578052 -0.103170E-05  0.307E-02    2.75       1.0  T
   3   -112.0578033  0.181553E-05  0.623E-03    2.76       2.0  T
   4   -112.0578055 -0.221275E-05  0.122E-03    2.76      10.4  T
   5   -112.0578056 -0.374712E-07  0.644E-04    2.76      19.7  T
   6   -112.0578056 -0.279680E-08  0.303E-04    2.76      41.9  T
     SCC iter.                  ...        0 min,  0.085 sec
     gradient                   ...        0 min,  0.130 sec
 * total energy  :  -110.6206191 Eh     change       -0.3135637E-04 Eh
   gradient norm :     0.0018736 Eh/α   predicted    -0.2239280E-04 ( -28.59%)
   displ. norm   :     0.3056108 α      lambda       -0.3030473E-04
   maximum displ.:     0.1656537 α      in ANC's #2, #3, #1, ...

........................................................................
.............................. CYCLE   34 ..............................
........................................................................
   1   -112.0577879 -0.112058E+03  0.604E-02    2.75       0.0  T
   2   -112.0577892 -0.129517E-05  0.355E-02    2.75       1.0  T
   3   -112.0577868  0.236294E-05  0.718E-03    2.75       1.8  T
   4   -112.0577897 -0.287573E-05  0.138E-03    2.75       9.2  T
   5   -112.0577898 -0.461841E-07  0.736E-04    2.75      17.3  T
   6   -112.0577898 -0.373113E-08  0.349E-04    2.75      36.4  T
     SCC iter.                  ...        0 min,  0.085 sec
     gradient                   ...        0 min,  0.137 sec
 * total energy  :  -110.6206494 Eh     change       -0.3029411E-04 Eh
   gradient norm :     0.0018764 Eh/α   predicted    -0.1579915E-04 ( -47.85%)
   displ. norm   :     0.1472625 α      lambda       -0.1953002E-04
   maximum displ.:     0.0870017 α      in ANC's #2, #10, #1, ...

........................................................................
.............................. CYCLE   35 ..............................
........................................................................
   1   -112.0581758 -0.112058E+03  0.282E-02    2.75       0.0  T
   2   -112.0581761 -0.287639E-06  0.167E-02    2.75       1.0  T
   3   -112.0581755  0.609545E-06  0.355E-03    2.75       3.6  T
   4   -112.0581762 -0.730910E-06  0.665E-04    2.75      19.1  T
   5   -112.0581763 -0.109221E-07  0.356E-04    2.75      35.7  T
     SCC iter.                  ...        0 min,  0.074 sec
     gradient                   ...        0 min,  0.143 sec
 * total energy  :  -110.6206737 Eh     change       -0.2428191E-04 Eh
   gradient norm :     0.0015192 Eh/α   predicted    -0.9860663E-05 ( -59.39%)
   displ. norm   :     0.2232916 α      lambda       -0.3094643E-04
   maximum displ.:     0.1324725 α      in ANC's #2, #10, #1, ...

........................................................................
.............................. CYCLE   36 ..............................
........................................................................
   1   -112.0573505 -0.112057E+03  0.431E-02    2.74       0.0  T
   2   -112.0573512 -0.745009E-06  0.255E-02    2.74       1.0  T
   3   -112.0573497  0.147609E-05  0.552E-03    2.74       2.3  T
   4   -112.0573515 -0.178775E-05  0.954E-04    2.74      13.3  T
   5   -112.0573515 -0.154450E-07  0.511E-04    2.74      24.9  T
   6   -112.0573515 -0.197235E-08  0.247E-04    2.74      51.4  T
     SCC iter.                  ...        0 min,  0.086 sec
     gradient                   ...        0 min,  0.145 sec
 * total energy  :  -110.6207084 Eh     change       -0.3473273E-04 Eh
   gradient norm :     0.0017099 Eh/α   predicted    -0.1581887E-04 ( -54.46%)
   displ. norm   :     0.2285785 α      lambda       -0.2882188E-04
   maximum displ.:     0.1353045 α      in ANC's #2, #10, #18, ...

........................................................................
.............................. CYCLE   37 ..............................
........................................................................
   1   -112.0585556 -0.112059E+03  0.410E-02    2.72       0.0  T
   2   -112.0585568 -0.119928E-05  0.243E-02    2.73       1.0  T
   3   -112.0585538  0.303480E-05  0.801E-03    2.73       1.6  T
   4   -112.0585574 -0.362841E-05  0.102E-03    2.73      12.5  T
   5   -112.0585574 -0.186503E-07  0.567E-04    2.73      22.4  T
   6   -112.0585574 -0.669290E-08  0.281E-04    2.73      45.2  T
     SCC iter.                  ...        0 min,  0.086 sec
     gradient                   ...        0 min,  0.153 sec
 * total energy  :  -110.6207368 Eh     change       -0.2838028E-04 Eh
   gradient norm :     0.0023334 Eh/α   predicted    -0.1474727E-04 ( -48.04%)
   displ. norm   :     0.1852433 α      lambda       -0.2808902E-04
   maximum displ.:     0.1123915 α      in ANC's #2, #10, #1, ...

........................................................................
.............................. CYCLE   38 ..............................
........................................................................
   1   -112.0573995 -0.112057E+03  0.360E-02    2.72       0.0  T
   2   -112.0574004 -0.931580E-06  0.213E-02    2.72       1.0  T
   3   -112.0573984  0.202304E-05  0.658E-03    2.72       1.9  T
   4   -112.0574009 -0.244016E-05  0.875E-04    2.72      14.5  T
   5   -112.0574009 -0.123156E-07  0.450E-04    2.72      28.2  T
   6   -112.0574009 -0.230897E-08  0.231E-04    2.72      55.0  T
     SCC iter.                  ...        0 min,  0.125 sec
     gradient                   ...        0 min,  0.130 sec
 * total energy  :  -110.6207595 Eh     change       -0.2267944E-04 Eh
   gradient norm :     0.0021786 Eh/α   predicted    -0.1452867E-04 ( -35.94%)
   displ. norm   :     0.2881037 α      lambda       -0.4273240E-04
   maximum displ.:     0.1764283 α      in ANC's #2, #10, #1, ...

........................................................................
.............................. CYCLE   39 ..............................
........................................................................
   1   -112.0562821 -0.112056E+03  0.546E-02    2.70       0.0  T
   2   -112.0562853 -0.313505E-05  0.323E-02    2.70       1.0  T
   3   -112.0562797  0.552579E-05  0.114E-02    2.70       1.1  T
   4   -112.0562865 -0.681329E-05  0.150E-03    2.70       8.5  T
   5   -112.0562866 -0.449829E-07  0.717E-04    2.70      17.7  T
   6   -112.0562866 -0.590087E-08  0.375E-04    2.70      33.9  T
     SCC iter.                  ...        0 min,  0.085 sec
     gradient                   ...        0 min,  0.133 sec
 * total energy  :  -110.6207934 Eh     change       -0.3396176E-04 Eh
   gradient norm :     0.0027212 Eh/α   predicted    -0.2314122E-04 ( -31.86%)
   displ. norm   :     0.3607670 α      lambda       -0.5956510E-04
   maximum displ.:     0.2246505 α      in ANC's #2, #10, #1, ...

........................................................................
.............................. CYCLE   40 ..............................
........................................................................
   1   -112.0557914 -0.112056E+03  0.682E-02    2.68       0.0  T
   2   -112.0557986 -0.719639E-05  0.404E-02    2.69       1.0  T
   3   -112.0557886  0.100019E-04  0.165E-02    2.69       1.0  T
   4   -112.0558015 -0.128752E-04  0.217E-03    2.69       5.8  T
   5   -112.0558016 -0.110752E-06  0.100E-03    2.69      12.7  T
   6   -112.0558016 -0.142055E-07  0.533E-04    2.69      23.8  T
   7   -112.0558016 -0.418389E-08  0.220E-04    2.69      57.8  T
     SCC iter.                  ...        0 min,  0.098 sec
     gradient                   ...        0 min,  0.134 sec
 * total energy  :  -110.6208376 Eh     change       -0.4421015E-04 Eh
   gradient norm :     0.0031648 Eh/α   predicted    -0.3365922E-04 ( -23.87%)
   displ. norm   :     0.2838397 α      lambda       -0.5812260E-04
   maximum displ.:     0.1762908 α      in ANC's #2, #10, #14, ...

........................................................................
.............................. CYCLE   41 ..............................
........................................................................
   1   -112.0567814 -0.112057E+03  0.547E-02    2.67       0.0  T
   2   -112.0567879 -0.657406E-05  0.324E-02    2.68       1.0  T
   3   -112.0567813  0.667114E-05  0.150E-02    2.68       1.0  T
   4   -112.0567905 -0.924168E-05  0.206E-03    2.68       6.2  T
   5   -112.0567906 -0.104157E-06  0.931E-04    2.68      13.6  T
   6   -112.0567906 -0.162960E-07  0.492E-04    2.68      25.8  T
     SCC iter.                  ...        0 min,  0.087 sec
     gradient                   ...        0 min,  0.161 sec
 * total energy  :  -110.6208825 Eh     change       -0.4484472E-04 Eh
   gradient norm :     0.0030332 Eh/α   predicted    -0.3140445E-04 ( -29.97%)
   displ. norm   :     0.3517756 α      lambda       -0.7001459E-04
   maximum displ.:     0.2149518 α      in ANC's #2, #10, #14, ...

........................................................................
.............................. CYCLE   42 ..............................
........................................................................
   1   -112.0571874 -0.112057E+03  0.690E-02    2.66       0.0  T
   2   -112.0571982 -0.107606E-04  0.410E-02    2.67       1.0  T
   3   -112.0571874  0.107558E-04  0.192E-02    2.67       1.0  T
   4   -112.0572023 -0.149280E-04  0.264E-03    2.67       4.8  T
   5   -112.0572025 -0.167993E-06  0.121E-03    2.67      10.5  T
   6   -112.0572025 -0.323810E-07  0.632E-04    2.67      20.1  T
   7   -112.0572026 -0.660046E-08  0.264E-04    2.67      48.1  T
     SCC iter.                  ...        0 min,  0.099 sec
     gradient                   ...        0 min,  0.124 sec
 * total energy  :  -110.6209349 Eh     change       -0.5245102E-04 Eh
   gradient norm :     0.0044309 Eh/α   predicted    -0.3934090E-04 ( -24.99%)
   displ. norm   :     0.3692787 α      lambda       -0.1717690E-03
   maximum displ.:     0.1827790 α      in ANC's #2, #14, #11, ...
 * RMSD in coord.:     0.5752820 α      energy gain  -0.9376605E-03 Eh

generating ANC from model Hessian ...
Using Lindh-Hessian (1995)
 Shifting diagonal of input Hessian by    9.7455235800448878E-003
 Lowest  eigenvalues of input Hessian
    0.000000    0.000000    0.000000    0.000000    0.000000    0.000000
    0.010000    0.010102    0.010128    0.010149    0.010371    0.010555
    0.010708    0.010969    0.011576    0.012467    0.012858    0.013091
 Highest eigenvalues
    2.103639    2.105073    2.105856    2.344785    2.354821    2.374892


........................................................................
.............................. CYCLE   43 ..............................
........................................................................
   1   -112.0644805 -0.112064E+03  0.882E-02    2.65       0.0  T
   2   -112.0645018 -0.213073E-04  0.521E-02    2.66       1.0  T
   3   -112.0644858  0.159755E-04  0.261E-02    2.66       1.0  T
   4   -112.0645099 -0.240782E-04  0.380E-03    2.66       3.3  T
   5   -112.0645102 -0.356861E-06  0.175E-03    2.66       7.2  T
   6   -112.0645103 -0.752046E-07  0.901E-04    2.66      14.1  T
   7   -112.0645103 -0.126476E-07  0.365E-04    2.66      34.8  T
     SCC iter.                  ...        0 min,  0.098 sec
     gradient                   ...        0 min,  0.139 sec
 * total energy  :  -110.6209579 Eh     change       -0.2301375E-04 Eh
   gradient norm :     0.0082552 Eh/α   predicted     0.0000000E+00 (-100.00%)
   displ. norm   :     0.0722745 α      lambda       -0.1760610E-03
   maximum displ.:     0.0322123 α      in ANC's #18, #10, #6, ...

........................................................................
.............................. CYCLE   44 ..............................
........................................................................
   1   -112.0603540 -0.112060E+03  0.214E-02    2.66       0.0  T
   2   -112.0603551 -0.106716E-05  0.127E-02    2.66       1.0  T
   3   -112.0603541  0.989048E-06  0.572E-03    2.66       2.2  T
   4   -112.0603554 -0.132825E-05  0.990E-04    2.66      12.8  T
   5   -112.0603555 -0.307918E-07  0.438E-04    2.66      29.0  T
   6   -112.0603555 -0.247483E-08  0.233E-04    2.66      54.5  T
     SCC iter.                  ...        0 min,  0.089 sec
     gradient                   ...        0 min,  0.126 sec
 * total energy  :  -110.6210948 Eh     change       -0.1368503E-03 Eh
   gradient norm :     0.0038934 Eh/α   predicted    -0.8852901E-04 ( -35.31%)
   displ. norm   :     0.1807728 α      lambda       -0.2190976E-03
   maximum displ.:     0.0800156 α      in ANC's #10, #18, #6, ...

........................................................................
.............................. CYCLE   45 ..............................
........................................................................
   1   -112.0555738 -0.112056E+03  0.430E-02    2.64       0.0  T
   2   -112.0555771 -0.331057E-05  0.257E-02    2.64       1.0  T
   3   -112.0555740  0.308970E-05  0.947E-03    2.64       1.3  T
   4   -112.0555780 -0.396906E-05  0.193E-03    2.64       6.6  T
   5   -112.0555781 -0.122834E-06  0.839E-04    2.64      15.1  T
   6   -112.0555781 -0.720061E-08  0.421E-04    2.64      30.2  T
     SCC iter.                  ...        0 min,  0.086 sec
     gradient                   ...        0 min,  0.129 sec
 * total energy  :  -110.6212379 Eh     change       -0.1430794E-03 Eh
   gradient norm :     0.0044536 Eh/α   predicted    -0.1131864E-03 ( -20.89%)
   displ. norm   :     0.1594322 α      lambda       -0.1111404E-03
   maximum displ.:     0.0743926 α      in ANC's #10, #6, #18, ...

........................................................................
.............................. CYCLE   46 ..............................
........................................................................
   1   -112.0545358 -0.112055E+03  0.340E-02    2.63       0.0  T
   2   -112.0545374 -0.161257E-05  0.203E-02    2.63       1.0  T
   3   -112.0545358  0.156799E-05  0.649E-03    2.63       2.0  T
   4   -112.0545378 -0.198885E-05  0.137E-03    2.63       9.3  T
   5   -112.0545379 -0.625609E-07  0.618E-04    2.63      20.5  T
   6   -112.0545379 -0.476062E-08  0.296E-04    2.63      43.0  T
     SCC iter.                  ...        0 min,  0.085 sec
     gradient                   ...        0 min,  0.129 sec
 * total energy  :  -110.6213274 Eh     change       -0.8956528E-04 Eh
   gradient norm :     0.0061995 Eh/α   predicted    -0.5699933E-04 ( -36.36%)
   displ. norm   :     0.3035813 α      lambda       -0.2196402E-03
   maximum displ.:     0.1450222 α      in ANC's #10, #6, #13, ...

........................................................................
.............................. CYCLE   47 ..............................
........................................................................
   1   -112.0548986 -0.112055E+03  0.623E-02    2.62       0.0  T
   2   -112.0549035 -0.493961E-05  0.373E-02    2.62       1.0  T
   3   -112.0548977  0.586535E-05  0.125E-02    2.62       1.0  T
   4   -112.0549050 -0.736006E-05  0.230E-03    2.62       5.5  T
   5   -112.0549052 -0.167289E-06  0.109E-03    2.62      11.7  T
   6   -112.0549052 -0.197856E-07  0.544E-04    2.62      23.4  T
   7   -112.0549052 -0.690389E-08  0.222E-04    2.62      57.1  T
     SCC iter.                  ...        0 min,  0.098 sec
     gradient                   ...        0 min,  0.152 sec
 * total energy  :  -110.6214954 Eh     change       -0.1679888E-03 Eh
   gradient norm :     0.0075684 Eh/α   predicted    -0.1199724E-03 ( -28.58%)
   displ. norm   :     0.3369028 α      lambda       -0.2674212E-03
   maximum displ.:     0.1568244 α      in ANC's #10, #6, #3, ...

........................................................................
.............................. CYCLE   48 ..............................
........................................................................
   1   -112.0571268 -0.112057E+03  0.677E-02    2.61       0.0  T
   2   -112.0571324 -0.568678E-05  0.405E-02    2.61       1.0  T
   3   -112.0571242  0.823284E-05  0.150E-02    2.61       1.0  T
   4   -112.0571345 -0.102768E-04  0.235E-03    2.61       5.4  T
   5   -112.0571346 -0.159101E-06  0.118E-03    2.61      10.8  T
   6   -112.0571347 -0.309553E-07  0.592E-04    2.61      21.5  T
   7   -112.0571347 -0.714762E-08  0.216E-04    2.61      58.8  T
     SCC iter.                  ...        0 min,  0.107 sec
     gradient                   ...        0 min,  0.140 sec
 * total energy  :  -110.6217035 Eh     change       -0.2081321E-03 Eh
   gradient norm :     0.0072140 Eh/α   predicted    -0.1488893E-03 ( -28.46%)
   displ. norm   :     0.3576699 α      lambda       -0.3395489E-03
   maximum displ.:     0.1704204 α      in ANC's #6, #10, #3, ...

........................................................................
.............................. CYCLE   49 ..............................
........................................................................
   1   -112.0606884 -0.112061E+03  0.722E-02    2.61       0.0  T
   2   -112.0606948 -0.643668E-05  0.431E-02    2.61       1.0  T
   3   -112.0606851  0.972619E-05  0.167E-02    2.61       1.0  T
   4   -112.0606972 -0.121196E-04  0.236E-03    2.61       5.4  T
   5   -112.0606973 -0.146663E-06  0.120E-03    2.61      10.6  T
   6   -112.0606974 -0.369235E-07  0.598E-04    2.61      21.2  T
   7   -112.0606974 -0.586144E-08  0.188E-04    2.61      67.5  T
     SCC iter.                  ...        0 min,  0.103 sec
     gradient                   ...        0 min,  0.128 sec
 * total energy  :  -110.6219605 Eh     change       -0.2569487E-03 Eh
   gradient norm :     0.0059263 Eh/α   predicted    -0.1915468E-03 ( -25.45%)
   displ. norm   :     0.4888695 α      lambda       -0.3345219E-03
   maximum displ.:     0.2286012 α      in ANC's #6, #10, #3, ...

........................................................................
.............................. CYCLE   50 ..............................
........................................................................
   1   -112.0589404 -0.112059E+03  0.961E-02    2.61       0.0  T
   2   -112.0589497 -0.926393E-05  0.577E-02    2.61       1.0  T
   3   -112.0589347  0.149930E-04  0.194E-02    2.61       1.0  T
   4   -112.0589531 -0.183855E-04  0.297E-03    2.61       4.3  T
   5   -112.0589533 -0.196049E-06  0.154E-03    2.61       8.2  T
   6   -112.0589533 -0.555974E-07  0.797E-04    2.61      15.9  T
   7   -112.0589533 -0.129197E-07  0.243E-04    2.61      52.3  T
     SCC iter.                  ...        0 min,  0.099 sec
     gradient                   ...        0 min,  0.140 sec
 * total energy  :  -110.6221265 Eh     change       -0.1659593E-03 Eh
   gradient norm :     0.0113558 Eh/α   predicted    -0.2072389E-03 (  24.87%)
   displ. norm   :     0.2625426 α      lambda       -0.5888523E-03
   maximum displ.:     0.1117743 α      in ANC's #3, #6, #12, ...

........................................................................
.............................. CYCLE   51 ..............................
........................................................................
   1   -112.0635019 -0.112064E+03  0.661E-02    2.61       0.0  T
   2   -112.0635113 -0.946526E-05  0.390E-02    2.62       1.0  T
   3   -112.0635064  0.488084E-05  0.139E-02    2.62       1.0  T
   4   -112.0635132 -0.674742E-05  0.318E-03    2.62       4.0  T
   5   -112.0635135 -0.323868E-06  0.131E-03    2.62       9.7  T
   6   -112.0635135 -0.121906E-07  0.698E-04    2.62      18.2  T
   7   -112.0635135 -0.785404E-08  0.285E-04    2.62      44.6  T
     SCC iter.                  ...        0 min,  0.099 sec
     gradient                   ...        0 min,  0.150 sec
 * total energy  :  -110.6222984 Eh     change       -0.1719851E-03 Eh
   gradient norm :     0.0090969 Eh/α   predicted    -0.3147211E-03 (  82.99%)
   displ. norm   :     0.2243419 α      lambda       -0.2462074E-03
   maximum displ.:     0.1029557 α      in ANC's #6, #3, #10, ...

........................................................................
.............................. CYCLE   52 ..............................
........................................................................
   1   -112.0601367 -0.112060E+03  0.447E-02    2.62       0.0  T
   2   -112.0601381 -0.139668E-05  0.269E-02    2.62       1.0  T
   3   -112.0601360  0.201847E-05  0.694E-03    2.62       1.8  T
   4   -112.0601386 -0.258325E-05  0.144E-03    2.62       8.8  T
   5   -112.0601386 -0.291959E-07  0.731E-04    2.62      17.4  T
   6   -112.0601386 -0.410532E-08  0.333E-04    2.62      38.1  T
     SCC iter.                  ...        0 min,  0.085 sec
     gradient                   ...        0 min,  0.150 sec
 * total energy  :  -110.6224313 Eh     change       -0.1328834E-03 Eh
   gradient norm :     0.0068540 Eh/α   predicted    -0.1292996E-03 (  -2.70%)
   displ. norm   :     0.0597521 α      lambda       -0.8495778E-04
   maximum displ.:     0.0262065 α      in ANC's #3, #8, #10, ...

........................................................................
.............................. CYCLE   53 ..............................
........................................................................
   1   -112.0598819 -0.112060E+03  0.165E-02    2.62       0.0  T
   2   -112.0598825 -0.546770E-06  0.978E-03    2.61       1.3  T
   3   -112.0598818  0.695295E-06  0.528E-03    2.61       2.4  T
   4   -112.0598828 -0.100160E-05  0.644E-04    2.61      19.7  T
   5   -112.0598828 -0.131389E-07  0.306E-04    2.61      41.5  T
   6   -112.0598828 -0.196194E-08  0.178E-04    2.61      71.4  T
     SCC iter.                  ...        0 min,  0.084 sec
     gradient                   ...        0 min,  0.153 sec
 * total energy  :  -110.6224973 Eh     change       -0.6594680E-04 Eh
   gradient norm :     0.0039609 Eh/α   predicted    -0.4263260E-04 ( -35.35%)
   displ. norm   :     0.2554568 α      lambda       -0.1570296E-03
   maximum displ.:     0.1621214 α      in ANC's #3, #6, #13, ...

........................................................................
.............................. CYCLE   54 ..............................
........................................................................
   1   -112.0589821 -0.112059E+03  0.489E-02    2.61       0.0  T
   2   -112.0589841 -0.200287E-05  0.292E-02    2.61       1.0  T
   3   -112.0589789  0.519889E-05  0.110E-02    2.61       1.2  T
   4   -112.0589852 -0.629941E-05  0.146E-03    2.61       8.7  T
   5   -112.0589852 -0.371915E-07  0.762E-04    2.61      16.7  T
   6   -112.0589852 -0.590455E-08  0.387E-04    2.61      32.8  T
     SCC iter.                  ...        0 min,  0.089 sec
     gradient                   ...        0 min,  0.131 sec
 * total energy  :  -110.6225943 Eh     change       -0.9699147E-04 Eh
   gradient norm :     0.0043895 Eh/α   predicted    -0.8365937E-04 ( -13.75%)
   displ. norm   :     0.1669455 α      lambda       -0.9403218E-04
   maximum displ.:     0.1151070 α      in ANC's #3, #13, #6, ...

........................................................................
.............................. CYCLE   55 ..............................
........................................................................
   1   -112.0599484 -0.112060E+03  0.325E-02    2.60       0.0  T
   2   -112.0599492 -0.808846E-06  0.193E-02    2.60       1.0  T
   3   -112.0599482  0.104541E-05  0.502E-03    2.60       2.5  T
   4   -112.0599495 -0.130474E-05  0.106E-03    2.60      12.0  T
   5   -112.0599495 -0.272927E-07  0.535E-04    2.60      23.7  T
   6   -112.0599495 -0.840089E-09  0.264E-04    2.60      48.1  T
     SCC iter.                  ...        0 min,  0.085 sec
     gradient                   ...        0 min,  0.124 sec
 * total energy  :  -110.6226581 Eh     change       -0.6380164E-04 Eh
   gradient norm :     0.0045951 Eh/α   predicted    -0.4833146E-04 ( -24.25%)
   displ. norm   :     0.3565130 α      lambda       -0.1114284E-03
   maximum displ.:     0.2447432 α      in ANC's #3, #6, #13, ...

........................................................................
.............................. CYCLE   56 ..............................
........................................................................
   1   -112.0597546 -0.112060E+03  0.621E-02    2.60       0.0  T
   2   -112.0597569 -0.231650E-05  0.371E-02    2.60       1.0  T
   3   -112.0597531  0.380440E-05  0.882E-03    2.60       1.4  T
   4   -112.0597577 -0.462699E-05  0.164E-03    2.60       7.8  T
   5   -112.0597578 -0.727510E-07  0.827E-04    2.60      15.4  T
   6   -112.0597578 -0.519721E-08  0.415E-04    2.60      30.6  T
     SCC iter.                  ...        0 min,  0.085 sec
     gradient                   ...        0 min,  0.144 sec
 * total energy  :  -110.6227380 Eh     change       -0.7991354E-04 Eh
   gradient norm :     0.0044027 Eh/α   predicted    -0.6282405E-04 ( -21.38%)
   displ. norm   :     0.3078763 α      lambda       -0.1208350E-03
   maximum displ.:     0.2302695 α      in ANC's #3, #5, #6, ...

........................................................................
.............................. CYCLE   57 ..............................
........................................................................
   1   -112.0610808 -0.112061E+03  0.510E-02    2.60       0.0  T
   2   -112.0610833 -0.244871E-05  0.302E-02    2.60       1.0  T
   3   -112.0610799  0.340397E-05  0.908E-03    2.60       1.4  T
   4   -112.0610839 -0.403958E-05  0.172E-03    2.60       7.4  T
   5   -112.0610840 -0.125679E-06  0.749E-04    2.60      17.0  T
   6   -112.0610841 -0.872694E-08  0.398E-04    2.60      31.9  T
     SCC iter.                  ...        0 min,  0.093 sec
     gradient                   ...        0 min,  0.129 sec
 * total energy  :  -110.6228244 Eh     change       -0.8646172E-04 Eh
   gradient norm :     0.0025742 Eh/α   predicted    -0.6615563E-04 ( -23.49%)
   displ. norm   :     0.3305463 α      lambda       -0.8876459E-04
   maximum displ.:     0.2531536 α      in ANC's #3, #5, #2, ...

........................................................................
.............................. CYCLE   58 ..............................
........................................................................
   1   -112.0608844 -0.112061E+03  0.502E-02    2.60       0.0  T
   2   -112.0608858 -0.138165E-05  0.298E-02    2.60       1.0  T
   3   -112.0608834  0.238527E-05  0.692E-03    2.59       1.8  T
   4   -112.0608863 -0.282563E-05  0.133E-03    2.60       9.6  T
   5   -112.0608863 -0.608178E-07  0.644E-04    2.60      19.7  T
   6   -112.0608863 -0.471999E-08  0.329E-04    2.60      38.6  T
     SCC iter.                  ...        0 min,  0.085 sec
     gradient                   ...        0 min,  0.132 sec
 * total energy  :  -110.6228942 Eh     change       -0.6971049E-04 Eh
   gradient norm :     0.0031299 Eh/α   predicted    -0.4923482E-04 ( -29.37%)
   displ. norm   :     0.2560074 α      lambda       -0.9829041E-04
   maximum displ.:     0.1901267 α      in ANC's #3, #5, #8, ...

........................................................................
.............................. CYCLE   59 ..............................
........................................................................
   1   -112.0617557 -0.112062E+03  0.378E-02    2.60       0.0  T
   2   -112.0617566 -0.905773E-06  0.223E-02    2.59       1.0  T
   3   -112.0617549  0.169271E-05  0.565E-03    2.59       2.2  T
   4   -112.0617569 -0.207130E-05  0.107E-03    2.59      11.8  T
   5   -112.0617570 -0.259250E-07  0.597E-04    2.59      21.3  T
   6   -112.0617570 -0.388151E-08  0.308E-04    2.59      41.2  T
     SCC iter.                  ...        0 min,  0.089 sec
     gradient                   ...        0 min,  0.131 sec
 * total energy  :  -110.6229541 Eh     change       -0.5991988E-04 Eh
   gradient norm :     0.0046267 Eh/α   predicted    -0.5237224E-04 ( -12.60%)
   displ. norm   :     0.4997420 α      lambda       -0.1293424E-03
   maximum displ.:     0.3900675 α      in ANC's #3, #5, #2, ...

........................................................................
.............................. CYCLE   60 ..............................
........................................................................
   1   -112.0596839 -0.112060E+03  0.725E-02    2.60       0.0  T
   2   -112.0596860 -0.209616E-05  0.432E-02    2.59       1.0  T
   3   -112.0596798  0.614206E-05  0.992E-03    2.59       1.3  T
   4   -112.0596872 -0.731919E-05  0.143E-03    2.59       8.9  T
   5   -112.0596872 -0.169965E-07  0.780E-04    2.59      16.3  T
   6   -112.0596872 -0.852978E-08  0.320E-04    2.59      39.7  T
     SCC iter.                  ...        0 min,  0.129 sec
     gradient                   ...        0 min,  0.129 sec
 * total energy  :  -110.6230486 Eh     change       -0.9456022E-04 Eh
   gradient norm :     0.0045672 Eh/α   predicted    -0.8082332E-04 ( -14.53%)
   displ. norm   :     0.4141064 α      lambda       -0.9795535E-04
   maximum displ.:     0.3287661 α      in ANC's #3, #5, #2, ...

........................................................................
.............................. CYCLE   61 ..............................
........................................................................
   1   -112.0586760 -0.112059E+03  0.598E-02    2.60       0.0  T
   2   -112.0586781 -0.207548E-05  0.355E-02    2.60       1.0  T
   3   -112.0586718  0.631549E-05  0.107E-02    2.60       1.2  T
   4   -112.0586793 -0.754069E-05  0.106E-03    2.59      12.0  T
   5   -112.0586793 -0.114286E-07  0.592E-04    2.59      21.5  T
   6   -112.0586793 -0.398926E-08  0.265E-04    2.59      47.9  T
     SCC iter.                  ...        0 min,  0.085 sec
     gradient                   ...        0 min,  0.125 sec
 * total energy  :  -110.6231275 Eh     change       -0.7889802E-04 Eh
   gradient norm :     0.0046498 Eh/α   predicted    -0.5737673E-04 ( -27.28%)
   displ. norm   :     0.4482325 α      lambda       -0.1859844E-03
   maximum displ.:     0.3480693 α      in ANC's #3, #5, #13, ...

........................................................................
.............................. CYCLE   62 ..............................
........................................................................
   1   -112.0594842 -0.112059E+03  0.713E-02    2.61       0.0  T
   2   -112.0594902 -0.602042E-05  0.421E-02    2.61       1.0  T
   3   -112.0594788  0.114201E-04  0.165E-02    2.61       1.0  T
   4   -112.0594933 -0.144349E-04  0.159E-03    2.61       8.0  T
   5   -112.0594933 -0.624181E-07  0.835E-04    2.61      15.2  T
   6   -112.0594933 -0.790858E-08  0.472E-04    2.61      26.9  T
     SCC iter.                  ...        0 min,  0.084 sec
     gradient                   ...        0 min,  0.141 sec
 * total energy  :  -110.6232656 Eh     change       -0.1380862E-03 Eh
   gradient norm :     0.0037247 Eh/α   predicted    -0.1116771E-03 ( -19.13%)
   displ. norm   :     0.5262513 α      lambda       -0.1445363E-03
   maximum displ.:     0.4246867 α      in ANC's #3, #5, #4, ...

........................................................................
.............................. CYCLE   63 ..............................
........................................................................
   1   -112.0592590 -0.112059E+03  0.825E-02    2.62       0.0  T
   2   -112.0592643 -0.531422E-05  0.489E-02    2.62       1.0  T
   3   -112.0592519  0.124269E-04  0.153E-02    2.62       1.0  T
   4   -112.0592668 -0.148991E-04  0.158E-03    2.62       8.0  T
   5   -112.0592669 -0.577618E-07  0.801E-04    2.62      15.8  T
   6   -112.0592669 -0.909334E-08  0.424E-04    2.62      30.0  T
     SCC iter.                  ...        0 min,  0.088 sec
     gradient                   ...        0 min,  0.131 sec
 * total energy  :  -110.6233752 Eh     change       -0.1095637E-03 Eh
   gradient norm :     0.0045311 Eh/α   predicted    -0.9228727E-04 ( -15.77%)
   displ. norm   :     0.4035488 α      lambda       -0.1452448E-03
   maximum displ.:     0.3131304 α      in ANC's #3, #5, #13, ...

........................................................................
.............................. CYCLE   64 ..............................
........................................................................
   1   -112.0614437 -0.112061E+03  0.737E-02    2.63       0.0  T
   2   -112.0614463 -0.263483E-05  0.435E-02    2.63       1.0  T
   3   -112.0614386  0.769002E-05  0.113E-02    2.64       1.1  T
   4   -112.0614477 -0.908458E-05  0.143E-03    2.63       8.9  T
   5   -112.0614477 -0.441594E-07  0.814E-04    2.63      15.6  T
   6   -112.0614477 -0.674878E-08  0.416E-04    2.63      30.5  T
     SCC iter.                  ...        0 min,  0.084 sec
[...]
      -------------------------------------------------------------
                  HL-Gap            0.0972581 Eh            2.6465 eV
             Fermi-level           -0.3270829 Eh           -8.9004 eV

 SCC (total)                   0 d,  0 h,  0 min,  0.307 sec
 SCC setup                      ...        0 min,  0.006 sec (  1.925%)
 Dispersion                     ...        0 min,  0.016 sec (  5.223%)
 classical contributions        ...        0 min,  0.016 sec (  5.144%)
 integral evaluation            ...        0 min,  0.071 sec ( 23.127%)
 iterations                     ...        0 min,  0.042 sec ( 13.748%)
 molecular gradient             ...        0 min,  0.155 sec ( 50.316%)
 printout                       ...        0 min,  0.002 sec (  0.490%)

         :::::::::::::::::::::::::::::::::::::::::::::::::::::
         ::                     SUMMARY                     ::
         :::::::::::::::::::::::::::::::::::::::::::::::::::::
         :: total energy            -110.624124126597 Eh    ::
         :: gradient norm              0.000607247961 Eh/a0 ::
         :: HOMO-LUMO gap              2.646527615687 eV    ::
         ::.................................................::
         :: SCC energy              -112.061735804447 Eh    ::
         :: -> isotropic ES            0.163935116963 Eh    ::
         :: -> anisotropic ES          0.000254596302 Eh    ::
         :: -> anisotropic XC          0.024024253798 Eh    ::
         :: -> dispersion             -0.087458594434 Eh    ::
         :: repulsion energy           1.434765694406 Eh    ::
         :: add. restraining           0.000000000000 Eh    ::
         :: total charge              -0.000000000000 e     ::
         :::::::::::::::::::::::::::::::::::::::::::::::::::::

           -------------------------------------------------
          |                Property Printout                |
           -------------------------------------------------

    * Orbital Energies and Occupations

         #    Occupation            Energy/Eh            Energy/eV
      -------------------------------------------------------------
         1        2.0000           -0.7647798             -20.8107
       ...           ...                  ...                  ...
        85        2.0000           -0.4343447             -11.8191
        86        2.0000           -0.4294910             -11.6870
        87        2.0000           -0.4271278             -11.6227
        88        2.0000           -0.4237097             -11.5297
        89        2.0000           -0.4192593             -11.4086
        90        2.0000           -0.4144268             -11.2771
        91        2.0000           -0.4063125             -11.0563
        92        2.0000           -0.4047835             -11.0147
        93        2.0000           -0.3967443             -10.7960
        94        2.0000           -0.3931143             -10.6972
        95        2.0000           -0.3897367             -10.6053
        96        2.0000           -0.3828282             -10.4173
        97        2.0000           -0.3757120             -10.2236 (HOMO)
        98                         -0.2784539              -7.5771 (LUMO)
        99                         -0.2544412              -6.9237
       100                         -0.2388801              -6.5003
       101                         -0.2308917              -6.2829
       102                         -0.2260999              -6.1525
       103                         -0.2233808              -6.0785
       104                         -0.2134272              -5.8077
       105                         -0.2048395              -5.5740
       106                         -0.1833113              -4.9882
       107                         -0.1589878              -4.3263
       108                         -0.1331371              -3.6228
       ...                                ...                  ...
       176                          0.7117036              19.3664
      -------------------------------------------------------------
                  HL-Gap            0.0972581 Eh            2.6465 eV
             Fermi-level           -0.3270829 Eh           -8.9004 eV

     #   Z          covCN         q      C6AA      α(0)
     1   6 C        2.865     0.143    24.875     8.175
     2   8 O        1.705    -0.280    18.645     5.830
     3   6 C        3.643     0.037    20.292     6.476
     4   6 C        2.918    -0.065    29.629     8.926
     5   6 C        2.921    -0.032    28.791     8.799
     6   6 C        2.917    -0.041    29.011     8.832
     7   6 C        2.926    -0.030    28.748     8.793
     8   6 C        2.972    -0.016    28.416     8.744
     9   6 C        3.822     0.042    19.852     6.341
    10   6 C        3.846     0.052    19.668     6.308
    11   6 C        2.974    -0.007    28.182     8.708
    12   6 C        2.923    -0.030    28.740     8.791
    13   6 C        2.918    -0.040    28.988     8.829
    14   6 C        2.921    -0.031    28.785     8.798
    15   6 C        2.918    -0.065    29.614     8.924
    16   6 C        2.869     0.143    24.889     8.178
    17   8 O        1.705    -0.273    18.526     5.811
    18   6 C        3.644     0.038    20.270     6.472
    19   7 N        2.760    -0.118    23.576     7.212
    20   6 C        2.764     0.272    22.408     7.752
    21   6 C        3.109     0.086    25.944     8.345
    22   6 C        3.028    -0.042    29.007     8.834
    23   6 C        3.009    -0.057    29.405     8.895
    24   6 C        3.070     0.079    26.167     8.388
    25   8 O        1.729    -0.194    17.238     5.606
    26   8 O        0.860    -0.417    22.015     6.291
    27   6 C        3.770     0.076    19.345     6.268
    28   6 C        2.683     0.361    20.873     7.477
    29   8 O        1.653    -0.378    20.426     6.101
    30   8 O        0.856    -0.375    21.188     6.171
    31   7 N        2.760    -0.083    22.856     7.101
    32   6 C        2.761     0.258    22.652     7.794
    33   6 C        3.121     0.086    25.915     8.337
    34   6 C        3.028    -0.044    29.056     8.842
    35   6 C        3.011    -0.059    29.437     8.900
    36   6 C        3.078     0.080    26.140     8.382
    37   8 O        1.729    -0.174    16.926     5.555
    38   8 O        0.862    -0.475    23.231     6.462
    39   1 H        0.924     0.047     2.364     2.404
    40   1 H        0.925     0.080     1.979     2.200
    41   1 H        0.924     0.039     2.467     2.456
    42   1 H        0.926     0.044     2.400     2.423
    43   1 H        0.926     0.040     2.452     2.449
    44   1 H        0.926     0.038     2.478     2.462
    45   1 H        0.926     0.038     2.478     2.462
    46   1 H        0.923     0.061     2.193     2.316
    47   1 H        0.924     0.077     2.011     2.218
    48   1 H        0.926     0.039     2.463     2.454
    49   1 H        0.926     0.038     2.471     2.458
    50   1 H        0.926     0.038     2.469     2.457
    51   1 H        0.926     0.040     2.450     2.448
    52   1 H        0.924     0.048     2.349     2.397
    53   1 H        0.925     0.061     2.185     2.312
    54   1 H        0.924     0.039     2.463     2.454
    55   1 H        0.927     0.068     2.112     2.273
    56   1 H        0.926     0.050     2.314     2.379
    57   1 H        0.926     0.056     2.246     2.344
    58   1 H        0.923     0.078     1.995     2.209
    59   1 H        0.799     0.370     0.545     1.160
    60   1 H        0.926     0.068     2.103     2.268
    61   1 H        0.927     0.054     2.264     2.353
    62   1 H        0.926     0.061     2.193     2.316

 Mol. C6AA /au·bohr⁶  :      49430.567415
 Mol. C8AA /au·bohr⁸  :    1188990.916996
 Mol. α(0) /au        :        346.118959


Wiberg/Mayer (AO) data.
largest (>0.10) Wiberg bond orders for each atom

 ---------------------------------------------------------------------------
     #   Z sym  total        # sym  WBO       # sym  WBO       # sym  WBO
 ---------------------------------------------------------------------------
     1   6 C    3.936 --     4 C    1.373     8 C    1.326     2 O    1.067
     2   8 O    2.235 --     1 C    1.067     3 C    0.975
     3   6 C    3.936 --    41 H    0.977    39 H    0.977    40 H    0.975
                             2 O    0.975
     4   6 C    3.987 --     5 C    1.441     1 C    1.373    42 H    0.965
                             7 C    0.102
     5   6 C    3.990 --     4 C    1.441     6 C    1.438    43 H    0.971
                             8 C    0.106
     6   6 C    3.991 --     5 C    1.438     7 C    1.430    44 H    0.971
     7   6 C    3.989 --     6 C    1.430     8 C    1.430    45 H    0.968
                             4 C    0.102
     8   6 C    3.982 --     7 C    1.430     1 C    1.326     9 C    0.992
                             5 C    0.106
     9   6 C    3.962 --     8 C    0.992    31 N    0.961    46 H    0.950
                            10 C    0.947
    10   6 C    3.963 --    11 C    0.995    19 N    0.960    47 H    0.948
                             9 C    0.947
    11   6 C    3.983 --    12 C    1.439    16 C    1.323    10 C    0.995
                            14 C    0.106
    12   6 C    3.989 --    11 C    1.439    13 C    1.425    48 H    0.968
                            15 C    0.102
    13   6 C    3.991 --    14 C    1.444    12 C    1.425    49 H    0.971
    14   6 C    3.991 --    13 C    1.444    15 C    1.434    50 H    0.971
                            11 C    0.106
    15   6 C    3.987 --    14 C    1.434    16 C    1.382    51 H    0.966
                            12 C    0.102
    16   6 C    3.934 --    15 C    1.382    11 C    1.323    17 O    1.060
    17   8 O    2.232 --    16 C    1.060    18 C    0.983
    18   6 C    3.944 --    17 O    0.983    53 H    0.980    54 H    0.976
                            52 H    0.976
    19   7 N    3.419 --    20 C    1.162    27 C    1.001    10 C    0.960
                            26 O    0.172
    20   6 C    3.958 --    26 O    1.668    19 N    1.162    21 C    1.030
    21   6 C    3.905 --    22 C    1.527    25 O    1.098    20 C    1.030
                            24 C    0.139
    22   6 C    3.984 --    21 C    1.527    23 C    1.319    55 H    0.972
    23   6 C    3.984 --    24 C    1.586    22 C    1.319    56 H    0.974
    24   6 C    3.906 --    23 C    1.586    25 O    1.142    57 H    0.965
                            21 C    0.139
    25   8 O    2.437 --    24 C    1.142    21 C    1.098
    26   8 O    2.013 --    20 C    1.668    19 N    0.172
    27   6 C    3.956 --    19 N    1.001    31 N    0.969    58 H    0.936
                            28 C    0.881
    28   6 C    3.928 --    30 O    1.772    29 O    1.211    27 C    0.881
    29   8 O    2.230 --    28 C    1.211    59 H    0.744    30 O    0.180
    30   8 O    2.081 --    28 C    1.772    29 O    0.180
    31   7 N    3.527 --    32 C    1.275    27 C    0.969     9 C    0.961
                            38 O    0.180
    32   6 C    3.959 --    38 O    1.526    31 N    1.275    33 C    1.046
    33   6 C    3.906 --    34 C    1.511    37 O    1.102    32 C    1.046
                            36 C    0.136
    34   6 C    3.982 --    33 C    1.511    35 C    1.330    60 H    0.972
    35   6 C    3.983 --    36 C    1.573    34 C    1.330    61 H    0.973
    36   6 C    3.907 --    35 C    1.573    37 O    1.157    62 H    0.965
                            33 C    0.136
    37   8 O    2.456 --    36 C    1.157    33 C    1.102
    38   8 O    1.984 --    32 C    1.526    31 N    0.180
    39   1 H    0.998 --     3 C    0.977
    40   1 H    0.993 --     3 C    0.975
    41   1 H    0.998 --     3 C    0.977
    42   1 H    0.998 --     4 C    0.965
    43   1 H    0.998 --     5 C    0.971
    44   1 H    0.998 --     6 C    0.971
    45   1 H    0.998 --     7 C    0.968
    46   1 H    0.996 --     9 C    0.950
    47   1 H    0.993 --    10 C    0.948
    48   1 H    0.998 --    12 C    0.968
    49   1 H    0.998 --    13 C    0.971
    50   1 H    0.998 --    14 C    0.971
    51   1 H    0.998 --    15 C    0.966
    52   1 H    0.998 --    18 C    0.976
    53   1 H    0.996 --    18 C    0.980
    54   1 H    0.998 --    18 C    0.976
    55   1 H    0.995 --    22 C    0.972
    56   1 H    0.997 --    23 C    0.974
    57   1 H    0.996 --    24 C    0.965
    58   1 H    0.993 --    27 C    0.936
    59   1 H    0.863 --    29 O    0.744
    60   1 H    0.995 --    34 C    0.972
    61   1 H    0.997 --    35 C    0.973
    62   1 H    0.996 --    36 C    0.965
 ---------------------------------------------------------------------------

Topologies differ in total number of bonds
Writing topology from bond orders to xtbtopo.mol

molecular dipole:
                 x           y           z       tot (Debye)
 q only:       -2.068      -0.334       1.016
   full:       -2.350      -0.234       1.175       6.704
molecular quadrupole (traceless):
                xx          xy          yy          xz          yz          zz
 q only:       10.022       6.770      -4.798       7.251       1.166      -5.224
  q+dip:        9.509       9.518      -5.230      11.442       1.480      -4.278
   full:        9.967       8.872      -6.923      11.075       2.401      -3.044

           -------------------------------------------------
          |                Geometry Summary                 |
           -------------------------------------------------

      molecular mass/u    :      516.4998290
   center of mass at/Å    :        0.2434585       0.2264510       0.0528179
  moments of inertia/u·Å² :        0.3764320E+04   0.4783877E+04   0.6501107E+04
rotational constants/cm⁻¹ :        0.4478267E-02   0.3523843E-02   0.2593040E-02

 * 60 selected distances

     #   Z          #   Z                                           value/Å
     1   6 C        2   8 O                                       1.3613424
     2   8 O        3   6 C                                       1.4103490
     1   6 C        4   6 C                                       1.3913120
     4   6 C        5   6 C                                       1.3835126
     5   6 C        6   6 C                                       1.3818912
     6   6 C        7   6 C                                       1.3830150
     1   6 C        8   6 C                                       1.4029160
     7   6 C        8   6 C                                       1.3850354
     9   6 C       10   6 C                                       1.5433263 (max)
    11   6 C       12   6 C                                       1.3830666
    12   6 C       13   6 C                                       1.3844069
    13   6 C       14   6 C                                       1.3814705
    14   6 C       15   6 C                                       1.3851306
    11   6 C       16   6 C                                       1.4022079
    15   6 C       16   6 C                                       1.3893724
    16   6 C       17   8 O                                       1.3629268
    17   8 O       18   6 C                                       1.4059250
    10   6 C       19   7 N                                       1.4567070
    19   7 N       20   6 C                                       1.3730911
    21   6 C       22   6 C                                       1.3727663
    22   6 C       23   6 C                                       1.4099657
    23   6 C       24   6 C                                       1.3620033
    21   6 C       25   8 O                                       1.3552380
    24   6 C       25   8 O                                       1.3406804
    20   6 C       26   8 O                                       1.2156793
    19   7 N       27   6 C                                       1.4364394
    28   6 C       29   8 O                                       1.3126129
    28   6 C       30   8 O                                       1.1979533
     9   6 C       31   7 N                                       1.4514851
    27   6 C       31   7 N                                       1.4540118
    31   7 N       32   6 C                                       1.3419655
    33   6 C       34   6 C                                       1.3755510
    34   6 C       35   6 C                                       1.4082528
    35   6 C       36   6 C                                       1.3643986
    33   6 C       37   8 O                                       1.3520508
    36   6 C       37   8 O                                       1.3357879
    32   6 C       38   8 O                                       1.2392838
     3   6 C       39   1 H                                       1.0933739
     3   6 C       40   1 H                                       1.0881854
     3   6 C       41   1 H                                       1.0944957
     4   6 C       42   1 H                                       1.0780220
     5   6 C       43   1 H                                       1.0797882
     6   6 C       44   1 H                                       1.0791022
     7   6 C       45   1 H                                       1.0801237
     9   6 C       46   1 H                                       1.0984490
    10   6 C       47   1 H                                       1.0972971
    12   6 C       48   1 H                                       1.0799433
    13   6 C       49   1 H                                       1.0790916
    14   6 C       50   1 H                                       1.0800024
    15   6 C       51   1 H                                       1.0786018
    18   6 C       52   1 H                                       1.0942852
    18   6 C       53   1 H                                       1.0890747
    18   6 C       54   1 H                                       1.0952341
    22   6 C       55   1 H                                       1.0699186 (min)
    23   6 C       56   1 H                                       1.0704298
    24   6 C       57   1 H                                       1.0725994
    27   6 C       58   1 H                                       1.1008725
    34   6 C       60   1 H                                       1.0703579
    35   6 C       61   1 H                                       1.0702490
    36   6 C       62   1 H                                       1.0724682

 * 4 distinct bonds (by element types)

   Z      Z             #   av. dist./Å        max./Å        min./Å
   1 H    6 C          23     1.0831289     1.1008725     1.0699186
   6 C    6 C          19     1.3941895     1.5433263     1.3620033
   6 C    7 N           6     1.4189500     1.4567070     1.3419655
   6 C    8 O          12     1.3241525     1.4103490     1.1979533


optimized geometry written to: xtbopt.xyz


           -------------------------------------------------
          | TOTAL ENERGY             -110.624124126597 Eh   |
          | GRADIENT NORM               0.000607247961 Eh/α |
          | HOMO-LUMO GAP               2.646527615687 eV   |
           -------------------------------------------------

------------------------------------------------------------------------
 * finished run on 2022/03/17 at 01:51:06.509     
------------------------------------------------------------------------
 total:
 * wall-time:     0 d,  0 h,  0 min, 36.436 sec
 *  cpu-time:     0 d,  0 h, 14 min, 55.504 sec
 * ratio c/w:    24.577 speedup
 SCF:
 * wall-time:     0 d,  0 h,  0 min,  0.438 sec
 *  cpu-time:     0 d,  0 h,  0 min,  8.499 sec
 * ratio c/w:    19.408 speedup
 ANC optimizer:
 * wall-time:     0 d,  0 h,  0 min, 35.856 sec
 *  cpu-time:     0 d,  0 h, 14 min, 43.020 sec
 * ratio c/w:    24.627 speedup

