      -----------------------------------------------------------      
     |                   =====================                   |     
     |                           x T B                           |     
     |                   =====================                   |     
     |                         S. Grimme                         |     
     |          Mulliken Center for Theoretical Chemistry        |     
     |                    University of Bonn                     |     
      -----------------------------------------------------------      

   * xtb version 6.3.3 (4ae9cef) compiled by 'conda@95abc7406d43' on 2020-10-14

   xtb is free software: you can redistribute it and/or modify it under
   the terms of the GNU Lesser General Public License as published by
   the Free Software Foundation, either version 3 of the License, or
   (at your option) any later version.
   
   xtb is distributed in the hope that it will be useful,
   but WITHOUT ANY WARRANTY; without even the implied warranty of
   MERCHANTABILITY or FITNESS FOR A PARTICULAR PURPOSE.  See the
   GNU Lesser General Public License for more details.
   
   Cite this work as:
   * C. Bannwarth, E. Caldeweyher, S. Ehlert, A. Hansen, P. Pracht,
     J. Seibert, S. Spicher, S. Grimme, WIREs Comput. Mol. Sci., 2020,
     e01493. DOI: 10.1002/wcms.1493
   
   for GFN2-xTB:
   * S. Grimme, C. Bannwarth, P. Shushkov, J. Chem. Theory Comput., 2017,
     13, 1989-2009. DOI: 10.1021/acs.jctc.7b00118
   for GFN1-xTB:
   * C. Bannwarth, S. Ehlert and S. Grimme., J. Chem. Theory Comput., 2019,
     15, 1652-1671. DOI: 10.1021/acs.jctc.8b01176
   for GFN0-xTB:
   * P. Pracht, E. Caldeweyher, S. Ehlert, S. Grimme, ChemRxiv, 2019, preprint.
     DOI: 10.26434/chemrxiv.8326202.v1
   for GFN-FF:
   * S. Spicher and S. Grimme, Angew. Chem. Int. Ed., 2020, 59, 15665-15673.
     DOI: 10.1002/anie.202004239
   
   for DFT-D4:
   * E. Caldeweyher, C. Bannwarth and S. Grimme, J. Chem. Phys., 2017,
     147, 034112. DOI: 10.1063/1.4993215
   * E. Caldeweyher, S. Ehlert, A. Hansen, H. Neugebauer, S. Spicher,
     C. Bannwarth and S. Grimme, J. Chem. Phys., 2019, 150, 154122.
     DOI: 10.1063/1.5090222
   * E. Caldeweyher, J.-M. Mewes, S. Ehlert and S. Grimme, Phys. Chem. Chem. Phys.
     2020, 22, 8499-8512. DOI: 10.1039/D0CP00502A
   
   for sTDA-xTB:
   * S. Grimme and C. Bannwarth, J. Chem. Phys., 2016, 145, 054103.
     DOI: 10.1063/1.4959605
   
   in the mass-spec context:
   * V. Asgeirsson, C. Bauer and S. Grimme, Chem. Sci., 2017, 8, 4879.
     DOI: 10.1039/c7sc00601b
   * J. Koopman and S. Grimme, ACS Omega 2019, 4, 12, 15120-15133.
     DOI: 10.1021/acsomega.9b02011
   
   for metadynamics refer to:
   * S. Grimme, J. Chem. Theory Comput., 2019, 155, 2847-2862
     DOI: 10.1021/acs.jctc.9b00143
   
   with help from (in alphabetical order)
   C. Bannwarth, F. Bohle, G. Brandenburg, E. Caldeweyher, M. Checinski,
   S. Dohm, S. Ehlert, S. Ehrlich, F. März, H. Neugebauer, J. Pisarek,
   P. Pracht, P. Shushkov, and S. Spicher.
   
 * started run on 2022/03/16 at 23:16:07.813     

           -------------------------------------------------
          |                Calculation Setup                |
           -------------------------------------------------

          program call               : xtb acid_276.xyz --opt --chrg 0 --uhf 0 --gfn 2
          coordinate file            : acid_276.xyz
          omp threads                :                    64
          number of atoms            :                    54
          number of electrons        :                   170
          charge                     :                     0
          spin                       :                   0.0
          first test random number   :      0.37150721290415

   ID    Z sym.   atoms
    1    8 O      1, 5, 11, 12, 17, 20
    2    6 C      2-4, 6, 7, 9, 10, 14-16, 18, 19, 21-34
    3    7 N      8, 13
    4    1 H      35-54

           -------------------------------------------------
          |                 G F N 2 - x T B                 |
           -------------------------------------------------

        Reference                      10.1021/acs.jctc.8b01176
      * Hamiltonian:
        H0-scaling (s, p, d)           1.850000    2.230000    2.230000
        zeta-weighting                 0.500000
      * Dispersion:
        s8                             2.700000
        a1                             0.520000
        a2                             5.000000
        s9                             5.000000
      * Repulsion:
        kExp                           1.500000    1.000000
        rExp                           1.000000
      * Coulomb:
        alpha                          2.000000
        third order                    shell-resolved
        anisotropic                    true
        a3                             3.000000
        a5                             4.000000
        cn-shift                       1.200000
        cn-exp                         4.000000
        max-rad                        5.000000


          ...................................................
          :                      SETUP                      :
          :.................................................:
          :  # basis functions                 156          :
          :  # atomic orbitals                 156          :
          :  # shells                           88          :
          :  # electrons                       170          :
          :  max. iterations                   250          :
          :  Hamiltonian                  GFN2-xTB          :
          :  restarted?                      false          :
          :  GBSA solvation                  false          :
          :  PC potential                    false          :
          :  electronic temp.          300.0000000     K    :
          :  accuracy                    1.0000000          :
          :  -> integral cutoff          0.2500000E+02      :
          :  -> integral neglect         0.1000000E-07      :
          :  -> SCF convergence          0.1000000E-05 Eh   :
          :  -> wf. convergence          0.1000000E-03 e    :
          :  Broyden damping             0.4000000          :
          ...................................................

 iter      E             dE          RMSdq      gap      omega  full diag
   1    -97.2126838 -0.972127E+02  0.454E+00    3.38       0.0  T
   2    -97.3474160 -0.134732E+00  0.272E+00    3.19       1.0  T
   3    -97.3462687  0.114722E-02  0.141E+00    3.41       1.0  T
   4    -97.3700764 -0.238077E-01  0.335E-01    3.01       1.0  T
   5    -97.3749203 -0.484386E-02  0.990E-02    2.97       1.0  T
   6    -97.3751287 -0.208427E-03  0.462E-02    3.02       1.0  T
   7    -97.3751647 -0.359854E-04  0.202E-02    3.02       1.0  T
   8    -97.3751657 -0.944137E-06  0.738E-03    3.03       1.8  T
   9    -97.3751674 -0.170060E-05  0.294E-03    3.03       4.6  T
  10    -97.3751675 -0.101766E-06  0.133E-03    3.03      10.2  T
  11    -97.3751675 -0.353016E-07  0.556E-04    3.03      24.5  T
  12    -97.3751675 -0.388638E-08  0.247E-04    3.03      55.0  T

   *** convergence criteria satisfied after 12 iterations ***

         #    Occupation            Energy/Eh            Energy/eV
      -------------------------------------------------------------
         1        2.0000           -0.7774692             -21.1560
       ...           ...                  ...                  ...
        79        2.0000           -0.4100875             -11.1590
        80        2.0000           -0.4083487             -11.1117
        81        2.0000           -0.4078523             -11.0982
        82        2.0000           -0.4051533             -11.0248
        83        2.0000           -0.4015043             -10.9255
        84        2.0000           -0.3982644             -10.8373
        85        2.0000           -0.3954258             -10.7601 (HOMO)
        86                         -0.2840882              -7.7304 (LUMO)
        87                         -0.2660410              -7.2393
        88                         -0.2503649              -6.8128
        89                         -0.2368543              -6.4451
        90                         -0.2316746              -6.3042
       ...                                ...                  ...
       156                          0.6515047              17.7283
      -------------------------------------------------------------
                  HL-Gap            0.1113376 Eh            3.0297 eV
             Fermi-level           -0.3397570 Eh           -9.2453 eV

 SCC (total)                   0 d,  0 h,  0 min,  0.381 sec
 SCC setup                      ...        0 min,  0.024 sec (  6.258%)
 Dispersion                     ...        0 min,  0.013 sec (  3.335%)
 classical contributions        ...        0 min,  0.020 sec (  5.238%)
 integral evaluation            ...        0 min,  0.059 sec ( 15.385%)
 iterations                     ...        0 min,  0.127 sec ( 33.463%)
 molecular gradient             ...        0 min,  0.137 sec ( 36.001%)
 printout                       ...        0 min,  0.001 sec (  0.297%)

         :::::::::::::::::::::::::::::::::::::::::::::::::::::
         ::                     SUMMARY                     ::
         :::::::::::::::::::::::::::::::::::::::::::::::::::::
         :: total energy             -96.119753281983 Eh    ::
         :: gradient norm              0.101133831869 Eh/a0 ::
         :: HOMO-LUMO gap              3.029650339782 eV    ::
         ::.................................................::
         :: SCC energy               -97.375167498579 Eh    ::
         :: -> isotropic ES            0.130343764037 Eh    ::
         :: -> anisotropic ES          0.005639294574 Eh    ::
         :: -> anisotropic XC          0.033328832442 Eh    ::
         :: -> dispersion             -0.071680046232 Eh    ::
         :: repulsion energy           1.253703238107 Eh    ::
         :: add. restraining           0.000000000000 Eh    ::
         :: total charge              -0.000000000000 e     ::
         :::::::::::::::::::::::::::::::::::::::::::::::::::::

      ----------------------------------------------------------- 
     |                   =====================                   |
     |                        A N C O P T                        |
     |                   =====================                   |
     |               Approximate Normal Coordinate               |
     |                Rational Function Optimizer                |
      ----------------------------------------------------------- 

          ...................................................
          :                      SETUP                      :
          :.................................................:
          :   optimization level            normal          :
          :   max. optcycles                   200          :
          :   ANC micro-cycles                  20          :
          :   degrees of freedom               156          :
          :.................................................:
          :   RF solver                   davidson          :
          :   write xtbopt.log                true          :
          :   linear?                        false          :
          :   energy convergence         0.5000000E-05 Eh   :
          :   grad. convergence          0.1000000E-02 Eh/α :
          :   maximium RF displ.         1.0000000          :
          :   Hlow (freq-cutoff)         0.1000000E-01      :
          :   Hmax (freq-cutoff)         5.0000000          :
          :   S6 in model hess.         20.0000000          :
          ...................................................

generating ANC from model Hessian ...
Using Lindh-Hessian (1995)
 Shifting diagonal of input Hessian by    9.7760196695907842E-003
 Lowest  eigenvalues of input Hessian
    0.000000    0.000000    0.000000    0.000000    0.000000    0.000000
    0.010000    0.010229    0.010323    0.010497    0.010684    0.010753
    0.010940    0.011033    0.011114    0.011657    0.011828    0.013458
 Highest eigenvalues
    1.943937    2.014241    2.029872    2.229696    2.274235    2.276713


........................................................................
.............................. CYCLE    1 ..............................
........................................................................
   1    -97.3751675 -0.973752E+02  0.111E-04    3.03       0.0  T
   2    -97.3751675 -0.187399E-09  0.736E-05    3.03     184.8  T
   3    -97.3751675 -0.176257E-09  0.435E-05    3.03     312.9  T
     SCC iter.                  ...        0 min,  0.036 sec
     gradient                   ...        0 min,  0.152 sec
 * total energy  :   -96.1197533 Eh     change       -0.1355403E-08 Eh
   gradient norm :     0.1011324 Eh/α   predicted     0.0000000E+00 (-100.00%)
   displ. norm   :     0.3374718 α      lambda       -0.1681241E-01
   maximum displ.:     0.1291263 α      in ANC's #24, #18, #47, ...

........................................................................
.............................. CYCLE    2 ..............................
........................................................................
   1    -97.4486226 -0.974486E+02  0.185E-01    3.26       0.0  T
   2    -97.4487798 -0.157169E-03  0.115E-01    3.23       1.0  T
   3    -97.4487453  0.345130E-04  0.637E-02    3.23       1.0  T
   4    -97.4488558 -0.110485E-03  0.995E-03    3.22       1.4  T
   5    -97.4488590 -0.320339E-05  0.339E-03    3.22       4.0  T
   6    -97.4488591 -0.133928E-06  0.181E-03    3.22       7.5  T
   7    -97.4488591 -0.165495E-07  0.602E-04    3.22      22.6  T
   8    -97.4488591 -0.798040E-08  0.288E-04    3.22      47.3  T
     SCC iter.                  ...        0 min,  0.086 sec
     gradient                   ...        0 min,  0.134 sec
 * total energy  :   -96.1310827 Eh     change       -0.1132938E-01 Eh
   gradient norm :     0.0377976 Eh/α   predicted    -0.9363564E-02 ( -17.35%)
   displ. norm   :     0.3298407 α      lambda       -0.4943796E-02
   maximum displ.:     0.1499401 α      in ANC's #24, #18, #17, ...

........................................................................
.............................. CYCLE    3 ..............................
........................................................................
   1    -97.4827152 -0.974827E+02  0.120E-01    3.31       0.0  T
   2    -97.4827996 -0.843933E-04  0.768E-02    3.29       1.0  T
   3    -97.4828059 -0.628481E-05  0.423E-02    3.29       1.0  T
   4    -97.4828446 -0.387255E-04  0.691E-03    3.28       2.0  T
   5    -97.4828461 -0.150681E-05  0.208E-03    3.28       6.5  T
   6    -97.4828462 -0.474639E-07  0.113E-03    3.28      12.0  T
   7    -97.4828462 -0.863287E-08  0.429E-04    3.28      31.7  T
   8    -97.4828462 -0.356071E-08  0.193E-04    3.28      70.4  T
     SCC iter.                  ...        0 min,  0.077 sec
     gradient                   ...        0 min,  0.158 sec
 * total energy  :   -96.1341377 Eh     change       -0.3054986E-02 Eh
   gradient norm :     0.0129056 Eh/α   predicted    -0.2740831E-02 ( -10.28%)
   displ. norm   :     0.2549028 α      lambda       -0.1271499E-02
   maximum displ.:     0.1086931 α      in ANC's #18, #17, #24, ...

........................................................................
.............................. CYCLE    4 ..............................
........................................................................
   1    -97.4865501 -0.974866E+02  0.723E-02    3.28       0.0  T
   2    -97.4865673 -0.172811E-04  0.444E-02    3.28       1.0  T
   3    -97.4865576  0.974711E-05  0.211E-02    3.27       1.0  T
   4    -97.4865737 -0.161117E-04  0.377E-03    3.27       3.6  T
   5    -97.4865743 -0.598948E-06  0.123E-03    3.27      11.1  T
   6    -97.4865743 -0.105081E-07  0.655E-04    3.27      20.8  T
   7    -97.4865743 -0.359412E-08  0.209E-04    3.27      65.0  T
     SCC iter.                  ...        0 min,  0.072 sec
     gradient                   ...        0 min,  0.140 sec
 * total energy  :   -96.1349965 Eh     change       -0.8587985E-03 Eh
   gradient norm :     0.0091206 Eh/α   predicted    -0.6771122E-03 ( -21.16%)
   displ. norm   :     0.2597848 α      lambda       -0.6838505E-03
   maximum displ.:     0.0984468 α      in ANC's #17, #15, #18, ...

........................................................................
.............................. CYCLE    5 ..............................
........................................................................
   1    -97.4856021 -0.974856E+02  0.678E-02    3.27       0.0  T
   2    -97.4856096 -0.751933E-05  0.403E-02    3.26       1.0  T
   3    -97.4856021  0.752763E-05  0.147E-02    3.26       1.0  T
   4    -97.4856119 -0.977019E-05  0.279E-03    3.26       4.9  T
   5    -97.4856122 -0.325814E-06  0.113E-03    3.26      12.0  T
   6    -97.4856122 -0.931627E-08  0.573E-04    3.26      23.8  T
   7    -97.4856122 -0.368806E-08  0.181E-04    3.26      75.2  T
     SCC iter.                  ...        0 min,  0.077 sec
     gradient                   ...        0 min,  0.147 sec
 * total energy  :   -96.1354603 Eh     change       -0.4638904E-03 Eh
   gradient norm :     0.0066392 Eh/α   predicted    -0.3650014E-03 ( -21.32%)
   displ. norm   :     0.2512045 α      lambda       -0.3912887E-03
   maximum displ.:     0.0999091 α      in ANC's #9, #5, #15, ...

........................................................................
.............................. CYCLE    6 ..............................
........................................................................
   1    -97.4840967 -0.974841E+02  0.682E-02    3.25       0.0  T
   2    -97.4841005 -0.380870E-05  0.404E-02    3.25       1.0  T
   3    -97.4840946  0.589671E-05  0.116E-02    3.25       1.2  T
   4    -97.4841017 -0.715247E-05  0.227E-03    3.25       6.0  T
   5    -97.4841019 -0.189764E-06  0.990E-04    3.25      13.7  T
   6    -97.4841019 -0.383513E-08  0.456E-04    3.25      29.8  T
     SCC iter.                  ...        0 min,  0.061 sec
     gradient                   ...        0 min,  0.138 sec
 * total energy  :   -96.1357505 Eh     change       -0.2901796E-03 Eh
   gradient norm :     0.0053263 Eh/α   predicted    -0.2080041E-03 ( -28.32%)
   displ. norm   :     0.3262179 α      lambda       -0.3844592E-03
   maximum displ.:     0.1380640 α      in ANC's #9, #5, #4, ...

........................................................................
.............................. CYCLE    7 ..............................
........................................................................
   1    -97.4829944 -0.974830E+02  0.892E-02    3.24       0.0  T
   2    -97.4830015 -0.704924E-05  0.526E-02    3.24       1.0  T
   3    -97.4829921  0.930979E-05  0.151E-02    3.24       1.0  T
   4    -97.4830034 -0.112140E-04  0.310E-03    3.24       4.4  T
   5    -97.4830038 -0.408836E-06  0.119E-03    3.24      11.4  T
   6    -97.4830038 -0.431429E-08  0.557E-04    3.24      24.4  T
   7    -97.4830038 -0.517331E-08  0.186E-04    3.24      73.2  T
     SCC iter.                  ...        0 min,  0.072 sec
     gradient                   ...        0 min,  0.137 sec
 * total energy  :   -96.1360455 Eh     change       -0.2949941E-03 Eh
   gradient norm :     0.0070665 Eh/α   predicted    -0.2126869E-03 ( -27.90%)
   displ. norm   :     0.3831630 α      lambda       -0.4007351E-03
   maximum displ.:     0.1668560 α      in ANC's #5, #9, #4, ...

........................................................................
.............................. CYCLE    8 ..............................
........................................................................
   1    -97.4831080 -0.974831E+02  0.104E-01    3.22       0.0  T
   2    -97.4831140 -0.603111E-05  0.611E-02    3.22       1.0  T
   3    -97.4831040  0.100382E-04  0.150E-02    3.23       1.0  T
   4    -97.4831161 -0.120909E-04  0.282E-03    3.23       4.8  T
   5    -97.4831163 -0.274291E-06  0.130E-03    3.23      10.5  T
   6    -97.4831163 -0.597780E-08  0.578E-04    3.23      23.5  T
   7    -97.4831163 -0.574254E-08  0.199E-04    3.23      68.5  T
     SCC iter.                  ...        0 min,  0.077 sec
     gradient                   ...        0 min,  0.124 sec
 * total energy  :   -96.1363619 Eh     change       -0.3163548E-03 Eh
   gradient norm :     0.0083391 Eh/α   predicted    -0.2297900E-03 ( -27.36%)
   displ. norm   :     0.4385402 α      lambda       -0.4343170E-03
   maximum displ.:     0.1938342 α      in ANC's #5, #4, #9, ...

........................................................................
.............................. CYCLE    9 ..............................
........................................................................
   1    -97.4838617 -0.974839E+02  0.119E-01    3.20       0.0  T
   2    -97.4838707 -0.892718E-05  0.697E-02    3.20       1.0  T
   3    -97.4838596  0.110754E-04  0.153E-02    3.21       1.0  T
   4    -97.4838731 -0.135047E-04  0.320E-03    3.21       4.3  T
   5    -97.4838735 -0.453099E-06  0.144E-03    3.21       9.5  T
   6    -97.4838735 -0.934828E-08  0.669E-04    3.21      20.3  T
   7    -97.4838736 -0.872058E-08  0.226E-04    3.21      60.1  T
     SCC iter.                  ...        0 min,  0.072 sec
     gradient                   ...        0 min,  0.129 sec
 * total energy  :   -96.1367027 Eh     change       -0.3408601E-03 Eh
   gradient norm :     0.0078055 Eh/α   predicted    -0.2589424E-03 ( -24.03%)
   displ. norm   :     0.4502328 α      lambda       -0.4106248E-03
   maximum displ.:     0.2007560 α      in ANC's #5, #4, #2, ...

........................................................................
.............................. CYCLE   10 ..............................
........................................................................
   1    -97.4860609 -0.974861E+02  0.119E-01    3.18       0.0  T
   2    -97.4860661 -0.515558E-05  0.699E-02    3.18       1.0  T
   3    -97.4860557  0.103669E-04  0.141E-02    3.19       1.0  T
   4    -97.4860684 -0.127151E-04  0.234E-03    3.19       5.8  T
   5    -97.4860685 -0.789606E-07  0.133E-03    3.18      10.2  T
   6    -97.4860685 -0.190626E-07  0.575E-04    3.18      23.6  T
   7    -97.4860685 -0.355342E-08  0.204E-04    3.18      66.8  T
     SCC iter.                  ...        0 min,  0.072 sec
     gradient                   ...        0 min,  0.135 sec
 * total energy  :   -96.1370081 Eh     change       -0.3053368E-03 Eh
   gradient norm :     0.0057715 Eh/α   predicted    -0.2469320E-03 ( -19.13%)
   displ. norm   :     0.4824462 α      lambda       -0.3248080E-03
   maximum displ.:     0.2161711 α      in ANC's #5, #4, #2, ...

........................................................................
.............................. CYCLE   11 ..............................
........................................................................
   1    -97.4843668 -0.974844E+02  0.129E-01    3.15       0.0  T
   2    -97.4843857 -0.189467E-04  0.765E-02    3.15       1.0  T
   3    -97.4843661  0.195996E-04  0.218E-02    3.16       1.0  T
   4    -97.4843903 -0.241610E-04  0.437E-03    3.15       3.1  T
   5    -97.4843911 -0.875364E-06  0.161E-03    3.15       8.5  T
   6    -97.4843912 -0.175962E-07  0.854E-04    3.15      15.9  T
   7    -97.4843912 -0.829520E-08  0.303E-04    3.15      44.9  T
     SCC iter.                  ...        0 min,  0.066 sec
     gradient                   ...        0 min,  0.151 sec
 * total energy  :   -96.1372176 Eh     change       -0.2095117E-03 Eh
   gradient norm :     0.0079106 Eh/α   predicted    -0.2002100E-03 (  -4.44%)
   displ. norm   :     0.3626095 α      lambda       -0.2725598E-03
   maximum displ.:     0.1584998 α      in ANC's #5, #2, #4, ...

........................................................................
.............................. CYCLE   12 ..............................
........................................................................
   1    -97.4878466 -0.974878E+02  0.941E-02    3.15       0.0  T
   2    -97.4878541 -0.750676E-05  0.554E-02    3.15       1.0  T
   3    -97.4878487  0.533877E-05  0.125E-02    3.15       1.1  T
   4    -97.4878554 -0.670207E-05  0.263E-03    3.15       5.2  T
   5    -97.4878557 -0.244523E-06  0.117E-03    3.15      11.7  T
   6    -97.4878557 -0.182891E-07  0.597E-04    3.15      22.8  T
   7    -97.4878557 -0.221631E-08  0.214E-04    3.15      63.5  T
     SCC iter.                  ...        0 min,  0.079 sec
     gradient                   ...        0 min,  0.120 sec
 * total energy  :   -96.1373833 Eh     change       -0.1657668E-03 Eh
   gradient norm :     0.0074655 Eh/α   predicted    -0.1542007E-03 (  -6.98%)
   displ. norm   :     0.3424400 α      lambda       -0.1494590E-03
   maximum displ.:     0.1550837 α      in ANC's #5, #2, #4, ...

........................................................................
.............................. CYCLE   13 ..............................
........................................................................
   1    -97.4856468 -0.974856E+02  0.880E-02    3.14       0.0  T
   2    -97.4856491 -0.232926E-05  0.519E-02    3.14       1.0  T
   3    -97.4856443  0.483892E-05  0.991E-03    3.15       1.4  T
   4    -97.4856502 -0.587981E-05  0.176E-03    3.14       7.8  T
   5    -97.4856502 -0.578442E-07  0.972E-04    3.14      14.0  T
   6    -97.4856502 -0.641502E-08  0.444E-04    3.14      30.7  T
     SCC iter.                  ...        0 min,  0.068 sec
     gradient                   ...        0 min,  0.136 sec
 * total energy  :   -96.1374938 Eh     change       -0.1104890E-03 Eh
   gradient norm :     0.0064394 Eh/α   predicted    -0.8352375E-04 ( -24.41%)
   displ. norm   :     0.3426989 α      lambda       -0.2341731E-03
   maximum displ.:     0.1508379 α      in ANC's #2, #8, #5, ...

........................................................................
.............................. CYCLE   14 ..............................
........................................................................
   1    -97.4898274 -0.974898E+02  0.899E-02    3.17       0.0  T
   2    -97.4898341 -0.665878E-05  0.527E-02    3.16       1.0  T
   3    -97.4898228  0.112886E-04  0.175E-02    3.17       1.0  T
   4    -97.4898365 -0.136772E-04  0.258E-03    3.17       5.3  T
   5    -97.4898367 -0.217896E-06  0.106E-03    3.16      12.8  T
   6    -97.4898367 -0.112273E-07  0.540E-04    3.16      25.2  T
   7    -97.4898367 -0.902347E-09  0.175E-04    3.16      78.0  T
     SCC iter.                  ...        0 min,  0.076 sec
     gradient                   ...        0 min,  0.053 sec
 * total energy  :   -96.1376273 Eh     change       -0.1335122E-03 Eh
   gradient norm :     0.0056801 Eh/α   predicted    -0.1308410E-03 (  -2.00%)
   displ. norm   :     0.3443007 α      lambda       -0.1560694E-03
   maximum displ.:     0.1628856 α      in ANC's #8, #2, #5, ...

........................................................................
.............................. CYCLE   15 ..............................
........................................................................
   1    -97.4870484 -0.974870E+02  0.882E-02    3.14       0.0  T
   2    -97.4870507 -0.229687E-05  0.521E-02    3.15       1.0  T
   3    -97.4870441  0.662227E-05  0.118E-02    3.15       1.2  T
   4    -97.4870520 -0.787185E-05  0.164E-03    3.15       8.3  T
   5    -97.4870520 -0.354172E-07  0.923E-04    3.15      14.7  T
   6    -97.4870520 -0.171434E-08  0.371E-04    3.15      36.6  T
     SCC iter.                  ...        0 min,  0.066 sec
     gradient                   ...        0 min,  0.145 sec
 * total energy  :   -96.1377385 Eh     change       -0.1111768E-03 Eh
   gradient norm :     0.0057984 Eh/α   predicted    -0.8729152E-04 ( -21.48%)
   displ. norm   :     0.2685143 α      lambda       -0.1864405E-03
   maximum displ.:     0.1419868 α      in ANC's #8, #2, #7, ...

........................................................................
.............................. CYCLE   16 ..............................
........................................................................
   1    -97.4875433 -0.974875E+02  0.746E-02    3.15       0.0  T
   2    -97.4875456 -0.236436E-05  0.438E-02    3.15       1.0  T
   3    -97.4875424  0.319317E-05  0.879E-03    3.15       1.5  T
   4    -97.4875463 -0.388057E-05  0.179E-03    3.15       7.6  T
   5    -97.4875464 -0.103270E-06  0.817E-04    3.15      16.7  T
   6    -97.4875464 -0.126110E-08  0.366E-04    3.15      37.2  T
     SCC iter.                  ...        0 min,  0.062 sec
     gradient                   ...        0 min,  0.146 sec
 * total energy  :   -96.1378833 Eh     change       -0.1447511E-03 Eh
   gradient norm :     0.0071688 Eh/α   predicted    -0.9994168E-04 ( -30.96%)
   displ. norm   :     0.3933413 α      lambda       -0.2475544E-03
   maximum displ.:     0.2013458 α      in ANC's #8, #2, #7, ...

........................................................................
.............................. CYCLE   17 ..............................
........................................................................
   1    -97.4864754 -0.974865E+02  0.110E-01    3.15       0.0  T
   2    -97.4864800 -0.461055E-05  0.647E-02    3.15       1.0  T
   3    -97.4864705  0.953158E-05  0.141E-02    3.15       1.0  T
   4    -97.4864820 -0.114606E-04  0.223E-03    3.16       6.1  T
   5    -97.4864821 -0.102427E-06  0.119E-03    3.16      11.4  T
   6    -97.4864821 -0.107075E-07  0.568E-04    3.15      23.9  T
   7    -97.4864821 -0.276660E-08  0.218E-04    3.15      62.4  T
     SCC iter.                  ...        0 min,  0.072 sec
     gradient                   ...        0 min,  0.143 sec
 * total energy  :   -96.1380582 Eh     change       -0.1748789E-03 Eh
   gradient norm :     0.0066373 Eh/α   predicted    -0.1429359E-03 ( -18.27%)
   displ. norm   :     0.3406122 α      lambda       -0.2020925E-03
   maximum displ.:     0.1616751 α      in ANC's #8, #2, #9, ...

........................................................................
.............................. CYCLE   18 ..............................
........................................................................
   1    -97.4871548 -0.974872E+02  0.101E-01    3.17       0.0  T
   2    -97.4871593 -0.451792E-05  0.595E-02    3.17       1.0  T
   3    -97.4871493  0.100096E-04  0.156E-02    3.17       1.0  T
   4    -97.4871613 -0.119866E-04  0.218E-03    3.17       6.2  T
   5    -97.4871614 -0.104238E-06  0.116E-03    3.17      11.8  T
   6    -97.4871614 -0.505771E-08  0.556E-04    3.17      24.5  T
   7    -97.4871614 -0.372255E-08  0.171E-04    3.17      79.5  T
     SCC iter.                  ...        0 min,  0.072 sec
     gradient                   ...        0 min,  0.133 sec
 * total energy  :   -96.1381833 Eh     change       -0.1251566E-03 Eh
   gradient norm :     0.0061909 Eh/α   predicted    -0.1127702E-03 (  -9.90%)
   displ. norm   :     0.3762186 α      lambda       -0.1394186E-03
   maximum displ.:     0.1924865 α      in ANC's #8, #2, #7, ...

........................................................................
.............................. CYCLE   19 ..............................
........................................................................
   1    -97.4845448 -0.974845E+02  0.103E-01    3.17       0.0  T
   2    -97.4845495 -0.461817E-05  0.609E-02    3.17       1.0  T
   3    -97.4845377  0.117324E-04  0.159E-02    3.18       1.0  T
   4    -97.4845516 -0.138536E-04  0.199E-03    3.17       6.8  T
   5    -97.4845517 -0.729191E-07  0.103E-03    3.17      13.2  T
   6    -97.4845517 -0.745126E-08  0.537E-04    3.17      25.3  T
   7    -97.4845517 -0.255122E-08  0.207E-04    3.17      65.6  T
     SCC iter.                  ...        0 min,  0.071 sec
     gradient                   ...        0 min,  0.127 sec
 * total energy  :   -96.1382670 Eh     change       -0.8373279E-04 Eh
   gradient norm :     0.0054746 Eh/α   predicted    -0.7957617E-04 (  -4.96%)
   displ. norm   :     0.1504258 α      lambda       -0.1377857E-03
   maximum displ.:     0.0519783 α      in ANC's #9, #8, #4, ...

........................................................................
.............................. CYCLE   20 ..............................
........................................................................
   1    -97.4896186 -0.974896E+02  0.483E-02    3.18       0.0  T
   2    -97.4896214 -0.284416E-05  0.282E-02    3.18       1.0  T
   3    -97.4896185  0.293914E-05  0.939E-03    3.18       1.4  T
   4    -97.4896222 -0.367523E-05  0.175E-03    3.18       7.8  T
   5    -97.4896223 -0.103103E-06  0.708E-04    3.18      19.2  T
   6    -97.4896223 -0.350273E-08  0.362E-04    3.18      37.6  T
     SCC iter.                  ...        0 min,  0.061 sec
     gradient                   ...        0 min,  0.147 sec
 * total energy  :   -96.1383214 Eh     change       -0.5437610E-04 Eh
   gradient norm :     0.0058858 Eh/α   predicted    -0.7045557E-04 (  29.57%)
   displ. norm   :     0.1648297 α      lambda       -0.6916815E-04
   maximum displ.:     0.0806065 α      in ANC's #8, #2, #5, ...
 * RMSD in coord.:     0.6863425 α      energy gain  -0.1856814E-01 Eh

generating ANC from model Hessian ...
Using Lindh-Hessian (1995)
 Shifting diagonal of input Hessian by    9.7712584877164485E-003
 Lowest  eigenvalues of input Hessian
    0.000000    0.000000    0.000000    0.000000    0.000000    0.000000
    0.010000    0.010265    0.010391    0.010654    0.010775    0.010841
    0.011052    0.011087    0.011296    0.011827    0.012520    0.013609
 Highest eigenvalues
    2.030338    2.062366    2.067756    2.356295    2.364802    2.390284


........................................................................
.............................. CYCLE   21 ..............................
........................................................................
   1    -97.4880857 -0.974881E+02  0.490E-02    3.19       0.0  T
   2    -97.4880865 -0.786211E-06  0.288E-02    3.18       1.0  T
   3    -97.4880834  0.309888E-05  0.841E-03    3.19       1.6  T
   4    -97.4880870 -0.361982E-05  0.922E-04    3.19      14.8  T
   5    -97.4880870 -0.144365E-07  0.496E-04    3.19      27.4  T
   6    -97.4880870 -0.677375E-09  0.201E-04    3.19      67.6  T
     SCC iter.                  ...        0 min,  0.062 sec
     gradient                   ...        0 min,  0.134 sec
 * total energy  :   -96.1383619 Eh     change       -0.4046874E-04 Eh
   gradient norm :     0.0038138 Eh/α   predicted     0.0000000E+00 (-100.00%)
   displ. norm   :     0.0365829 α      lambda       -0.3689636E-04
   maximum displ.:     0.0175899 α      in ANC's #10, #11, #9, ...

........................................................................
.............................. CYCLE   22 ..............................
........................................................................
   1    -97.4887523 -0.974888E+02  0.135E-02    3.18       0.0  T
   2    -97.4887526 -0.269524E-06  0.790E-03    3.18       1.7  T
   3    -97.4887523  0.293554E-06  0.333E-03    3.18       4.1  T
   4    -97.4887526 -0.381130E-06  0.543E-04    3.18      25.0  T
   5    -97.4887527 -0.899551E-08  0.209E-04    3.18      65.0  T
     SCC iter.                  ...        0 min,  0.068 sec
     gradient                   ...        0 min,  0.133 sec
 * total energy  :   -96.1383903 Eh     change       -0.2843889E-04 Eh
   gradient norm :     0.0017617 Eh/α   predicted    -0.1849443E-04 ( -34.97%)
   displ. norm   :     0.1439009 α      lambda       -0.5123695E-04
   maximum displ.:     0.0719236 α      in ANC's #10, #11, #9, ...

........................................................................
.............................. CYCLE   23 ..............................
........................................................................
   1    -97.4896113 -0.974896E+02  0.512E-02    3.16       0.0  T
   2    -97.4896130 -0.174150E-05  0.300E-02    3.16       1.0  T
   3    -97.4896092  0.378892E-05  0.103E-02    3.16       1.3  T
   4    -97.4896138 -0.460187E-05  0.142E-03    3.16       9.6  T
   5    -97.4896139 -0.457638E-07  0.680E-04    3.16      20.0  T
   6    -97.4896139 -0.221600E-08  0.308E-04    3.16      44.2  T
     SCC iter.                  ...        0 min,  0.067 sec
     gradient                   ...        0 min,  0.131 sec
 * total energy  :   -96.1384299 Eh     change       -0.3952923E-04 Eh
   gradient norm :     0.0038977 Eh/α   predicted    -0.2589348E-04 ( -34.50%)
   displ. norm   :     0.0571976 α      lambda       -0.2225888E-04
   maximum displ.:     0.0280667 α      in ANC's #10, #11, #9, ...

........................................................................
.............................. CYCLE   24 ..............................
........................................................................
   1    -97.4893084 -0.974893E+02  0.184E-02    3.17       0.0  T
   2    -97.4893085 -0.134514E-06  0.108E-02    3.17       1.3  T
   3    -97.4893082  0.286402E-06  0.260E-03    3.17       5.2  T
   4    -97.4893085 -0.346685E-06  0.446E-04    3.17      30.5  T
   5    -97.4893085 -0.447821E-08  0.242E-04    3.17      56.2  T
     SCC iter.                  ...        0 min,  0.057 sec
     gradient                   ...        0 min,  0.144 sec
 * total energy  :   -96.1384495 Eh     change       -0.1968530E-04 Eh
   gradient norm :     0.0031376 Eh/α   predicted    -0.1118899E-04 ( -43.16%)
   displ. norm   :     0.1819818 α      lambda       -0.5999238E-04
   maximum displ.:     0.0853004 α      in ANC's #10, #9, #11, ...

........................................................................
.............................. CYCLE   25 ..............................
........................................................................
   1    -97.4883598 -0.974884E+02  0.603E-02    3.17       0.0  T
   2    -97.4883616 -0.179150E-05  0.354E-02    3.17       1.0  T
   3    -97.4883588  0.275184E-05  0.828E-03    3.17       1.6  T
   4    -97.4883621 -0.332987E-05  0.159E-03    3.17       8.6  T
   5    -97.4883622 -0.780352E-07  0.753E-04    3.17      18.1  T
   6    -97.4883622 -0.361914E-08  0.318E-04    3.17      42.8  T
     SCC iter.                  ...        0 min,  0.062 sec
     gradient                   ...        0 min,  0.144 sec
 * total energy  :   -96.1384868 Eh     change       -0.3724376E-04 Eh
   gradient norm :     0.0018882 Eh/α   predicted    -0.3099038E-04 ( -16.79%)
   displ. norm   :     0.1153287 α      lambda       -0.1247179E-04
   maximum displ.:     0.0532467 α      in ANC's #5, #9, #10, ...

........................................................................
.............................. CYCLE   26 ..............................
........................................................................
   1    -97.4883918 -0.974884E+02  0.384E-02    3.17       0.0  T
   2    -97.4883926 -0.753112E-06  0.225E-02    3.18       1.0  T
   3    -97.4883912  0.136460E-05  0.584E-03    3.18       2.3  T
   4    -97.4883928 -0.162403E-05  0.987E-04    3.18      13.8  T
   5    -97.4883928 -0.302173E-07  0.438E-04    3.18      31.0  T
   6    -97.4883928 -0.147199E-08  0.198E-04    3.18      68.7  T
     SCC iter.                  ...        0 min,  0.061 sec
     gradient                   ...        0 min,  0.130 sec
 * total energy  :   -96.1384995 Eh     change       -0.1268399E-04 Eh
   gradient norm :     0.0018659 Eh/α   predicted    -0.6274519E-05 ( -50.53%)
   displ. norm   :     0.1153092 α      lambda        0.4839394E-06
   maximum displ.:     0.0532469 α      in ANC's #5, #9, #10, ...

........................................................................
.............................. CYCLE   27 ..............................
........................................................................
   1    -97.4881675 -0.974882E+02  0.384E-02    3.18       0.0  T
   2    -97.4881683 -0.789747E-06  0.225E-02    3.18       1.0  T
   3    -97.4881669  0.138031E-05  0.579E-03    3.18       2.3  T
   4    -97.4881685 -0.164212E-05  0.100E-03    3.18      13.5  T
   5    -97.4881686 -0.326445E-07  0.441E-04    3.18      30.9  T
   6    -97.4881686 -0.163638E-08  0.205E-04    3.18      66.3  T
     SCC iter.                  ...        0 min,  0.062 sec
     gradient                   ...        0 min,  0.119 sec
 * total energy  :   -96.1384993 Eh     change        0.1776875E-06 Eh
   gradient norm :     0.0029832 Eh/α   predicted     0.2432466E-06 (  36.90%)
   displ. norm   :     0.0248753 α      lambda       -0.1450271E-04
   maximum displ.:     0.0123695 α      in ANC's #10, #11, #12, ...

........................................................................
.............................. CYCLE   28 ..............................
........................................................................
   1    -97.4889378 -0.974889E+02  0.831E-03    3.18       0.0  T
   2    -97.4889380 -0.105369E-06  0.492E-03    3.18       2.8  T
   3    -97.4889378  0.126404E-06  0.219E-03    3.18       6.2  T
   4    -97.4889380 -0.169048E-06  0.300E-04    3.18      45.3  T
   5    -97.4889380 -0.289178E-08  0.148E-04    3.18      92.1  T
     SCC iter.                  ...        0 min,  0.052 sec
     gradient                   ...        0 min,  0.150 sec
 * total energy  :   -96.1385106 Eh     change       -0.1130909E-04 Eh
   gradient norm :     0.0020300 Eh/α   predicted    -0.7256282E-05 ( -35.84%)
   displ. norm   :     0.0516754 α      lambda       -0.2062740E-04
   maximum displ.:     0.0211186 α      in ANC's #12, #5, #7, ...

........................................................................
.............................. CYCLE   29 ..............................
........................................................................
   1    -97.4895593 -0.974896E+02  0.168E-02    3.18       0.0  T
   2    -97.4895596 -0.349606E-06  0.991E-03    3.18       1.4  T
   3    -97.4895591  0.476331E-06  0.411E-03    3.18       3.3  T
   4    -97.4895597 -0.606014E-06  0.599E-04    3.18      22.7  T
   5    -97.4895597 -0.116048E-07  0.245E-04    3.18      55.5  T
     SCC iter.                  ...        0 min,  0.052 sec
     gradient                   ...        0 min,  0.132 sec
 * total energy  :   -96.1385247 Eh     change       -0.1406467E-04 Eh
   gradient norm :     0.0010580 Eh/α   predicted    -0.1034695E-04 ( -26.43%)
   displ. norm   :     0.1230612 α      lambda       -0.1353990E-04
   maximum displ.:     0.0615880 α      in ANC's #5, #7, #9, ...

........................................................................
.............................. CYCLE   30 ..............................
........................................................................
   1    -97.4896424 -0.974896E+02  0.405E-02    3.18       0.0  T
   2    -97.4896430 -0.544722E-06  0.238E-02    3.18       1.0  T
   3    -97.4896407  0.230154E-05  0.736E-03    3.18       1.8  T
   4    -97.4896434 -0.269431E-05  0.755E-04    3.18      18.0  T
   5    -97.4896434 -0.755935E-08  0.418E-04    3.18      32.6  T
   6    -97.4896434 -0.311687E-09  0.147E-04    3.18      92.6  T
     SCC iter.                  ...        0 min,  0.061 sec
     gradient                   ...        0 min,  0.144 sec
 * total energy  :   -96.1385395 Eh     change       -0.1481544E-04 Eh
   gradient norm :     0.0017713 Eh/α   predicted    -0.6819795E-05 ( -53.97%)
   displ. norm   :     0.2160530 α      lambda       -0.1784602E-04
   maximum displ.:     0.1073101 α      in ANC's #5, #9, #7, ...

........................................................................
.............................. CYCLE   31 ..............................
........................................................................
   1    -97.4885824 -0.974886E+02  0.723E-02    3.18       0.0  T
   2    -97.4885838 -0.138831E-05  0.425E-02    3.18       1.0  T
   3    -97.4885776  0.620210E-05  0.113E-02    3.19       1.2  T
   4    -97.4885848 -0.721607E-05  0.124E-03    3.18      11.0  T
   5    -97.4885848 -0.161218E-07  0.705E-04    3.18      19.3  T
   6    -97.4885848 -0.394007E-08  0.291E-04    3.18      46.8  T
     SCC iter.                  ...        0 min,  0.066 sec
     gradient                   ...        0 min,  0.137 sec
 * total energy  :   -96.1385561 Eh     change       -0.1666999E-04 Eh
   gradient norm :     0.0016934 Eh/α   predicted    -0.9113041E-05 ( -45.33%)
   displ. norm   :     0.0780128 α      lambda       -0.7107562E-05
   maximum displ.:     0.0350893 α      in ANC's #5, #7, #8, ...

........................................................................
.............................. CYCLE   32 ..............................
........................................................................
   1    -97.4886406 -0.974886E+02  0.260E-02    3.19       0.0  T
   2    -97.4886408 -0.235350E-06  0.153E-02    3.19       1.0  T
   3    -97.4886402  0.575832E-06  0.366E-03    3.19       3.7  T
   4    -97.4886409 -0.679870E-06  0.537E-04    3.19      25.3  T
   5    -97.4886409 -0.640756E-08  0.277E-04    3.19      49.2  T
     SCC iter.                  ...        0 min,  0.052 sec
     gradient                   ...        0 min,  0.127 sec
 * total energy  :   -96.1385635 Eh     change       -0.7378177E-05 Eh
   gradient norm :     0.0009873 Eh/α   predicted    -0.3564359E-05 ( -51.69%)
   displ. norm   :     0.0779794 α      lambda       -0.1008836E-05
   maximum displ.:     0.0350888 α      in ANC's #5, #7, #8, ...

........................................................................
.............................. CYCLE   33 ..............................
........................................................................
   1    -97.4885859 -0.974886E+02  0.260E-02    3.19       0.0  T
   2    -97.4885861 -0.239085E-06  0.152E-02    3.19       1.0  T
   3    -97.4885856  0.567337E-06  0.357E-03    3.19       3.8  T
   4    -97.4885862 -0.671045E-06  0.542E-04    3.19      25.1  T
   5    -97.4885862 -0.673030E-08  0.280E-04    3.19      48.6  T
     SCC iter.                  ...        0 min,  0.053 sec
     gradient                   ...        0 min,  0.132 sec
 * total energy  :   -96.1385644 Eh     change       -0.9036891E-06 Eh
   gradient norm :     0.0014452 Eh/α   predicted    -0.5083755E-06 ( -43.74%)
   displ. norm   :     0.0246493 α      lambda       -0.4708451E-05
   maximum displ.:     0.0101514 α      in ANC's #5, #9, #12, ...

........................................................................
.............................. CYCLE   34 ..............................
........................................................................
   1    -97.4889593 -0.974890E+02  0.789E-03    3.19       0.0  T
   2    -97.4889594 -0.579631E-07  0.464E-03    3.19       2.9  T
   3    -97.4889592  0.118002E-06  0.171E-03    3.19       7.9  T
   4    -97.4889594 -0.143160E-06  0.220E-04    3.19      61.7  T
   5    -97.4889594 -0.129884E-08  0.104E-04    3.19     131.1  T
     SCC iter.                  ...        0 min,  0.052 sec
     gradient                   ...        0 min,  0.123 sec
 * total energy  :   -96.1385689 Eh     change       -0.4510839E-05 Eh
   gradient norm :     0.0006667 Eh/α   predicted    -0.2365335E-05 ( -47.56%)
   displ. norm   :     0.0246602 α      lambda        0.8533701E-06
   maximum displ.:     0.0101514 α      in ANC's #5, #9, #12, ...

   *** GEOMETRY OPTIMIZATION CONVERGED AFTER 34 ITERATIONS ***

------------------------------------------------------------------------
 total energy gain   :        -0.0188157 Eh      -11.8070 kcal/mol
 total RMSD          :         0.7742074 a0        0.4097 Å
 total power (kW/mol):        -1.4529562 (step)   -4.4903 (real)
------------------------------------------------------------------------

 ANCopt (total)                0 d,  0 h,  0 min, 11.002 sec
 optimizer setup                ...        0 min,  0.000 sec (  0.002%)
 model hessian                  ...        0 min,  0.058 sec (  0.524%)
 ANC generation                 ...        0 min,  0.013 sec (  0.120%)
 coordinate transformation      ...        0 min,  0.002 sec (  0.019%)
 single point calculation       ...        0 min, 10.455 sec ( 95.033%)
 optimization log               ...        0 min,  0.036 sec (  0.323%)
 hessian update                 ...        0 min,  0.406 sec (  3.689%)
 rational function              ...        0 min,  0.012 sec (  0.106%)

================
 final structure:
================
54
 xtb: 6.3.3 (4ae9cef)
O         2.87386619380639   -0.25410253788116    1.84841021593350
C         2.09743872497541   -0.93285877274749    1.21576493430494
C         2.31776472725500   -2.37553001520328    0.92619363129281
C         3.24521086868262   -2.90147621999548    0.07385206943258
O         3.18624661987625   -4.24023259129087    0.07650097004987
C         2.23052891581566   -4.59440162415034    0.94954597971085
C         1.65580563096429   -3.49534271531455    1.50546568052473
N         0.93835967791447   -0.44133711879957    0.70425212079642
C        -0.03741107300948   -1.21247539637979   -0.02340901238080
C         0.58663261840205   -1.82188259055924   -1.29728408805526
O         0.31956370786465   -3.12148607094523   -1.40584518078163
O         1.21129098295005   -1.19828276177799   -2.10716492435179
N        -1.05440957221163   -0.25071107297645   -0.37660042200202
C        -2.10753170996300   -0.47915036356547   -1.21568451540861
C        -2.45043776423429   -1.90470178963696   -1.43098289063251
C        -2.75361945321412   -2.86816435010244   -0.50972366811175
O        -3.08408069414114   -4.01477524051583   -1.11503518333788
C        -2.99645620552605   -3.80700956057335   -2.43806015093772
C        -2.62356003363813   -2.52692912439297   -2.69962844356712
O        -2.73084383396806    0.42803533586963   -1.72024866807290
C        -0.61294893731672    1.11933239327475   -0.14341311453634
C        -1.70272398262278    1.96717748307084    0.45578002611029
C        -1.84573214489969    3.29142839407010    0.06900022560069
C        -2.82164230035635    4.08433370863414    0.64602148536106
C        -3.66304346763066    3.55944999489523    1.61163326643258
C        -3.52125672380319    2.23930776670309    2.00408653126076
C        -2.54109036893878    1.44821802792540    1.43369489461233
C         0.58377231864139    0.96762717656401    0.81479482616609
C         1.71371017557224    1.89078350075992    0.44228813918023
C         1.97893310707965    3.01090065026608    1.21580235626393
C         2.99148543793633    3.88228560967932    0.85571505711359
C         3.74695511316670    3.63812808010418   -0.27783311301640
C         3.48204923560153    2.52286659045350   -1.05461831913054
C         2.46552685278164    1.65440366688094   -0.70172310677746
H         3.96122597605449   -2.42917581130804   -0.56836843702184
H         2.05271431662284   -5.64177542877284    1.08937019677144
H         0.88253279174190   -3.47377963713260    2.24540132017688
H        -0.44884958680261   -2.03377253854549    0.58180728037764
H         0.69806914963980   -3.48969692484260   -2.22192237692175
H        -2.80351559188269   -2.84450562368506    0.56087378681859
H        -3.22652718056515   -4.63160052588061   -3.08276950500357
H        -2.48014997843660   -2.06351365292341   -3.65340717083088
H        -0.28467387995148    1.56276065938999   -1.09308910054088
H        -1.19252166076861    3.69896204805147   -0.68837525622918
H        -2.92900492332123    5.11325941172957    0.33660206130199
H        -4.42987574669506    4.17622795810581    2.05606725013219
H        -4.17609230731165    1.82485039287588    2.75662960551722
H        -2.43229125746235    0.41711408177882    1.73972271583751
H         0.27121817421280    1.17279801487878    1.84813966683704
H         1.39299703203284    3.19874027333614    2.10377290748437
H         3.19415293071708    4.75066922897586    1.46497507845643
H         4.54228772374002    4.31432122565584   -0.55478284306636
H         4.06872934832203    2.32810393675126   -1.94026407565817
H         2.26122402630075    0.78658344921934   -1.31193171348667

 Bond Distances (Angstroems)
 ---------------------------
O1-C2=1.2099         C2-O1=1.2099         C2-C3=1.4878         C2-N8=1.3589         C3-C2=1.4878         C3-C4=1.3650         
C3-C7=1.4240         C4-C3=1.3650         C4-O5=1.3401         C4-H35=1.0715        O5-C4=1.3401         O5-C6=1.3420         
C6-O5=1.3420         C6-C7=1.3591         C6-H36=1.0715        C7-C3=1.4240         C7-C6=1.3591         C7-H37=1.0705        
N8-C2=1.3589         N8-C9=1.4409         N8-C28=1.4571        C9-N8=1.4409         C9-C10=1.5439        C9-N13=1.4436        
C9-H38=1.1000        C10-C9=1.5439        C10-O11=1.3312       C10-O12=1.1979       O11-C10=1.3312       O11-H39=0.9720       
O12-C10=1.1979       N13-C9=1.4436        N13-C14=1.3658       N13-C21=1.4582       C14-N13=1.3658       C14-C15=1.4819       
C14-O20=1.2108       C15-C14=1.4819       C15-C16=1.3671       C15-C19=1.4236       C16-C15=1.3671       C16-O17=1.3380       
C16-H40=1.0720       O17-C16=1.3380       O17-C18=1.3421       C18-O17=1.3421       C18-C19=1.3587       C18-H41=1.0717       
C19-C15=1.4236       C19-C18=1.3587       C19-H42=1.0701       O20-C14=1.2108       C21-N13=1.4582       C21-C22=1.5052       
C21-C28=1.5406       C21-H43=1.0983       C22-C21=1.5052       C22-C23=1.3870       C22-C27=1.3887       C23-C22=1.3870       
C23-C24=1.3835       C23-H44=1.0800       C24-C23=1.3835       C24-C25=1.3841       C24-H45=1.0798       C25-C24=1.3841       
C25-C26=1.3845       C25-H46=1.0798       C26-C25=1.3845       C26-C27=1.3827       C26-H47=1.0802       C27-C22=1.3887       
C27-C26=1.3827       C27-H48=1.0810       C28-N8=1.4571        C28-C21=1.5406       C28-C29=1.5059       C28-H49=1.0989       
C29-C28=1.5059       C29-C30=1.3868       C29-C34=1.3892       C30-C29=1.3868       C30-C31=1.3836       C30-H50=1.0803       
C31-C30=1.3836       C31-C32=1.3839       C31-H51=1.0800       C32-C31=1.3839       C32-C33=1.3847       C32-H52=1.0800       
C33-C32=1.3847       C33-C34=1.3828       C33-H53=1.0800       C34-C29=1.3892       C34-C33=1.3828       C34-H54=1.0804       
H35-C4=1.0715        H36-C6=1.0715        H37-C7=1.0705        H38-C9=1.1000        H39-O11=0.9720       H40-C16=1.0720       
H41-C18=1.0717       H42-C19=1.0701       H43-C21=1.0983       H44-C23=1.0800       H45-C24=1.0798       H46-C25=1.0798       
H47-C26=1.0802       H48-C27=1.0810       H49-C28=1.0989       H50-C30=1.0803       H51-C31=1.0800       H52-C32=1.0800       
H53-C33=1.0800       H54-C34=1.0804       
 C  H  Rav=1.0803 sigma=0.0091  Rmin=1.0701  Rmax=1.1000    19
 C  C  Rav=1.4160 sigma=0.0579  Rmin=1.3587  Rmax=1.5439    24
 N  C  Rav=1.4208 sigma=0.0418  Rmin=1.3589  Rmax=1.4582     6
 O  H  Rav=0.9720 sigma=0.0000  Rmin=0.9720  Rmax=0.9720     1
 O  C  Rav=1.2890 sigma=0.0643  Rmin=1.1979  Rmax=1.3421     8

 selected bond angles (degree)
 --------------------
C3-C2-O1=123.42                N8-C2-O1=122.77                N8-C2-C3=113.81                C4-C3-C2=126.57                
C7-C3-C2=127.92                C7-C3-C4=105.48                O5-C4-C3=110.72                H35-C4-C3=131.18               
H35-C4-O5=118.09               C6-O5-C4=107.23                C7-C6-O5=110.72                H36-C6-O5=117.45               
H36-C6-C7=131.83               C6-C7-C3=105.84                H37-C7-C3=126.95               H37-C7-C6=127.19               
C9-N8-C2=125.04                C28-N8-C2=121.92               C28-N8-C9=113.02               C10-C9-N8=110.74               
N13-C9-N8=104.13               N13-C9-C10=110.23              H38-C9-N8=112.02               H38-C9-C10=108.09              
H38-C9-N13=111.62              O11-C10-C9=111.81              O12-C10-C9=124.27              O12-C10-O11=123.90             

 selected dihedral angles (degree)
 ---------------------------------
C4-C3-C2-O1=289.29            C4-C3-C2-N8=109.34            C7-C3-C2-O1=106.62            C7-C3-C2-N8=286.67            
O5-C4-C3-C2=178.66            O5-C4-C3-C7=  0.84            H35-C4-C3-C2=357.75           H35-C4-C3-C7=179.93           
C6-O5-C4-C3=359.06            C6-O5-C4-H35=179.83           C7-C6-O5-C4=  0.66            H36-C6-O5-C4=180.69           
C6-C7-C3-C2=181.81            C6-C7-C3-C4=359.59            H37-C7-C3-C2=  0.37           H37-C7-C3-C4=178.15           
C3-C7-C6-O5=359.85            C3-C7-C6-H36=179.82           H37-C7-C6-O5=181.30           H37-C7-C6-H36=  1.27          
C9-N8-C2-O1=181.80            C9-N8-C2-C3=  1.75            C28-N8-C2-O1=  3.72           C28-N8-C2-C3=183.68           
C10-C9-N8-C2=299.78           C10-C9-N8-C28=118.01          N13-C9-N8-C2=181.31           N13-C9-N8-C28=359.54          
H38-C9-N8-C2= 60.53           H38-C9-N8-C28=238.76          O11-C10-C9-N8=130.85          O11-C10-C9-N13=245.55         
O11-C10-C9-H38=  7.79         O12-C10-C9-N8=309.33          O12-C10-C9-N13= 64.02         O12-C10-C9-H38=186.27         
           -------------------------------------------------
          |                Final Singlepoint                |
           -------------------------------------------------

          ...................................................
          :                      SETUP                      :
          :.................................................:
          :  # basis functions                 156          :
          :  # atomic orbitals                 156          :
          :  # shells                           88          :
          :  # electrons                       170          :
          :  max. iterations                   250          :
          :  Hamiltonian                  GFN2-xTB          :
          :  restarted?                      false          :
          :  GBSA solvation                  false          :
          :  PC potential                    false          :
          :  electronic temp.          300.0000000     K    :
          :  accuracy                    1.0000000          :
          :  -> integral cutoff          0.2500000E+02      :
          :  -> integral neglect         0.1000000E-07      :
          :  -> SCF convergence          0.1000000E-05 Eh   :
          :  -> wf. convergence          0.1000000E-03 e    :
          :  Broyden damping             0.4000000          :
          ...................................................

 iter      E             dE          RMSdq      gap      omega  full diag
   1    -97.4889594 -0.974890E+02  0.548E-05    3.19       0.0  T
   2    -97.4889594 -0.166835E-10  0.351E-05    3.19     387.4  T
   3    -97.4889594 -0.343903E-11  0.235E-05    3.19     579.1  T

   *** convergence criteria satisfied after 3 iterations ***

         #    Occupation            Energy/Eh            Energy/eV
      -------------------------------------------------------------
         1        2.0000           -0.7834333             -21.3183
       ...           ...                  ...                  ...
        79        2.0000           -0.4114175             -11.1952
        80        2.0000           -0.4112588             -11.1909
        81        2.0000           -0.4088059             -11.1242
        82        2.0000           -0.4041920             -10.9986
        83        2.0000           -0.4024487             -10.9512
        84        2.0000           -0.3980833             -10.8324
        85        2.0000           -0.3936022             -10.7105 (HOMO)
        86                         -0.2764269              -7.5220 (LUMO)
        87                         -0.2493030              -6.7839
        88                         -0.2369689              -6.4483
        89                         -0.2319850              -6.3126
        90                         -0.2270461              -6.1782
       ...                                ...                  ...
       156                          0.6808784              18.5276
      -------------------------------------------------------------
                  HL-Gap            0.1171753 Eh            3.1885 eV
             Fermi-level           -0.3350146 Eh           -9.1162 eV

 SCC (total)                   0 d,  0 h,  0 min,  0.292 sec
 SCC setup                      ...        0 min,  0.016 sec (  5.451%)
 Dispersion                     ...        0 min,  0.016 sec (  5.650%)
 classical contributions        ...        0 min,  0.020 sec (  6.846%)
 integral evaluation            ...        0 min,  0.062 sec ( 21.140%)
 iterations                     ...        0 min,  0.032 sec ( 10.829%)
 molecular gradient             ...        0 min,  0.145 sec ( 49.677%)
 printout                       ...        0 min,  0.001 sec (  0.379%)

         :::::::::::::::::::::::::::::::::::::::::::::::::::::
         ::                     SUMMARY                     ::
         :::::::::::::::::::::::::::::::::::::::::::::::::::::
         :: total energy             -96.138568942549 Eh    ::
         :: gradient norm              0.000667575761 Eh/a0 ::
         :: HOMO-LUMO gap              3.188501983567 eV    ::
         ::.................................................::
         :: SCC energy               -97.488959392942 Eh    ::
         :: -> isotropic ES            0.127621154342 Eh    ::
         :: -> anisotropic ES          0.005582040734 Eh    ::
         :: -> anisotropic XC          0.029332061615 Eh    ::
         :: -> dispersion             -0.075035001795 Eh    ::
         :: repulsion energy           1.348642260098 Eh    ::
         :: add. restraining           0.000000000000 Eh    ::
         :: total charge              -0.000000000000 e     ::
         :::::::::::::::::::::::::::::::::::::::::::::::::::::

           -------------------------------------------------
          |                Property Printout                |
           -------------------------------------------------

    * Orbital Energies and Occupations

         #    Occupation            Energy/Eh            Energy/eV
      -------------------------------------------------------------
         1        2.0000           -0.7834333             -21.3183
       ...           ...                  ...                  ...
        73        2.0000           -0.4306421             -11.7184
        74        2.0000           -0.4275679             -11.6347
        75        2.0000           -0.4207292             -11.4486
        76        2.0000           -0.4182540             -11.3813
        77        2.0000           -0.4158682             -11.3164
        78        2.0000           -0.4132952             -11.2463
        79        2.0000           -0.4114175             -11.1952
        80        2.0000           -0.4112588             -11.1909
        81        2.0000           -0.4088059             -11.1242
        82        2.0000           -0.4041920             -10.9986
        83        2.0000           -0.4024487             -10.9512
        84        2.0000           -0.3980833             -10.8324
        85        2.0000           -0.3936022             -10.7105 (HOMO)
        86                         -0.2764269              -7.5220 (LUMO)
        87                         -0.2493030              -6.7839
        88                         -0.2369689              -6.4483
        89                         -0.2319850              -6.3126
        90                         -0.2270461              -6.1782
        91                         -0.2251494              -6.1266
        92                         -0.2224182              -6.0523
        93                         -0.2208785              -6.0104
        94                         -0.2203992              -5.9974
        95                         -0.1798500              -4.8940
        96                         -0.1692815              -4.6064
       ...                                ...                  ...
       156                          0.6808784              18.5276
      -------------------------------------------------------------
                  HL-Gap            0.1171753 Eh            3.1885 eV
             Fermi-level           -0.3350146 Eh           -9.1162 eV

     #   Z          covCN         q      C6AA      α(0)
     1   8 O        0.859    -0.407    21.817     6.262
     2   6 C        2.757     0.274    22.373     7.746
     3   6 C        3.076    -0.052    29.211     8.861
     4   6 C        3.077     0.073    26.287     8.406
     5   8 O        1.731    -0.163    16.748     5.526
     6   6 C        3.075     0.070    26.364     8.418
     7   6 C        3.018    -0.062    29.529     8.914
     8   7 N        2.767    -0.110    23.397     7.184
     9   6 C        3.751     0.087    19.191     6.247
    10   6 C        2.688     0.349    21.068     7.512
    11   8 O        1.659    -0.370    20.283     6.080
    12   8 O        0.856    -0.378    21.249     6.180
    13   7 N        2.764    -0.120    23.611     7.217
    14   6 C        2.759     0.273    22.389     7.749
    15   6 C        3.075    -0.050    29.149     8.852
    16   6 C        3.078     0.068    26.391     8.422
    17   8 O        1.731    -0.158    16.673     5.513
    18   6 C        3.076     0.068    26.403     8.425
    19   6 C        3.019    -0.056    29.358     8.888
    20   8 O        0.859    -0.403    21.749     6.253
    21   6 C        3.827     0.046    19.788     6.330
    22   6 C        2.974     0.013    27.711     8.635
    23   6 C        2.924    -0.028    28.705     8.786
    24   6 C        2.920    -0.025    28.620     8.773
    25   6 C        2.920    -0.028    28.705     8.786
    26   6 C        2.920    -0.027    28.669     8.780
    27   6 C        2.924    -0.030    28.760     8.795
    28   6 C        3.821     0.045    19.810     6.334
    29   6 C        2.974     0.012    27.738     8.639
    30   6 C        2.924    -0.029    28.729     8.790
    31   6 C        2.920    -0.026    28.645     8.777
    32   6 C        2.920    -0.028    28.707     8.786
    33   6 C        2.920    -0.026    28.643     8.777
    34   6 C        2.923    -0.033    28.818     8.803
    35   1 H        0.926     0.063     2.166     2.301
    36   1 H        0.926     0.060     2.197     2.318
    37   1 H        0.926     0.044     2.396     2.421
    38   1 H        0.923     0.065     2.145     2.290
    39   1 H        0.804     0.346     0.599     1.215
    40   1 H        0.926     0.052     2.296     2.370
    41   1 H        0.926     0.059     2.205     2.322
    42   1 H        0.927     0.055     2.253     2.347
    43   1 H        0.923     0.062     2.172     2.305
    44   1 H        0.926     0.038     2.477     2.461
    45   1 H        0.926     0.040     2.451     2.448
    46   1 H        0.926     0.038     2.481     2.463
    47   1 H        0.926     0.036     2.502     2.473
    48   1 H        0.926     0.027     2.633     2.537
    49   1 H        0.923     0.056     2.252     2.347
    50   1 H        0.926     0.033     2.547     2.496
    51   1 H        0.926     0.037     2.489     2.467
    52   1 H        0.926     0.036     2.506     2.476
    53   1 H        0.926     0.037     2.489     2.467
    54   1 H        0.926     0.048     2.348     2.396

 Mol. C6AA /au·bohr⁶  :      39805.304367
 Mol. C8AA /au·bohr⁸  :     972384.042504
 Mol. α(0) /au        :        313.365805


Wiberg/Mayer (AO) data.
largest (>0.10) Wiberg bond orders for each atom

 ---------------------------------------------------------------------------
     #   Z sym  total        # sym  WBO       # sym  WBO       # sym  WBO
 ---------------------------------------------------------------------------
     1   8 O    2.036 --     2 C    1.703     8 N    0.195
     2   6 C    3.951 --     1 O    1.703     8 N    1.205     3 C    0.966
     3   6 C    3.979 --     4 C    1.569     7 C    1.255     2 C    0.966
     4   6 C    3.911 --     3 C    1.569     5 O    1.148    35 H    0.966
                             6 C    0.146
     5   8 O    2.465 --     4 C    1.148     6 C    1.140
     6   6 C    3.908 --     7 C    1.615     5 O    1.140    36 H    0.965
                             4 C    0.146
     7   6 C    3.981 --     6 C    1.615     3 C    1.255    37 H    0.974
     8   7 N    3.465 --     2 C    1.205     9 C    0.989    28 C    0.952
                             1 O    0.195
     9   6 C    3.973 --     8 N    0.989    13 N    0.983    38 H    0.944
                            10 C    0.907
    10   6 C    3.918 --    12 O    1.783    11 O    1.149     9 C    0.907
    11   8 O    2.213 --    10 C    1.149    39 H    0.854    12 O    0.181
    12   8 O    2.071 --    10 C    1.783    11 O    0.181
    13   7 N    3.444 --    14 C    1.184     9 C    0.983    21 C    0.954
                            20 O    0.186
    14   6 C    3.950 --    20 O    1.706    13 N    1.184    15 C    0.983
    15   6 C    3.979 --    16 C    1.556    19 C    1.258    14 C    0.983
    16   6 C    3.912 --    15 C    1.556    17 O    1.154    40 H    0.965
                            18 C    0.147
    17   8 O    2.472 --    16 C    1.154    18 C    1.139
    18   6 C    3.907 --    19 C    1.617    17 O    1.139    41 H    0.966
                            16 C    0.147
    19   6 C    3.983 --    18 C    1.617    15 C    1.258    42 H    0.974
    20   8 O    2.038 --    14 C    1.706    13 N    0.186
    21   6 C    3.960 --    22 C    0.990    28 C    0.954    13 N    0.954
                            43 H    0.952
    22   6 C    3.985 --    23 C    1.414    27 C    1.410    21 C    0.990
                            25 C    0.109
    23   6 C    3.990 --    24 C    1.443    22 C    1.414    44 H    0.968
                            26 C    0.111
    24   6 C    3.992 --    23 C    1.443    25 C    1.440    45 H    0.970
                            27 C    0.112
    25   6 C    3.991 --    24 C    1.440    26 C    1.437    46 H    0.971
                            22 C    0.109
    26   6 C    3.992 --    27 C    1.447    25 C    1.437    47 H    0.971
                            23 C    0.111
    27   6 C    3.992 --    26 C    1.447    22 C    1.410    48 H    0.969
                            24 C    0.112
    28   6 C    3.960 --    29 C    0.989    21 C    0.954    49 H    0.953
                             8 N    0.952
    29   6 C    3.984 --    30 C    1.416    34 C    1.410    28 C    0.989
                            32 C    0.109
    30   6 C    3.990 --    31 C    1.442    29 C    1.416    50 H    0.969
                            33 C    0.111
    31   6 C    3.992 --    30 C    1.442    32 C    1.441    51 H    0.971
                            34 C    0.112
    32   6 C    3.991 --    31 C    1.441    33 C    1.436    52 H    0.971
                            29 C    0.109
    33   6 C    3.992 --    34 C    1.448    32 C    1.436    53 H    0.971
                            30 C    0.111
    34   6 C    3.990 --    33 C    1.448    29 C    1.410    54 H    0.964
                            31 C    0.112
    35   1 H    0.996 --     4 C    0.966
    36   1 H    0.995 --     6 C    0.965
    37   1 H    0.998 --     7 C    0.974
    38   1 H    0.995 --     9 C    0.944
    39   1 H    0.880 --    11 O    0.854
    40   1 H    0.997 --    16 C    0.965
    41   1 H    0.996 --    18 C    0.966
    42   1 H    0.997 --    19 C    0.974
    43   1 H    0.996 --    21 C    0.952
    44   1 H    0.999 --    23 C    0.968
    45   1 H    0.998 --    24 C    0.970
    46   1 H    0.998 --    25 C    0.971
    47   1 H    0.998 --    26 C    0.971
    48   1 H    0.999 --    27 C    0.969
    49   1 H    0.996 --    28 C    0.953
    50   1 H    0.999 --    30 C    0.969
    51   1 H    0.998 --    31 C    0.971
    52   1 H    0.998 --    32 C    0.971
    53   1 H    0.998 --    33 C    0.971
    54   1 H    0.998 --    34 C    0.964
 ---------------------------------------------------------------------------

Topologies differ in total number of bonds
Writing topology from bond orders to xtbtopo.mol

molecular dipole:
                 x           y           z       tot (Debye)
 q only:       -0.452      -0.912       0.045
   full:       -0.458      -1.520      -0.076       4.040
molecular quadrupole (traceless):
                xx          xy          yy          xz          yz          zz
 q only:      -18.043       3.380      22.877     -13.596       9.199      -4.834
  q+dip:      -22.842       4.372      25.848     -22.288      10.390      -3.006
   full:      -20.496       3.254      23.370     -17.870      10.212      -2.874

           -------------------------------------------------
          |                Geometry Summary                 |
           -------------------------------------------------

      molecular mass/u    :      456.4477843
   center of mass at/Å    :        0.0410065      -0.2737778      -0.0774395
  moments of inertia/u·Å² :        0.3310179E+04   0.3906326E+04   0.6024326E+04
rotational constants/cm⁻¹ :        0.5092665E-02   0.4315470E-02   0.2798260E-02

 * 53 selected distances

     #   Z          #   Z                                           value/Å
     1   8 O        2   6 C                                       1.2098718
     3   6 C        4   6 C                                       1.3650135
     4   6 C        5   8 O                                       1.3400569
     5   8 O        6   6 C                                       1.3420282
     3   6 C        7   6 C                                       1.4239826
     6   6 C        7   6 C                                       1.3591483
     2   6 C        8   7 N                                       1.3589346
     8   7 N        9   6 C                                       1.4409280
    10   6 C       11   8 O                                       1.3311951
    10   6 C       12   8 O                                       1.1979073
     9   6 C       13   7 N                                       1.4436138
    13   7 N       14   6 C                                       1.3657646
    15   6 C       16   6 C                                       1.3670764
    16   6 C       17   8 O                                       1.3380296
    17   8 O       18   6 C                                       1.3421027
    15   6 C       19   6 C                                       1.4235869
    18   6 C       19   6 C                                       1.3587036
    14   6 C       20   8 O                                       1.2108216
    13   7 N       21   6 C                                       1.4581779
    22   6 C       23   6 C                                       1.3869717
    23   6 C       24   6 C                                       1.3834930
    24   6 C       25   6 C                                       1.3841477
    25   6 C       26   6 C                                       1.3845211
    22   6 C       27   6 C                                       1.3887025
    26   6 C       27   6 C                                       1.3827132
     8   7 N       28   6 C                                       1.4570972
    21   6 C       28   6 C                                       1.5405579 (max)
    29   6 C       30   6 C                                       1.3868417
    30   6 C       31   6 C                                       1.3835595
    31   6 C       32   6 C                                       1.3839360
    32   6 C       33   6 C                                       1.3846944
    29   6 C       34   6 C                                       1.3891960
    33   6 C       34   6 C                                       1.3827800
     4   6 C       35   1 H                                       1.0715374
     6   6 C       36   1 H                                       1.0715226
     7   6 C       37   1 H                                       1.0704768
     9   6 C       38   1 H                                       1.1000443
    11   8 O       39   1 H                                       0.9720224 (min)
    16   6 C       40   1 H                                       1.0720206
    18   6 C       41   1 H                                       1.0716963
    19   6 C       42   1 H                                       1.0700534
    21   6 C       43   1 H                                       1.0983067
    23   6 C       44   1 H                                       1.0799932
    24   6 C       45   1 H                                       1.0797941
    25   6 C       46   1 H                                       1.0798002
    26   6 C       47   1 H                                       1.0802341
    27   6 C       48   1 H                                       1.0810484
    28   6 C       49   1 H                                       1.0989025
    30   6 C       50   1 H                                       1.0803224
    31   6 C       51   1 H                                       1.0799824
    32   6 C       52   1 H                                       1.0800427
    33   6 C       53   1 H                                       1.0800437
    34   6 C       54   1 H                                       1.0803731

 * 5 distinct bonds (by element types)

   Z      Z             #   av. dist./Å        max./Å        min./Å
   1 H    6 C          19     1.0803261     1.1000443     1.0700534
   6 C    6 C          19     1.3926119     1.5405579     1.3587036
   6 C    7 N           6     1.4207527     1.4581779     1.3589346
   1 H    8 O           1     0.9720224     0.9720224     0.9720224
   6 C    8 O           8     1.2890016     1.3421027     1.1979073


optimized geometry written to: xtbopt.xyz


           -------------------------------------------------
          | TOTAL ENERGY              -96.138568942549 Eh   |
          | GRADIENT NORM               0.000667575761 Eh/α |
          | HOMO-LUMO GAP               3.188501983567 eV   |
           -------------------------------------------------

------------------------------------------------------------------------
 * finished run on 2022/03/16 at 23:16:19.624     
------------------------------------------------------------------------
 total:
 * wall-time:     0 d,  0 h,  0 min, 11.812 sec
 *  cpu-time:     0 d,  0 h,  5 min, 11.366 sec
 * ratio c/w:    26.361 speedup
 SCF:
 * wall-time:     0 d,  0 h,  0 min,  0.381 sec
 *  cpu-time:     0 d,  0 h,  0 min,  8.591 sec
 * ratio c/w:    22.530 speedup
 ANC optimizer:
 * wall-time:     0 d,  0 h,  0 min, 11.295 sec
 *  cpu-time:     0 d,  0 h,  4 min, 59.038 sec
 * ratio c/w:    26.476 speedup

