54
 energy: -96.138568942549 gnorm: 0.000667575761 xtb: 6.3.3 (4ae9cef)
O         2.87386619380639   -0.25410253788116    1.84841021593350
C         2.09743872497541   -0.93285877274749    1.21576493430494
C         2.31776472725500   -2.37553001520328    0.92619363129281
C         3.24521086868262   -2.90147621999548    0.07385206943258
O         3.18624661987625   -4.24023259129087    0.07650097004987
C         2.23052891581566   -4.59440162415034    0.94954597971085
C         1.65580563096429   -3.49534271531455    1.50546568052473
N         0.93835967791447   -0.44133711879957    0.70425212079642
C        -0.03741107300948   -1.21247539637979   -0.02340901238080
C         0.58663261840205   -1.82188259055924   -1.29728408805526
O         0.31956370786465   -3.12148607094523   -1.40584518078163
O         1.21129098295005   -1.19828276177799   -2.10716492435179
N        -1.05440957221163   -0.25071107297645   -0.37660042200202
C        -2.10753170996300   -0.47915036356547   -1.21568451540861
C        -2.45043776423429   -1.90470178963696   -1.43098289063251
C        -2.75361945321412   -2.86816435010244   -0.50972366811175
O        -3.08408069414114   -4.01477524051583   -1.11503518333788
C        -2.99645620552605   -3.80700956057335   -2.43806015093772
C        -2.62356003363813   -2.52692912439297   -2.69962844356712
O        -2.73084383396806    0.42803533586963   -1.72024866807290
C        -0.61294893731672    1.11933239327475   -0.14341311453634
C        -1.70272398262278    1.96717748307084    0.45578002611029
C        -1.84573214489969    3.29142839407010    0.06900022560069
C        -2.82164230035635    4.08433370863414    0.64602148536106
C        -3.66304346763066    3.55944999489523    1.61163326643258
C        -3.52125672380319    2.23930776670309    2.00408653126076
C        -2.54109036893878    1.44821802792540    1.43369489461233
C         0.58377231864139    0.96762717656401    0.81479482616609
C         1.71371017557224    1.89078350075992    0.44228813918023
C         1.97893310707965    3.01090065026608    1.21580235626393
C         2.99148543793633    3.88228560967932    0.85571505711359
C         3.74695511316670    3.63812808010418   -0.27783311301640
C         3.48204923560153    2.52286659045350   -1.05461831913054
C         2.46552685278164    1.65440366688094   -0.70172310677746
H         3.96122597605449   -2.42917581130804   -0.56836843702184
H         2.05271431662284   -5.64177542877284    1.08937019677144
H         0.88253279174190   -3.47377963713260    2.24540132017688
H        -0.44884958680261   -2.03377253854549    0.58180728037764
H         0.69806914963980   -3.48969692484260   -2.22192237692175
H        -2.80351559188269   -2.84450562368506    0.56087378681859
H        -3.22652718056515   -4.63160052588061   -3.08276950500357
H        -2.48014997843660   -2.06351365292341   -3.65340717083088
H        -0.28467387995148    1.56276065938999   -1.09308910054088
H        -1.19252166076861    3.69896204805147   -0.68837525622918
H        -2.92900492332123    5.11325941172957    0.33660206130199
H        -4.42987574669506    4.17622795810581    2.05606725013219
H        -4.17609230731165    1.82485039287588    2.75662960551722
H        -2.43229125746235    0.41711408177882    1.73972271583751
H         0.27121817421280    1.17279801487878    1.84813966683704
H         1.39299703203284    3.19874027333614    2.10377290748437
H         3.19415293071708    4.75066922897586    1.46497507845643
H         4.54228772374002    4.31432122565584   -0.55478284306636
H         4.06872934832203    2.32810393675126   -1.94026407565817
H         2.26122402630075    0.78658344921934   -1.31193171348667
