      -----------------------------------------------------------      
     |                   =====================                   |     
     |                           x T B                           |     
     |                   =====================                   |     
     |                         S. Grimme                         |     
     |          Mulliken Center for Theoretical Chemistry        |     
     |                    University of Bonn                     |     
      -----------------------------------------------------------      

   * xtb version 6.3.3 (4ae9cef) compiled by 'conda@95abc7406d43' on 2020-10-14

   xtb is free software: you can redistribute it and/or modify it under
   the terms of the GNU Lesser General Public License as published by
   the Free Software Foundation, either version 3 of the License, or
   (at your option) any later version.
   
   xtb is distributed in the hope that it will be useful,
   but WITHOUT ANY WARRANTY; without even the implied warranty of
   MERCHANTABILITY or FITNESS FOR A PARTICULAR PURPOSE.  See the
   GNU Lesser General Public License for more details.
   
   Cite this work as:
   * C. Bannwarth, E. Caldeweyher, S. Ehlert, A. Hansen, P. Pracht,
     J. Seibert, S. Spicher, S. Grimme, WIREs Comput. Mol. Sci., 2020,
     e01493. DOI: 10.1002/wcms.1493
   
   for GFN2-xTB:
   * S. Grimme, C. Bannwarth, P. Shushkov, J. Chem. Theory Comput., 2017,
     13, 1989-2009. DOI: 10.1021/acs.jctc.7b00118
   for GFN1-xTB:
   * C. Bannwarth, S. Ehlert and S. Grimme., J. Chem. Theory Comput., 2019,
     15, 1652-1671. DOI: 10.1021/acs.jctc.8b01176
   for GFN0-xTB:
   * P. Pracht, E. Caldeweyher, S. Ehlert, S. Grimme, ChemRxiv, 2019, preprint.
     DOI: 10.26434/chemrxiv.8326202.v1
   for GFN-FF:
   * S. Spicher and S. Grimme, Angew. Chem. Int. Ed., 2020, 59, 15665-15673.
     DOI: 10.1002/anie.202004239
   
   for DFT-D4:
   * E. Caldeweyher, C. Bannwarth and S. Grimme, J. Chem. Phys., 2017,
     147, 034112. DOI: 10.1063/1.4993215
   * E. Caldeweyher, S. Ehlert, A. Hansen, H. Neugebauer, S. Spicher,
     C. Bannwarth and S. Grimme, J. Chem. Phys., 2019, 150, 154122.
     DOI: 10.1063/1.5090222
   * E. Caldeweyher, J.-M. Mewes, S. Ehlert and S. Grimme, Phys. Chem. Chem. Phys.
     2020, 22, 8499-8512. DOI: 10.1039/D0CP00502A
   
   for sTDA-xTB:
   * S. Grimme and C. Bannwarth, J. Chem. Phys., 2016, 145, 054103.
     DOI: 10.1063/1.4959605
   
   in the mass-spec context:
   * V. Asgeirsson, C. Bauer and S. Grimme, Chem. Sci., 2017, 8, 4879.
     DOI: 10.1039/c7sc00601b
   * J. Koopman and S. Grimme, ACS Omega 2019, 4, 12, 15120-15133.
     DOI: 10.1021/acsomega.9b02011
   
   for metadynamics refer to:
   * S. Grimme, J. Chem. Theory Comput., 2019, 155, 2847-2862
     DOI: 10.1021/acs.jctc.9b00143
   
   with help from (in alphabetical order)
   C. Bannwarth, F. Bohle, G. Brandenburg, E. Caldeweyher, M. Checinski,
   S. Dohm, S. Ehlert, S. Ehrlich, F. März, H. Neugebauer, J. Pisarek,
   P. Pracht, P. Shushkov, and S. Spicher.
   
 * started run on 2022/03/17 at 00:14:05.918     

           -------------------------------------------------
          |                Calculation Setup                |
           -------------------------------------------------

          program call               : xtb acid_356.xyz --opt --chrg 0 --uhf 0 --gfn 2
          coordinate file            : acid_356.xyz
          omp threads                :                    64
          number of atoms            :                    54
          number of electrons        :                   170
          charge                     :                     0
          spin                       :                   0.0
          first test random number   :      0.50267959219295

   ID    Z sym.   atoms
    1    8 O      1, 11, 12, 20
    2    6 C      2-4, 6, 7, 9, 10, 14-16, 18, 19, 21-34
    3   16 S      5, 17
    4    7 N      8, 13
    5    1 H      35-54

           -------------------------------------------------
          |                 G F N 2 - x T B                 |
           -------------------------------------------------

        Reference                      10.1021/acs.jctc.8b01176
      * Hamiltonian:
        H0-scaling (s, p, d)           1.850000    2.230000    2.230000
        zeta-weighting                 0.500000
      * Dispersion:
        s8                             2.700000
        a1                             0.520000
        a2                             5.000000
        s9                             5.000000
      * Repulsion:
        kExp                           1.500000    1.000000
        rExp                           1.000000
      * Coulomb:
        alpha                          2.000000
        third order                    shell-resolved
        anisotropic                    true
        a3                             3.000000
        a5                             4.000000
        cn-shift                       1.200000
        cn-exp                         4.000000
        max-rad                        5.000000


          ...................................................
          :                      SETUP                      :
          :.................................................:
          :  # basis functions                 168          :
          :  # atomic orbitals                 166          :
          :  # shells                           90          :
          :  # electrons                       170          :
          :  max. iterations                   250          :
          :  Hamiltonian                  GFN2-xTB          :
          :  restarted?                      false          :
          :  GBSA solvation                  false          :
          :  PC potential                    false          :
          :  electronic temp.          300.0000000     K    :
          :  accuracy                    1.0000000          :
          :  -> integral cutoff          0.2500000E+02      :
          :  -> integral neglect         0.1000000E-07      :
          :  -> SCF convergence          0.1000000E-05 Eh   :
          :  -> wf. convergence          0.1000000E-03 e    :
          :  Broyden damping             0.4000000          :
          ...................................................

 iter      E             dE          RMSdq      gap      omega  full diag
   1    -95.5684745 -0.955685E+02  0.468E+00    3.12       0.0  T
   2    -95.7019641 -0.133490E+00  0.272E+00    3.09       1.0  T
   3    -95.6983575  0.360656E-02  0.138E+00    3.43       1.0  T
   4    -95.7203065 -0.219490E-01  0.375E-01    3.10       1.0  T
   5    -95.7258538 -0.554724E-02  0.133E-01    3.14       1.0  T
   6    -95.7262092 -0.355468E-03  0.566E-02    3.18       1.0  T
   7    -95.7262818 -0.725399E-04  0.233E-02    3.17       1.0  T
   8    -95.7262871 -0.535389E-05  0.130E-02    3.17       1.0  T
   9    -95.7262916 -0.449357E-05  0.455E-03    3.17       3.0  T
  10    -95.7262917 -0.119231E-06  0.225E-03    3.17       6.1  T
  11    -95.7262919 -0.155412E-06  0.821E-04    3.17      16.6  T
  12    -95.7262919 -0.102887E-07  0.460E-04    3.17      29.6  T

   *** convergence criteria satisfied after 12 iterations ***

         #    Occupation            Energy/Eh            Energy/eV
      -------------------------------------------------------------
         1        2.0000           -0.7756259             -21.1059
       ...           ...                  ...                  ...
        79        2.0000           -0.4086486             -11.1199
        80        2.0000           -0.4081006             -11.1050
        81        2.0000           -0.4068668             -11.0714
        82        2.0000           -0.4053158             -11.0292
        83        2.0000           -0.4025780             -10.9547
        84        2.0000           -0.4001868             -10.8896
        85        2.0000           -0.3990176             -10.8578 (HOMO)
        86                         -0.2823941              -7.6843 (LUMO)
        87                         -0.2720671              -7.4033
        88                         -0.2707580              -7.3677
        89                         -0.2430431              -6.6135
        90                         -0.2390086              -6.5038
       ...                                ...                  ...
       166                          0.6639036              18.0657
      -------------------------------------------------------------
                  HL-Gap            0.1166236 Eh            3.1735 eV
             Fermi-level           -0.3407058 Eh           -9.2711 eV

 SCC (total)                   0 d,  0 h,  0 min,  0.288 sec
 SCC setup                      ...        0 min,  0.008 sec (  2.727%)
 Dispersion                     ...        0 min,  0.012 sec (  4.169%)
 classical contributions        ...        0 min,  0.010 sec (  3.479%)
 integral evaluation            ...        0 min,  0.076 sec ( 26.498%)
 iterations                     ...        0 min,  0.145 sec ( 50.392%)
 molecular gradient             ...        0 min,  0.035 sec ( 12.240%)
 printout                       ...        0 min,  0.001 sec (  0.465%)

         :::::::::::::::::::::::::::::::::::::::::::::::::::::
         ::                     SUMMARY                     ::
         :::::::::::::::::::::::::::::::::::::::::::::::::::::
         :: total energy             -94.470566028633 Eh    ::
         :: gradient norm              0.099812343200 Eh/a0 ::
         :: HOMO-LUMO gap              3.173488439143 eV    ::
         ::.................................................::
         :: SCC energy               -95.726291904489 Eh    ::
         :: -> isotropic ES            0.120273322187 Eh    ::
         :: -> anisotropic ES          0.003531550635 Eh    ::
         :: -> anisotropic XC          0.037131340820 Eh    ::
         :: -> dispersion             -0.076275299777 Eh    ::
         :: repulsion energy           1.253409379591 Eh    ::
         :: add. restraining           0.000000000000 Eh    ::
         :: total charge              -0.000000000000 e     ::
         :::::::::::::::::::::::::::::::::::::::::::::::::::::

      ----------------------------------------------------------- 
     |                   =====================                   |
     |                        A N C O P T                        |
     |                   =====================                   |
     |               Approximate Normal Coordinate               |
     |                Rational Function Optimizer                |
      ----------------------------------------------------------- 

          ...................................................
          :                      SETUP                      :
          :.................................................:
          :   optimization level            normal          :
          :   max. optcycles                   200          :
          :   ANC micro-cycles                  20          :
          :   degrees of freedom               156          :
          :.................................................:
          :   RF solver                   davidson          :
          :   write xtbopt.log                true          :
          :   linear?                        false          :
          :   energy convergence         0.5000000E-05 Eh   :
          :   grad. convergence          0.1000000E-02 Eh/α :
          :   maximium RF displ.         1.0000000          :
          :   Hlow (freq-cutoff)         0.1000000E-01      :
          :   Hmax (freq-cutoff)         5.0000000          :
          :   S6 in model hess.         20.0000000          :
          ...................................................

generating ANC from model Hessian ...
Using Lindh-Hessian (1995)
 Shifting diagonal of input Hessian by    9.7500970929818281E-003
 Lowest  eigenvalues of input Hessian
    0.000000    0.000000    0.000000    0.000000    0.000000    0.000000
    0.010000    0.010160    0.010251    0.010461    0.010624    0.010758
    0.010924    0.011073    0.011237    0.011448    0.012131    0.013100
 Highest eigenvalues
    1.935611    1.948862    1.952586    2.202630    2.241718    2.257975


........................................................................
.............................. CYCLE    1 ..............................
........................................................................
   1    -95.7262919 -0.957263E+02  0.192E-04    3.17       0.0  T
   2    -95.7262919 -0.324178E-09  0.134E-04    3.17     101.6  T
   3    -95.7262919 -0.286036E-09  0.876E-05    3.17     155.3  T
     SCC iter.                  ...        0 min,  0.039 sec
     gradient                   ...        0 min,  0.126 sec
 * total energy  :   -94.4705660 Eh     change       -0.3046111E-08 Eh
   gradient norm :     0.0998134 Eh/α   predicted     0.0000000E+00 (-100.00%)
   displ. norm   :     0.3849599 α      lambda       -0.1771698E-01
   maximum displ.:     0.1935961 α      in ANC's #20, #19, #38, ...

........................................................................
.............................. CYCLE    2 ..............................
........................................................................
   1    -95.8034072 -0.958034E+02  0.187E-01    3.41       0.0  T
   2    -95.8035179 -0.110768E-03  0.109E-01    3.36       1.0  T
   3    -95.8034700  0.479208E-04  0.505E-02    3.37       1.0  T
   4    -95.8035407 -0.706960E-04  0.169E-02    3.36       1.0  T
   5    -95.8035497 -0.898670E-05  0.635E-03    3.35       2.1  T
   6    -95.8035506 -0.908112E-06  0.221E-03    3.35       6.2  T
   7    -95.8035507 -0.789823E-07  0.119E-03    3.35      11.4  T
   8    -95.8035507 -0.326449E-07  0.480E-04    3.35      28.3  T
   9    -95.8035507 -0.168868E-08  0.201E-04    3.35      67.7  T
     SCC iter.                  ...        0 min,  0.107 sec
     gradient                   ...        0 min,  0.134 sec
 * total energy  :   -94.4826633 Eh     change       -0.1209722E-01 Eh
   gradient norm :     0.0370622 Eh/α   predicted    -0.1017127E-01 ( -15.92%)
   displ. norm   :     0.3914502 α      lambda       -0.5857880E-02
   maximum displ.:     0.2536851 α      in ANC's #20, #19, #25, ...

........................................................................
.............................. CYCLE    3 ..............................
........................................................................
   1    -95.8421898 -0.958422E+02  0.133E-01    3.46       0.0  T
   2    -95.8422447 -0.548339E-04  0.790E-02    3.44       1.0  T
   3    -95.8422100  0.346387E-04  0.391E-02    3.44       1.0  T
   4    -95.8422628 -0.527978E-04  0.121E-02    3.43       1.1  T
   5    -95.8422676 -0.474180E-05  0.405E-03    3.43       3.4  T
   6    -95.8422678 -0.279495E-06  0.165E-03    3.43       8.3  T
   7    -95.8422679 -0.706480E-07  0.790E-04    3.43      17.2  T
   8    -95.8422679 -0.999418E-08  0.309E-04    3.43      44.0  T
     SCC iter.                  ...        0 min,  0.100 sec
     gradient                   ...        0 min,  0.121 sec
 * total energy  :   -94.4863759 Eh     change       -0.3712661E-02 Eh
   gradient norm :     0.0133559 Eh/α   predicted    -0.3377754E-02 (  -9.02%)
   displ. norm   :     0.2754814 α      lambda       -0.1423770E-02
   maximum displ.:     0.1627505 α      in ANC's #20, #19, #14, ...

........................................................................
.............................. CYCLE    4 ..............................
........................................................................
   1    -95.8462161 -0.958462E+02  0.836E-02    3.43       0.0  T
   2    -95.8462344 -0.182859E-04  0.506E-02    3.43       1.0  T
   3    -95.8462174  0.170649E-04  0.243E-02    3.43       1.0  T
   4    -95.8462405 -0.231502E-04  0.649E-03    3.43       2.1  T
   5    -95.8462422 -0.168914E-05  0.193E-03    3.43       7.1  T
   6    -95.8462422 -0.330780E-07  0.105E-03    3.43      12.9  T
   7    -95.8462423 -0.222865E-07  0.449E-04    3.43      30.3  T
   8    -95.8462423 -0.344343E-08  0.200E-04    3.43      68.0  T
     SCC iter.                  ...        0 min,  0.105 sec
     gradient                   ...        0 min,  0.060 sec
 * total energy  :   -94.4873160 Eh     change       -0.9400422E-03 Eh
   gradient norm :     0.0093094 Eh/α   predicted    -0.7659505E-03 ( -18.52%)
   displ. norm   :     0.2359994 α      lambda       -0.5743348E-03
   maximum displ.:     0.1025254 α      in ANC's #8, #20, #4, ...

........................................................................
.............................. CYCLE    5 ..............................
........................................................................
   1    -95.8459130 -0.958459E+02  0.660E-02    3.42       0.0  T
   2    -95.8459168 -0.379752E-05  0.391E-02    3.42       1.0  T
   3    -95.8459055  0.113070E-04  0.167E-02    3.42       1.0  T
   4    -95.8459188 -0.133715E-04  0.309E-03    3.42       4.4  T
   5    -95.8459191 -0.282084E-06  0.133E-03    3.42      10.3  T
   6    -95.8459191 -0.892103E-08  0.739E-04    3.42      18.4  T
   7    -95.8459191 -0.105616E-07  0.263E-04    3.42      51.7  T
     SCC iter.                  ...        0 min,  0.083 sec
     gradient                   ...        0 min,  0.119 sec
 * total energy  :   -94.4877161 Eh     change       -0.4001627E-03 Eh
   gradient norm :     0.0061366 Eh/α   predicted    -0.3031620E-03 ( -24.24%)
   displ. norm   :     0.2846458 α      lambda       -0.4209374E-03
   maximum displ.:     0.1507360 α      in ANC's #8, #4, #6, ...

........................................................................
.............................. CYCLE    6 ..............................
........................................................................
   1    -95.8438948 -0.958439E+02  0.784E-02    3.40       0.0  T
   2    -95.8438972 -0.240240E-05  0.457E-02    3.40       1.0  T
   3    -95.8438881  0.915927E-05  0.148E-02    3.40       1.0  T
   4    -95.8438988 -0.107028E-04  0.274E-03    3.40       5.0  T
   5    -95.8438989 -0.108565E-06  0.150E-03    3.40       9.1  T
   6    -95.8438989 -0.402129E-07  0.605E-04    3.40      22.5  T
   7    -95.8438989 -0.505668E-08  0.285E-04    3.40      47.8  T
     SCC iter.                  ...        0 min,  0.085 sec
     gradient                   ...        0 min,  0.129 sec
 * total energy  :   -94.4880299 Eh     change       -0.3138265E-03 Eh
   gradient norm :     0.0056842 Eh/α   predicted    -0.2275248E-03 ( -27.50%)
   displ. norm   :     0.3559729 α      lambda       -0.4151587E-03
   maximum displ.:     0.1876376 α      in ANC's #8, #4, #6, ...

........................................................................
.............................. CYCLE    7 ..............................
........................................................................
   1    -95.8423949 -0.958424E+02  0.959E-02    3.39       0.0  T
   2    -95.8423987 -0.376096E-05  0.561E-02    3.39       1.0  T
   3    -95.8423888  0.987115E-05  0.156E-02    3.39       1.0  T
   4    -95.8424004 -0.115561E-04  0.349E-03    3.39       3.9  T
   5    -95.8424006 -0.261005E-06  0.171E-03    3.39       8.0  T
   6    -95.8424007 -0.475016E-07  0.678E-04    3.39      20.1  T
   7    -95.8424007 -0.655174E-08  0.328E-04    3.39      41.5  T
     SCC iter.                  ...        0 min,  0.084 sec
     gradient                   ...        0 min,  0.108 sec
 * total energy  :   -94.4883583 Eh     change       -0.3283324E-03 Eh
   gradient norm :     0.0070817 Eh/α   predicted    -0.2338836E-03 ( -28.77%)
   displ. norm   :     0.4322441 α      lambda       -0.4592002E-03
   maximum displ.:     0.2254079 α      in ANC's #8, #4, #6, ...

........................................................................
.............................. CYCLE    8 ..............................
........................................................................
   1    -95.8415075 -0.958415E+02  0.120E-01    3.37       0.0  T
   2    -95.8415128 -0.530104E-05  0.699E-02    3.38       1.0  T
   3    -95.8414978  0.150443E-04  0.190E-02    3.38       1.0  T
   4    -95.8415153 -0.175707E-04  0.411E-03    3.38       3.3  T
   5    -95.8415157 -0.349662E-06  0.204E-03    3.38       6.7  T
   6    -95.8415158 -0.704843E-07  0.775E-04    3.38      17.6  T
   7    -95.8415158 -0.122127E-07  0.367E-04    3.38      37.1  T
     SCC iter.                  ...        0 min,  0.084 sec
     gradient                   ...        0 min,  0.151 sec
 * total energy  :   -94.4887244 Eh     change       -0.3661612E-03 Eh
   gradient norm :     0.0086245 Eh/α   predicted    -0.2724990E-03 ( -25.58%)
   displ. norm   :     0.4756649 α      lambda       -0.4721698E-03
   maximum displ.:     0.2449674 α      in ANC's #8, #4, #6, ...

........................................................................
.............................. CYCLE    9 ..............................
........................................................................
   1    -95.8422717 -0.958423E+02  0.131E-01    3.38       0.0  T
   2    -95.8422780 -0.634582E-05  0.764E-02    3.39       1.0  T
   3    -95.8422615  0.164912E-04  0.199E-02    3.38       1.0  T
   4    -95.8422807 -0.192055E-04  0.453E-03    3.39       3.0  T
   5    -95.8422812 -0.446219E-06  0.219E-03    3.39       6.2  T
   6    -95.8422813 -0.844064E-07  0.804E-04    3.39      16.9  T
   7    -95.8422813 -0.137035E-07  0.379E-04    3.39      35.9  T
     SCC iter.                  ...        0 min,  0.083 sec
     gradient                   ...        0 min,  0.116 sec
 * total energy  :   -94.4890917 Eh     change       -0.3672963E-03 Eh
   gradient norm :     0.0077860 Eh/α   predicted    -0.2895056E-03 ( -21.18%)
   displ. norm   :     0.4771842 α      lambda       -0.4105808E-03
   maximum displ.:     0.2412954 α      in ANC's #8, #4, #5, ...

........................................................................
.............................. CYCLE   10 ..............................
........................................................................
   1    -95.8431428 -0.958431E+02  0.135E-01    3.36       0.0  T
   2    -95.8431507 -0.788714E-05  0.786E-02    3.37       1.0  T
   3    -95.8431296  0.210459E-04  0.220E-02    3.37       1.0  T
   4    -95.8431541 -0.245097E-04  0.453E-03    3.38       3.0  T
   5    -95.8431546 -0.462726E-06  0.224E-03    3.38       6.1  T
   6    -95.8431547 -0.971868E-07  0.914E-04    3.37      14.9  T
   7    -95.8431547 -0.152920E-07  0.382E-04    3.37      35.6  T
     SCC iter.                  ...        0 min,  0.088 sec
     gradient                   ...        0 min,  0.132 sec
 * total energy  :   -94.4894048 Eh     change       -0.3130190E-03 Eh
   gradient norm :     0.0066124 Eh/α   predicted    -0.2520379E-03 ( -19.48%)
   displ. norm   :     0.4323601 α      lambda       -0.3551117E-03
   maximum displ.:     0.2088359 α      in ANC's #8, #5, #4, ...

........................................................................
.............................. CYCLE   11 ..............................
........................................................................
   1    -95.8466819 -0.958467E+02  0.119E-01    3.41       0.0  T
   2    -95.8466886 -0.664882E-05  0.692E-02    3.40       1.0  T
   3    -95.8466730  0.155892E-04  0.191E-02    3.40       1.0  T
   4    -95.8466914 -0.184635E-04  0.402E-03    3.40       3.4  T
   5    -95.8466918 -0.377689E-06  0.199E-03    3.40       6.8  T
   6    -95.8466919 -0.597535E-07  0.751E-04    3.40      18.1  T
   7    -95.8466919 -0.154467E-07  0.358E-04    3.40      38.0  T
     SCC iter.                  ...        0 min,  0.084 sec
     gradient                   ...        0 min,  0.113 sec
 * total energy  :   -94.4896492 Eh     change       -0.2443964E-03 Eh
   gradient norm :     0.0062134 Eh/α   predicted    -0.2107627E-03 ( -13.76%)
   displ. norm   :     0.4969321 α      lambda       -0.2769684E-03
   maximum displ.:     0.2364147 α      in ANC's #8, #5, #4, ...

........................................................................
.............................. CYCLE   12 ..............................
........................................................................
   1    -95.8425263 -0.958425E+02  0.142E-01    3.30       0.0  T
   2    -95.8425390 -0.127591E-04  0.824E-02    3.33       1.0  T
   3    -95.8425121  0.269002E-04  0.252E-02    3.32       1.0  T
   4    -95.8425440 -0.318660E-04  0.505E-03    3.33       2.7  T
   5    -95.8425446 -0.614592E-06  0.252E-03    3.33       5.4  T
   6    -95.8425447 -0.117233E-06  0.108E-03    3.33      12.6  T
   7    -95.8425447 -0.171623E-07  0.477E-04    3.33      28.5  T
   8    -95.8425447 -0.283306E-08  0.224E-04    3.33      60.9  T
     SCC iter.                  ...        0 min,  0.097 sec
     gradient                   ...        0 min,  0.126 sec
 * total energy  :   -94.4897719 Eh     change       -0.1227174E-03 Eh
   gradient norm :     0.0108869 Eh/α   predicted    -0.1726833E-03 (  40.72%)
   displ. norm   :     0.1369120 α      lambda       -0.2080359E-03
   maximum displ.:     0.0774772 α      in ANC's #5, #7, #11, ...

........................................................................
.............................. CYCLE   13 ..............................
........................................................................
   1    -95.8482295 -0.958482E+02  0.364E-02    3.38       0.0  T
   2    -95.8482381 -0.853402E-05  0.214E-02    3.37       1.0  T
   3    -95.8482383 -0.217590E-06  0.104E-02    3.38       1.3  T
   4    -95.8482395 -0.127178E-05  0.208E-03    3.37       6.5  T
   5    -95.8482397 -0.147006E-06  0.949E-04    3.37      14.3  T
   6    -95.8482397 -0.263033E-07  0.472E-04    3.37      28.8  T
     SCC iter.                  ...        0 min,  0.076 sec
     gradient                   ...        0 min,  0.129 sec
 * total energy  :   -94.4898868 Eh     change       -0.1148868E-03 Eh
   gradient norm :     0.0054173 Eh/α   predicted    -0.1059700E-03 (  -7.76%)
   displ. norm   :     0.2079011 α      lambda       -0.1003499E-03
   maximum displ.:     0.1152613 α      in ANC's #5, #8, #7, ...

........................................................................
.............................. CYCLE   14 ..............................
........................................................................
   1    -95.8468876 -0.958469E+02  0.571E-02    3.39       0.0  T
   2    -95.8468903 -0.271032E-05  0.333E-02    3.38       1.0  T
   3    -95.8468871  0.320011E-05  0.905E-03    3.38       1.5  T
   4    -95.8468906 -0.355021E-05  0.270E-03    3.38       5.0  T
   5    -95.8468909 -0.274326E-06  0.933E-04    3.38      14.6  T
   6    -95.8468909 -0.129023E-07  0.459E-04    3.38      29.6  T
     SCC iter.                  ...        0 min,  0.072 sec
     gradient                   ...        0 min,  0.145 sec
 * total energy  :   -94.4899476 Eh     change       -0.6089044E-04 Eh
   gradient norm :     0.0036458 Eh/α   predicted    -0.5235277E-04 ( -14.02%)
   displ. norm   :     0.1532924 α      lambda       -0.7227556E-04
   maximum displ.:     0.0920619 α      in ANC's #5, #7, #3, ...

........................................................................
.............................. CYCLE   15 ..............................
........................................................................
   1    -95.8475835 -0.958476E+02  0.423E-02    3.36       0.0  T
   2    -95.8475846 -0.104648E-05  0.247E-02    3.36       1.0  T
   3    -95.8475822  0.234998E-05  0.769E-03    3.36       1.8  T
   4    -95.8475850 -0.277677E-05  0.161E-03    3.36       8.4  T
   5    -95.8475851 -0.698222E-07  0.745E-04    3.36      18.3  T
   6    -95.8475851 -0.639299E-08  0.322E-04    3.36      42.3  T
     SCC iter.                  ...        0 min,  0.073 sec
     gradient                   ...        0 min,  0.033 sec
 * total energy  :   -94.4900005 Eh     change       -0.5282926E-04 Eh
   gradient norm :     0.0025986 Eh/α   predicted    -0.3699172E-04 ( -29.98%)
   displ. norm   :     0.1797249 α      lambda       -0.7296263E-04
   maximum displ.:     0.1116490 α      in ANC's #5, #7, #3, ...

........................................................................
.............................. CYCLE   16 ..............................
........................................................................
   1    -95.8469474 -0.958469E+02  0.510E-02    3.35       0.0  T
   2    -95.8469486 -0.119807E-05  0.298E-02    3.36       1.0  T
   3    -95.8469455  0.312004E-05  0.848E-03    3.36       1.6  T
   4    -95.8469491 -0.357442E-05  0.166E-03    3.36       8.2  T
   5    -95.8469491 -0.677701E-07  0.764E-04    3.36      17.8  T
   6    -95.8469491 -0.110739E-07  0.366E-04    3.36      37.2  T
     SCC iter.                  ...        0 min,  0.076 sec
     gradient                   ...        0 min,  0.138 sec
 * total energy  :   -94.4900493 Eh     change       -0.4878224E-04 Eh
   gradient norm :     0.0032623 Eh/α   predicted    -0.3766288E-04 ( -22.79%)
   displ. norm   :     0.1578324 α      lambda       -0.5263402E-04
   maximum displ.:     0.0908431 α      in ANC's #5, #7, #3, ...

........................................................................
.............................. CYCLE   17 ..............................
........................................................................
   1    -95.8479083 -0.958479E+02  0.416E-02    3.35       0.0  T
   2    -95.8479090 -0.739928E-06  0.243E-02    3.35       1.0  T
   3    -95.8479070  0.201010E-05  0.694E-03    3.35       2.0  T
   4    -95.8479093 -0.230119E-05  0.151E-03    3.35       9.0  T
   5    -95.8479094 -0.568590E-07  0.652E-04    3.35      20.9  T
   6    -95.8479094 -0.675540E-08  0.276E-04    3.35      49.4  T
     SCC iter.                  ...        0 min,  0.077 sec
     gradient                   ...        0 min,  0.148 sec
 * total energy  :   -94.4900873 Eh     change       -0.3805257E-04 Eh
   gradient norm :     0.0033684 Eh/α   predicted    -0.2697404E-04 ( -29.11%)
   displ. norm   :     0.2016003 α      lambda       -0.5822516E-04
   maximum displ.:     0.1156507 α      in ANC's #5, #7, #3, ...

........................................................................
.............................. CYCLE   18 ..............................
........................................................................
   1    -95.8473307 -0.958473E+02  0.548E-02    3.35       0.0  T
   2    -95.8473315 -0.757622E-06  0.320E-02    3.35       1.0  T
   3    -95.8473267  0.478385E-05  0.101E-02    3.35       1.3  T
   4    -95.8473321 -0.546298E-05  0.155E-03    3.35       8.8  T
   5    -95.8473322 -0.205679E-07  0.827E-04    3.35      16.5  T
   6    -95.8473322 -0.173034E-07  0.281E-04    3.35      48.5  T
     SCC iter.                  ...        0 min,  0.072 sec
     gradient                   ...        0 min,  0.115 sec
 * total energy  :   -94.4901309 Eh     change       -0.4355669E-04 Eh
   gradient norm :     0.0029235 Eh/α   predicted    -0.3029865E-04 ( -30.44%)
   displ. norm   :     0.2135307 α      lambda       -0.6109963E-04
   maximum displ.:     0.1081838 α      in ANC's #5, #7, #3, ...

........................................................................
.............................. CYCLE   19 ..............................
........................................................................
   1    -95.8478711 -0.958479E+02  0.551E-02    3.36       0.0  T
   2    -95.8478721 -0.105329E-05  0.321E-02    3.36       1.0  T
   3    -95.8478670  0.506155E-05  0.108E-02    3.36       1.3  T
   4    -95.8478728 -0.577394E-05  0.182E-03    3.36       7.5  T
   5    -95.8478729 -0.466391E-07  0.866E-04    3.36      15.7  T
   6    -95.8478729 -0.161116E-07  0.329E-04    3.36      41.3  T
     SCC iter.                  ...        0 min,  0.072 sec
     gradient                   ...        0 min,  0.128 sec
 * total energy  :   -94.4901745 Eh     change       -0.4358644E-04 Eh
   gradient norm :     0.0026524 Eh/α   predicted    -0.3194314E-04 ( -26.71%)
   displ. norm   :     0.2120572 α      lambda       -0.4544856E-04
   maximum displ.:     0.0991931 α      in ANC's #7, #5, #3, ...

........................................................................
.............................. CYCLE   20 ..............................
........................................................................
   1    -95.8474650 -0.958475E+02  0.559E-02    3.36       0.0  T
   2    -95.8474658 -0.757266E-06  0.325E-02    3.36       1.0  T
   3    -95.8474602  0.560824E-05  0.113E-02    3.36       1.2  T
   4    -95.8474666 -0.638917E-05  0.172E-03    3.36       7.9  T
   5    -95.8474666 -0.152841E-07  0.905E-04    3.36      15.0  T
   6    -95.8474666 -0.243592E-07  0.265E-04    3.36      51.3  T
     SCC iter.                  ...        0 min,  0.076 sec
     gradient                   ...        0 min,  0.147 sec
 * total energy  :   -94.4902085 Eh     change       -0.3406966E-04 Eh
   gradient norm :     0.0028340 Eh/α   predicted    -0.2374939E-04 ( -30.29%)
   displ. norm   :     0.2155394 α      lambda       -0.4979288E-04
   maximum displ.:     0.0954019 α      in ANC's #7, #3, #5, ...
 * RMSD in coord.:     0.5966691 α      energy gain  -0.1964250E-01 Eh

generating ANC from model Hessian ...
Using Lindh-Hessian (1995)
 Shifting diagonal of input Hessian by    9.7299444064883715E-003
 Lowest  eigenvalues of input Hessian
    0.000000    0.000000    0.000000    0.000000    0.000000    0.000000
    0.010000    0.010134    0.010320    0.010547    0.010657    0.010818
    0.011015    0.011272    0.011374    0.011604    0.012140    0.012922
 Highest eigenvalues
    2.008807    2.026650    2.029207    2.337702    2.352411    2.395897


........................................................................
.............................. CYCLE   21 ..............................
........................................................................
   1    -95.8479385 -0.958479E+02  0.546E-02    3.37       0.0  T
   2    -95.8479391 -0.655185E-06  0.317E-02    3.37       1.0  T
   3    -95.8479340  0.511357E-05  0.111E-02    3.37       1.2  T
   4    -95.8479398 -0.580694E-05  0.167E-03    3.37       8.2  T
   5    -95.8479398 -0.185240E-07  0.839E-04    3.37      16.2  T
   6    -95.8479399 -0.195264E-07  0.246E-04    3.37      55.4  T
     SCC iter.                  ...        0 min,  0.073 sec
     gradient                   ...        0 min,  0.122 sec
 * total energy  :   -94.4902448 Eh     change       -0.3631321E-04 Eh
   gradient norm :     0.0028744 Eh/α   predicted     0.0000000E+00 (-100.00%)
   displ. norm   :     0.0292959 α      lambda       -0.2345893E-04
   maximum displ.:     0.0120909 α      in ANC's #7, #5, #13, ...

........................................................................
.............................. CYCLE   22 ..............................
........................................................................
   1    -95.8482663 -0.958483E+02  0.998E-03    3.36       0.0  T
   2    -95.8482664 -0.104360E-06  0.587E-03    3.36       2.3  T
   3    -95.8482662  0.155315E-06  0.193E-03    3.36       7.0  T
   4    -95.8482664 -0.185665E-06  0.408E-04    3.36      33.4  T
   5    -95.8482664 -0.541317E-08  0.180E-04    3.36      75.7  T
     SCC iter.                  ...        0 min,  0.063 sec
     gradient                   ...        0 min,  0.117 sec
 * total energy  :   -94.4902637 Eh     change       -0.1885240E-04 Eh
   gradient norm :     0.0014901 Eh/α   predicted    -0.1175243E-04 ( -37.66%)
   displ. norm   :     0.1204641 α      lambda       -0.3627106E-04
   maximum displ.:     0.0562520 α      in ANC's #7, #5, #4, ...

........................................................................
.............................. CYCLE   23 ..............................
........................................................................
   1    -95.8485792 -0.958486E+02  0.358E-02    3.35       0.0  T
   2    -95.8485799 -0.700284E-06  0.210E-02    3.36       1.0  T
   3    -95.8485779  0.202803E-05  0.642E-03    3.36       2.1  T
   4    -95.8485803 -0.238177E-05  0.105E-03    3.36      13.0  T
   5    -95.8485803 -0.269268E-07  0.515E-04    3.36      26.4  T
   6    -95.8485803 -0.455991E-08  0.251E-04    3.36      54.2  T
     SCC iter.                  ...        0 min,  0.076 sec
     gradient                   ...        0 min,  0.077 sec
 * total energy  :   -94.4902869 Eh     change       -0.2319002E-04 Eh
   gradient norm :     0.0026216 Eh/α   predicted    -0.1826675E-04 ( -21.23%)
   displ. norm   :     0.0230097 α      lambda       -0.9882518E-05
   maximum displ.:     0.0135993 α      in ANC's #7, #4, #5, ...

........................................................................
.............................. CYCLE   24 ..............................
........................................................................
   1    -95.8484317 -0.958484E+02  0.614E-03    3.36       0.0  T
   2    -95.8484318 -0.304365E-07  0.358E-03    3.36       3.8  T
   3    -95.8484317  0.212720E-07  0.792E-04    3.36      17.2  T
   4    -95.8484318 -0.267132E-07  0.197E-04    3.36      69.2  T
     SCC iter.                  ...        0 min,  0.053 sec
     gradient                   ...        0 min,  0.137 sec
 * total energy  :   -94.4902956 Eh     change       -0.8683870E-05 Eh
   gradient norm :     0.0017610 Eh/α   predicted    -0.4948378E-05 ( -43.02%)
   displ. norm   :     0.1290750 α      lambda       -0.2646120E-04
   maximum displ.:     0.0739803 α      in ANC's #7, #4, #5, ...

........................................................................
.............................. CYCLE   25 ..............................
........................................................................
   1    -95.8478589 -0.958479E+02  0.321E-02    3.37       0.0  T
   2    -95.8478595 -0.652708E-06  0.187E-02    3.37       1.0  T
   3    -95.8478588  0.741781E-06  0.433E-03    3.37       3.1  T
   4    -95.8478596 -0.873489E-06  0.105E-03    3.37      12.9  T
   5    -95.8478597 -0.415175E-07  0.442E-04    3.37      30.8  T
   6    -95.8478597 -0.312517E-08  0.201E-04    3.37      67.6  T
     SCC iter.                  ...        0 min,  0.073 sec
     gradient                   ...        0 min,  0.120 sec
 * total energy  :   -94.4903159 Eh     change       -0.2037000E-04 Eh
   gradient norm :     0.0021464 Eh/α   predicted    -0.1340072E-04 ( -34.21%)
   displ. norm   :     0.0474113 α      lambda       -0.8209893E-05
   maximum displ.:     0.0278981 α      in ANC's #7, #4, #5, ...

........................................................................
.............................. CYCLE   26 ..............................
........................................................................
   1    -95.8479077 -0.958479E+02  0.112E-02    3.36       0.0  T
   2    -95.8479077 -0.408408E-07  0.653E-03    3.37       2.1  T
   3    -95.8479077  0.844171E-07  0.133E-03    3.36      10.2  T
   4    -95.8479078 -0.992937E-07  0.293E-04    3.37      46.5  T
   5    -95.8479078 -0.195395E-08  0.145E-04    3.37      93.6  T
     SCC iter.                  ...        0 min,  0.059 sec
     gradient                   ...        0 min,  0.131 sec
 * total energy  :   -94.4903233 Eh     change       -0.7409708E-05 Eh
   gradient norm :     0.0016729 Eh/α   predicted    -0.4151033E-05 ( -43.98%)
   displ. norm   :     0.1455144 α      lambda       -0.1724126E-04
   maximum displ.:     0.0862430 α      in ANC's #7, #4, #1, ...

........................................................................
.............................. CYCLE   27 ..............................
........................................................................
   1    -95.8482604 -0.958483E+02  0.342E-02    3.36       0.0  T
   2    -95.8482608 -0.365420E-06  0.200E-02    3.36       1.0  T
   3    -95.8482599  0.883239E-06  0.430E-03    3.36       3.2  T
   4    -95.8482609 -0.103040E-05  0.805E-04    3.36      16.9  T
   5    -95.8482609 -0.153931E-07  0.397E-04    3.36      34.3  T
   6    -95.8482609 -0.252435E-08  0.172E-04    3.36      78.9  T
     SCC iter.                  ...        0 min,  0.071 sec
     gradient                   ...        0 min,  0.129 sec
 * total energy  :   -94.4903406 Eh     change       -0.1726376E-04 Eh
   gradient norm :     0.0008982 Eh/α   predicted    -0.8702178E-05 ( -49.59%)
   displ. norm   :     0.1066868 α      lambda       -0.7359860E-05
   maximum displ.:     0.0665486 α      in ANC's #7, #4, #1, ...

........................................................................
.............................. CYCLE   28 ..............................
........................................................................
   1    -95.8482262 -0.958482E+02  0.251E-02    3.36       0.0  T
   2    -95.8482263 -0.968123E-07  0.147E-02    3.36       1.0  T
   3    -95.8482260  0.337459E-06  0.270E-03    3.36       5.0  T
   4    -95.8482263 -0.395743E-06  0.490E-04    3.36      27.8  T
   5    -95.8482263 -0.263485E-08  0.276E-04    3.36      49.4  T
     SCC iter.                  ...        0 min,  0.058 sec
     gradient                   ...        0 min,  0.118 sec
 * total energy  :   -94.4903501 Eh     change       -0.9468890E-05 Eh
   gradient norm :     0.0009704 Eh/α   predicted    -0.3699814E-05 ( -60.93%)
   displ. norm   :     0.1125411 α      lambda       -0.8921306E-05
   maximum displ.:     0.0712366 α      in ANC's #7, #4, #1, ...

........................................................................
.............................. CYCLE   29 ..............................
........................................................................
   1    -95.8482759 -0.958483E+02  0.272E-02    3.36       0.0  T
   2    -95.8482760 -0.133525E-06  0.159E-02    3.36       1.0  T
   3    -95.8482756  0.418321E-06  0.294E-03    3.36       4.6  T
   4    -95.8482761 -0.493700E-06  0.521E-04    3.36      26.1  T
   5    -95.8482761 -0.419831E-08  0.288E-04    3.36      47.3  T
     SCC iter.                  ...        0 min,  0.065 sec
     gradient                   ...        0 min,  0.117 sec
 * total energy  :   -94.4903616 Eh     change       -0.1153241E-04 Eh
   gradient norm :     0.0005915 Eh/α   predicted    -0.4487160E-05 ( -61.09%)
   displ. norm   :     0.1710068 α      lambda       -0.1238706E-04
   maximum displ.:     0.1077527 α      in ANC's #7, #4, #1, ...

........................................................................
.............................. CYCLE   30 ..............................
........................................................................
   1    -95.8481611 -0.958482E+02  0.415E-02    3.36       0.0  T
   2    -95.8481614 -0.362220E-06  0.243E-02    3.36       1.0  T
   3    -95.8481605  0.973986E-06  0.443E-03    3.36       3.1  T
   4    -95.8481616 -0.116211E-05  0.845E-04    3.36      16.1  T
   5    -95.8481616 -0.108106E-07  0.459E-04    3.36      29.6  T
   6    -95.8481616 -0.366107E-08  0.185E-04    3.36      73.5  T
     SCC iter.                  ...        0 min,  0.080 sec
     gradient                   ...        0 min,  0.131 sec
 * total energy  :   -94.4903762 Eh     change       -0.1462573E-04 Eh
   gradient norm :     0.0005727 Eh/α   predicted    -0.6274785E-05 ( -57.10%)
   displ. norm   :     0.1990970 α      lambda       -0.1126229E-04
   maximum displ.:     0.1250650 α      in ANC's #7, #4, #1, ...

........................................................................
.............................. CYCLE   31 ..............................
........................................................................
   1    -95.8479749 -0.958480E+02  0.485E-02    3.36       0.0  T
   2    -95.8479753 -0.460346E-06  0.284E-02    3.36       1.0  T
   3    -95.8479741  0.119606E-05  0.488E-03    3.36       2.8  T
   4    -95.8479756 -0.144051E-05  0.904E-04    3.36      15.1  T
   5    -95.8479756 -0.112114E-07  0.509E-04    3.36      26.7  T
   6    -95.8479756 -0.425769E-08  0.207E-04    3.36      65.7  T
     SCC iter.                  ...        0 min,  0.072 sec
     gradient                   ...        0 min,  0.130 sec
 * total energy  :   -94.4903880 Eh     change       -0.1180795E-04 Eh
   gradient norm :     0.0009281 Eh/α   predicted    -0.5734606E-05 ( -51.43%)
   displ. norm   :     0.1576656 α      lambda       -0.7536410E-05
   maximum displ.:     0.0991431 α      in ANC's #7, #4, #1, ...

........................................................................
.............................. CYCLE   32 ..............................
........................................................................
   1    -95.8482096 -0.958482E+02  0.388E-02    3.36       0.0  T
   2    -95.8482098 -0.266640E-06  0.227E-02    3.36       1.0  T
   3    -95.8482091  0.707884E-06  0.379E-03    3.36       3.6  T
   4    -95.8482100 -0.857637E-06  0.751E-04    3.36      18.1  T
   5    -95.8482100 -0.435833E-08  0.418E-04    3.36      32.6  T
     SCC iter.                  ...        0 min,  0.064 sec
     gradient                   ...        0 min,  0.126 sec
 * total energy  :   -94.4903965 Eh     change       -0.8432910E-05 Eh
   gradient norm :     0.0007687 Eh/α   predicted    -0.3814535E-05 ( -54.77%)
   displ. norm   :     0.1577201 α      lambda       -0.6613885E-05
   maximum displ.:     0.0993858 α      in ANC's #7, #1, #4, ...

........................................................................
.............................. CYCLE   33 ..............................
........................................................................
   1    -95.8483975 -0.958484E+02  0.392E-02    3.36       0.0  T
   2    -95.8483978 -0.246879E-06  0.229E-02    3.36       1.0  T
   3    -95.8483971  0.676304E-06  0.373E-03    3.36       3.7  T
   4    -95.8483979 -0.822063E-06  0.696E-04    3.36      19.6  T
   5    -95.8483979 -0.222009E-08  0.397E-04    3.36      34.3  T
     SCC iter.                  ...        0 min,  0.062 sec
     gradient                   ...        0 min,  0.119 sec
 * total energy  :   -94.4904048 Eh     change       -0.8293561E-05 Eh
   gradient norm :     0.0005670 Eh/α   predicted    -0.3347722E-05 ( -59.63%)
   displ. norm   :     0.1577277 α      lambda       -0.6895251E-05
   maximum displ.:     0.0986766 α      in ANC's #7, #1, #4, ...

........................................................................
.............................. CYCLE   34 ..............................
........................................................................
   1    -95.8485214 -0.958485E+02  0.399E-02    3.36       0.0  T
   2    -95.8485217 -0.241525E-06  0.233E-02    3.36       1.0  T
   3    -95.8485211  0.597628E-06  0.360E-03    3.36       3.8  T
   4    -95.8485218 -0.732985E-06  0.742E-04    3.36      18.3  T
   5    -95.8485218 -0.279383E-08  0.420E-04    3.36      32.4  T
     SCC iter.                  ...        0 min,  0.068 sec
     gradient                   ...        0 min,  0.118 sec
 * total energy  :   -94.4904128 Eh     change       -0.8013477E-05 Eh
   gradient norm :     0.0004519 Eh/α   predicted    -0.3488795E-05 ( -56.46%)
   displ. norm   :     0.1088435 α      lambda       -0.5216866E-05
   maximum displ.:     0.0649895 α      in ANC's #7, #1, #5, ...

........................................................................
.............................. CYCLE   35 ..............................
........................................................................
   1    -95.8487162 -0.958487E+02  0.280E-02    3.36       0.0  T
   2    -95.8487163 -0.125237E-06  0.164E-02    3.36       1.0  T
   3    -95.8487160  0.301971E-06  0.262E-03    3.36       5.2  T
   4    -95.8487164 -0.367790E-06  0.557E-04    3.36      24.4  T
   5    -95.8487164 -0.321639E-08  0.325E-04    3.36      41.9  T
     SCC iter.                  ...        0 min,  0.060 sec
     gradient                   ...        0 min,  0.061 sec
 * total energy  :   -94.4904184 Eh     change       -0.5586941E-05 Eh
   gradient norm :     0.0005127 Eh/α   predicted    -0.2622887E-05 ( -53.05%)
   displ. norm   :     0.1069558 α      lambda       -0.4084690E-05
   maximum displ.:     0.0630084 α      in ANC's #7, #1, #5, ...

........................................................................
.............................. CYCLE   36 ..............................
........................................................................
   1    -95.8485777 -0.958486E+02  0.277E-02    3.36       0.0  T
   2    -95.8485778 -0.113835E-06  0.162E-02    3.36       1.0  T
   3    -95.8485776  0.213343E-06  0.229E-03    3.36       6.0  T
   4    -95.8485779 -0.268564E-06  0.564E-04    3.36      24.1  T
   5    -95.8485779 -0.319474E-08  0.312E-04    3.36      43.6  T
     SCC iter.                  ...        0 min,  0.064 sec
     gradient                   ...        0 min,  0.129 sec
 * total energy  :   -94.4904229 Eh     change       -0.4504587E-05 Eh
   gradient norm :     0.0004581 Eh/α   predicted    -0.2057034E-05 ( -54.33%)
   displ. norm   :     0.1076776 α      lambda        0.6409679E-06
   maximum displ.:     0.0630084 α      in ANC's #7, #1, #5, ...

   *** GEOMETRY OPTIMIZATION CONVERGED AFTER 36 ITERATIONS ***

------------------------------------------------------------------------
 total energy gain   :        -0.0198568 Eh      -12.4604 kcal/mol
 total RMSD          :         0.7119715 a0        0.3768 Å
 total power (kW/mol):        -1.4481706 (step)   -4.5457 (real)
------------------------------------------------------------------------

 ANCopt (total)                0 d,  0 h,  0 min, 11.469 sec
 optimizer setup                ...        0 min,  0.000 sec (  0.002%)
 model hessian                  ...        0 min,  0.060 sec (  0.522%)
 ANC generation                 ...        0 min,  0.013 sec (  0.116%)
 coordinate transformation      ...        0 min,  0.002 sec (  0.016%)
 single point calculation       ...        0 min, 10.960 sec ( 95.562%)
 optimization log               ...        0 min,  0.052 sec (  0.454%)
 hessian update                 ...        0 min,  0.370 sec (  3.230%)
 rational function              ...        0 min,  0.007 sec (  0.060%)

================
 final structure:
================
54
 xtb: 6.3.3 (4ae9cef)
O        -2.72132896584235    1.78302769094855    0.71421263489501
C        -1.66265403497404    1.83240985190653    0.12880055283154
C        -1.19327332861594    3.02317161029282   -0.63447933981824
C        -1.01225625354306    4.24877610497669   -0.07160720242354
S        -0.47713152433078    5.41498626497780   -1.21077572860665
C        -0.52122397495376    4.24935394525826   -2.47190922607745
C        -0.91333185536980    3.02970092099475   -2.02832644813140
N        -0.79933605308114    0.78221152008019    0.09211185255869
C         0.58492484625562    0.84998532577530   -0.30390731329062
C         1.41260260480415    1.71720710198276    0.67253977212873
O         0.79323570069718    1.91336097387364    1.82665671124866
O         2.49934219658479    2.15570556215915    0.41123662373199
N         1.02607736010574   -0.51650000009652   -0.23854036570025
C         1.60072294219763   -1.24863644932227   -1.24635402273211
C         2.15275788917275   -0.50236264826849   -2.39699278320565
C         2.85981823608739    0.66690070898917   -2.37305628278561
S         3.37028184646767    1.14323393733626   -3.93788504627782
C         2.62816739745220   -0.24110790893028   -4.64317930177868
C         2.03625462090348   -1.02789634317630   -3.71502454154218
O         1.64752829615022   -2.45957457069314   -1.18404793686860
C         0.27359611612516   -1.19921812924239    0.80430752504519
C         0.98916085177401   -1.22190268250823    2.13419719223419
C         0.31383398011309   -1.68403238485064    3.25811040580722
C         0.94334944283374   -1.72259677490892    4.48837701501590
C         2.25829348985420   -1.30487212679176    4.61037478568336
C         2.94245519715406   -0.86430608649628    3.49177724742218
C         2.31360620239623   -0.82763627512116    2.25841674583810
C        -1.07427928284299   -0.43752650377668    0.84489289711196
C        -2.19647716133570   -1.21106780901427    0.20147222841486
C        -2.14156822550009   -1.51850414796976   -1.15262608698795
C        -3.16240466791380   -2.23592163172915   -1.74790465564176
C        -4.24808527951852   -2.65197913538042   -0.99577272801390
C        -4.30969102060362   -2.34492658030888    0.35225745672289
C        -3.28819463013223   -1.62672232308450    0.94851080107822
H        -1.15937225291091    4.52541909662061    0.95299820623520
H        -0.25685306733786    4.53919031601587   -3.46913087597684
H        -1.03571071000154    2.17155292056575   -2.66568840745570
H         0.72190501347949    1.26046675936763   -1.31164478906838
H         1.34430166373801    2.42737123217229    2.43966601638540
H         3.14139365228581    1.26311822050377   -1.52746800869347
H         2.68427188312110   -0.38733245241317   -5.70306042621720
H         1.52618422299802   -1.94935271108977   -3.92792047865706
H         0.12620639261595   -2.23560153709336    0.47336493949761
H        -0.70628691569712   -2.02655783797864    3.16394176300456
H         0.40782732224798   -2.08420065934687    5.35348164348893
H         2.75011836891837   -1.33374417775131    5.57118680507746
H         3.97277502836090   -0.55134930691179    3.57396003044298
H         2.86417998795207   -0.49990682442546    1.38879789429496
H        -1.35127814166388   -0.16595969158311    1.86954394192527
H        -1.29612438156821   -1.19605255808649   -1.74415832586695
H        -3.11085379406432   -2.47064509071821   -2.80092228612744
H        -5.04593692662132   -3.21100305389412   -1.46158895358868
H        -5.15755094084390   -2.66163313359500    0.94118399073217
H        -3.34396736358306   -1.37652151823575    1.99759588267990

 Bond Distances (Angstroems)
 ---------------------------
O1-C2=1.2108         C2-O1=1.2108         C2-C3=1.4902         C2-N8=1.3600         C3-C2=1.4902         C3-C4=1.3608         
C3-C7=1.4217         C4-C3=1.3608         C4-S5=1.7158         C4-H35=1.0714        S5-C4=1.7158         S5-C6=1.7179         
C6-S5=1.7179         C6-C7=1.3558         C6-H36=1.0716        C7-C3=1.4217         C7-C6=1.3558         C7-H37=1.0759        
N8-C2=1.3600         N8-C9=1.4414         N8-C28=1.4595        C9-N8=1.4414         C9-C10=1.5461        C9-N13=1.4374        
C9-H38=1.0967        C10-C9=1.5461        C10-O11=1.3244       C10-O12=1.2007       O11-C10=1.3244       O11-H39=0.9714       
O12-C10=1.2007       N13-C9=1.4374        N13-C14=1.3718       N13-C21=1.4560       C14-N13=1.3718       C14-C15=1.4784       
C14-O20=1.2134       C15-C14=1.4784       C15-C16=1.3666       C15-C19=1.4237       C16-C15=1.3666       C16-S17=1.7135       
C16-H40=1.0723       S17-C16=1.7135       S17-C18=1.7218       C18-S17=1.7218       C18-C19=1.3531       C18-H41=1.0714       
C19-C15=1.4237       C19-C18=1.3531       C19-H42=1.0745       O20-C14=1.2134       C21-N13=1.4560       C21-C22=1.5103       
C21-C28=1.5487       C21-H43=1.0979       C22-C21=1.5103       C22-C23=1.3903       C22-C27=1.3875       C23-C22=1.3903       
C23-C24=1.3825       C23-H44=1.0802       C24-C23=1.3825       C24-C25=1.3851       C24-H45=1.0798       C25-C24=1.3851       
C25-C26=1.3833       C25-H46=1.0798       C26-C25=1.3833       C26-C27=1.3849       C26-H47=1.0799       C27-C22=1.3875       
C27-C26=1.3849       C27-H48=1.0802       C28-N8=1.4595        C28-C21=1.5487       C28-C29=1.5072       C28-H49=1.0956       
C29-C28=1.5072       C29-C30=1.3896       C29-C34=1.3866       C30-C29=1.3896       C30-C31=1.3824       C30-H50=1.0810       
C31-C30=1.3824       C31-C32=1.3847       C31-H51=1.0801       C32-C31=1.3847       C32-C33=1.3839       C32-H52=1.0798       
C33-C32=1.3839       C33-C34=1.3838       C33-H53=1.0798       C34-C29=1.3866       C34-C33=1.3838       C34-H54=1.0799       
H35-C4=1.0714        H36-C6=1.0716        H37-C7=1.0759        H38-C9=1.0967        H39-O11=0.9714       H40-C16=1.0723       
H41-C18=1.0714       H42-C19=1.0745       H43-C21=1.0979       H44-C23=1.0802       H45-C24=1.0798       H46-C25=1.0798       
H47-C26=1.0799       H48-C27=1.0802       H49-C28=1.0956       H50-C30=1.0810       H51-C31=1.0801       H52-C32=1.0798       
H53-C33=1.0798       H54-C34=1.0799       
 C  H  Rav=1.0804 sigma=0.0078  Rmin=1.0714  Rmax=1.0979    19
 C  C  Rav=1.4161 sigma=0.0597  Rmin=1.3531  Rmax=1.5487    24
 N  C  Rav=1.4210 sigma=0.0398  Rmin=1.3600  Rmax=1.4595     6
 O  H  Rav=0.9714 sigma=0.0000  Rmin=0.9714  Rmax=0.9714     1
 O  C  Rav=1.2373 sigma=0.0505  Rmin=1.2007  Rmax=1.3244     4
 S  C  Rav=1.7173 sigma=0.0030  Rmin=1.7135  Rmax=1.7218     4

 selected bond angles (degree)
 --------------------
C3-C2-O1=123.75                N8-C2-O1=122.45                N8-C2-C3=113.78                C4-C3-C2=123.35                
C7-C3-C2=124.60                C7-C3-C4=112.04                S5-C4-C3=112.27                H35-C4-C3=127.58               
H35-C4-S5=120.15               C6-S5-C4= 91.04                C7-C6-S5=112.19                H36-C6-S5=119.56               
H36-C6-C7=128.25               C6-C7-C3=112.45                H37-C7-C3=123.69               H37-C7-C6=123.82               
C9-N8-C2=125.50                C28-N8-C2=120.79               C28-N8-C9=111.22               C10-C9-N8=111.53               
N13-C9-N8=103.74               N13-C9-C10=109.89              H38-C9-N8=112.95               H38-C9-C10=107.67              
H38-C9-N13=111.06              O11-C10-C9=112.52              O12-C10-C9=123.50              O12-C10-O11=123.98             

 selected dihedral angles (degree)
 ---------------------------------
C4-C3-C2-O1= 59.51            C4-C3-C2-N8=238.40            C7-C3-C2-O1=241.09            C7-C3-C2-N8= 59.98            
S5-C4-C3-C2=180.42            S5-C4-C3-C7=359.02            H35-C4-C3-C2=  0.84           H35-C4-C3-C7=179.44           
C6-S5-C4-C3=  0.93            C6-S5-C4-H35=180.54           C7-C6-S5-C4=359.37            H36-C6-S5-C4=179.14           
C6-C7-C3-C2=179.08            C6-C7-C3-C4=  0.50            H37-C7-C3-C2=  1.28           H37-C7-C3-C4=182.70           
C3-C7-C6-S5=  0.20            C3-C7-C6-H36=180.45           H37-C7-C6-S5=178.00           H37-C7-C6-H36=358.24          
C9-N8-C2-O1=195.22            C9-N8-C2-C3= 16.31            C28-N8-C2-O1=355.71           C28-N8-C2-C3=176.80           
C10-C9-N8-C2= 64.72           C10-C9-N8-C28=262.64          N13-C9-N8-C2=182.94           N13-C9-N8-C28= 20.87          
H38-C9-N8-C2=303.29           H38-C9-N8-C28=141.22          O11-C10-C9-N8= 16.91          O11-C10-C9-N13=262.43         
O11-C10-C9-H38=141.36         O12-C10-C9-N8=196.52          O12-C10-C9-N13= 82.05         O12-C10-C9-H38=320.97         
           -------------------------------------------------
          |                Final Singlepoint                |
           -------------------------------------------------

          ...................................................
          :                      SETUP                      :
          :.................................................:
          :  # basis functions                 168          :
          :  # atomic orbitals                 166          :
          :  # shells                           90          :
          :  # electrons                       170          :
          :  max. iterations                   250          :
          :  Hamiltonian                  GFN2-xTB          :
          :  restarted?                      false          :
          :  GBSA solvation                  false          :
          :  PC potential                    false          :
          :  electronic temp.          300.0000000     K    :
          :  accuracy                    1.0000000          :
          :  -> integral cutoff          0.2500000E+02      :
          :  -> integral neglect         0.1000000E-07      :
          :  -> SCF convergence          0.1000000E-05 Eh   :
          :  -> wf. convergence          0.1000000E-03 e    :
          :  Broyden damping             0.4000000          :
          ...................................................

 iter      E             dE          RMSdq      gap      omega  full diag
   1    -95.8485779 -0.958486E+02  0.983E-05    3.36       0.0  T
   2    -95.8485779 -0.799645E-10  0.699E-05    3.36     194.6  T
   3    -95.8485779 -0.110134E-09  0.399E-05    3.36     340.9  T

   *** convergence criteria satisfied after 3 iterations ***

         #    Occupation            Energy/Eh            Energy/eV
      -------------------------------------------------------------
         1        2.0000           -0.7833514             -21.3161
       ...           ...                  ...                  ...
        79        2.0000           -0.4111758             -11.1887
        80        2.0000           -0.4106830             -11.1753
        81        2.0000           -0.4098979             -11.1539
        82        2.0000           -0.4078013             -11.0968
        83        2.0000           -0.4047026             -11.0125
        84        2.0000           -0.4025186             -10.9531
        85        2.0000           -0.3988773             -10.8540 (HOMO)
        86                         -0.2754453              -7.4952 (LUMO)
        87                         -0.2689193              -7.3177
        88                         -0.2629336              -7.1548
        89                         -0.2380150              -6.4767
        90                         -0.2349790              -6.3941
       ...                                ...                  ...
       166                          0.6908386              18.7987
      -------------------------------------------------------------
                  HL-Gap            0.1234320 Eh            3.3588 eV
             Fermi-level           -0.3371613 Eh           -9.1746 eV

 SCC (total)                   0 d,  0 h,  0 min,  0.322 sec
 SCC setup                      ...        0 min,  0.009 sec (  2.856%)
 Dispersion                     ...        0 min,  0.017 sec (  5.141%)
 classical contributions        ...        0 min,  0.021 sec (  6.440%)
 integral evaluation            ...        0 min,  0.063 sec ( 19.604%)
 iterations                     ...        0 min,  0.044 sec ( 13.838%)
 molecular gradient             ...        0 min,  0.162 sec ( 50.510%)
 printout                       ...        0 min,  0.005 sec (  1.580%)

         :::::::::::::::::::::::::::::::::::::::::::::::::::::
         ::                     SUMMARY                     ::
         :::::::::::::::::::::::::::::::::::::::::::::::::::::
         :: total energy             -94.490422877343 Eh    ::
         :: gradient norm              0.000458130964 Eh/a0 ::
         :: HOMO-LUMO gap              3.358755659459 eV    ::
         ::.................................................::
         :: SCC energy               -95.848577896660 Eh    ::
         :: -> isotropic ES            0.117489176067 Eh    ::
         :: -> anisotropic ES          0.003469833966 Eh    ::
         :: -> anisotropic XC          0.034660118610 Eh    ::
         :: -> dispersion             -0.079456583241 Eh    ::
         :: repulsion energy           1.355737107381 Eh    ::
         :: add. restraining           0.000000000000 Eh    ::
         :: total charge               0.000000000000 e     ::
         :::::::::::::::::::::::::::::::::::::::::::::::::::::

           -------------------------------------------------
          |                Property Printout                |
           -------------------------------------------------

    * Orbital Energies and Occupations

         #    Occupation            Energy/Eh            Energy/eV
      -------------------------------------------------------------
         1        2.0000           -0.7833514             -21.3161
       ...           ...                  ...                  ...
        73        2.0000           -0.4283984             -11.6573
        74        2.0000           -0.4220824             -11.4854
        75        2.0000           -0.4169322             -11.3453
        76        2.0000           -0.4157101             -11.3120
        77        2.0000           -0.4134544             -11.2507
        78        2.0000           -0.4127855             -11.2325
        79        2.0000           -0.4111758             -11.1887
        80        2.0000           -0.4106830             -11.1753
        81        2.0000           -0.4098979             -11.1539
        82        2.0000           -0.4078013             -11.0968
        83        2.0000           -0.4047026             -11.0125
        84        2.0000           -0.4025186             -10.9531
        85        2.0000           -0.3988773             -10.8540 (HOMO)
        86                         -0.2754453              -7.4952 (LUMO)
        87                         -0.2689193              -7.3177
        88                         -0.2629336              -7.1548
        89                         -0.2380150              -6.4767
        90                         -0.2349790              -6.3941
        91                         -0.2337148              -6.3597
        92                         -0.2326016              -6.3294
        93                         -0.2294522              -6.2437
        94                         -0.2278315              -6.1996
        95                         -0.2125146              -5.7828
        96                         -0.2113179              -5.7503
       ...                                ...                  ...
       166                          0.6908386              18.7987
      -------------------------------------------------------------
                  HL-Gap            0.1234320 Eh            3.3588 eV
             Fermi-level           -0.3371613 Eh           -9.1746 eV

     #   Z          covCN         q      C6AA      α(0)
     1   8 O        0.859    -0.414    21.953     6.282
     2   6 C        2.760     0.275    22.357     7.743
     3   6 C        3.173    -0.037    28.531     8.725
     4   6 C        2.944    -0.020    28.507     8.757
     5  16 S        2.308     0.014   140.483    19.949
     6   6 C        2.940    -0.023    28.569     8.766
     7   6 C        3.119    -0.049    29.041     8.826
     8   7 N        2.769    -0.118    23.557     7.209
     9   6 C        3.770     0.088    19.155     6.237
    10   6 C        2.688     0.352    21.017     7.503
    11   8 O        1.659    -0.351    19.919     6.025
    12   8 O        0.856    -0.393    21.549     6.224
    13   7 N        2.765    -0.120    23.602     7.215
    14   6 C        2.760     0.272    22.395     7.750
    15   6 C        3.169    -0.035    28.488     8.720
    16   6 C        2.938    -0.033    28.828     8.806
    17  16 S        2.309     0.014   140.501    19.950
    18   6 C        2.938    -0.024    28.598     8.770
    19   6 C        3.119    -0.037    28.741     8.780
    20   8 O        0.860    -0.415    21.981     6.286
    21   6 C        3.838     0.037    19.933     6.352
    22   6 C        2.971     0.004    27.927     8.668
    23   6 C        2.925    -0.036    28.903     8.817
    24   6 C        2.920    -0.027    28.671     8.781
    25   6 C        2.920    -0.031    28.765     8.795
    26   6 C        2.920    -0.029    28.713     8.787
    27   6 C        2.923    -0.033    28.824     8.804
    28   6 C        3.824     0.040    19.878     6.344
    29   6 C        2.974     0.008    27.843     8.655
    30   6 C        2.924    -0.029    28.723     8.789
    31   6 C        2.919    -0.027    28.666     8.780
    32   6 C        2.920    -0.028    28.699     8.785
    33   6 C        2.920    -0.025    28.636     8.775
    34   6 C        2.924    -0.028    28.702     8.786
    35   1 H        0.926     0.055     2.260     2.351
    36   1 H        0.926     0.055     2.261     2.352
    37   1 H        0.926     0.038     2.480     2.463
    38   1 H        0.924     0.073     2.048     2.238
    39   1 H        0.804     0.345     0.599     1.216
    40   1 H        0.926     0.071     2.075     2.253
    41   1 H        0.926     0.054     2.274     2.358
    42   1 H        0.926     0.058     2.226     2.333
    43   1 H        0.924     0.088     1.898     2.155
    44   1 H        0.926     0.035     2.510     2.478
    45   1 H        0.926     0.039     2.467     2.456
    46   1 H        0.926     0.037     2.490     2.468
    47   1 H        0.926     0.037     2.485     2.465
    48   1 H        0.926     0.031     2.568     2.506
    49   1 H        0.924     0.066     2.132     2.283
    50   1 H        0.926     0.025     2.662     2.551
    51   1 H        0.926     0.036     2.508     2.477
    52   1 H        0.926     0.037     2.492     2.469
    53   1 H        0.926     0.039     2.464     2.455
    54   1 H        0.926     0.039     2.468     2.456

 Mol. C6AA /au·bohr⁶  :      46528.586466
 Mol. C8AA /au·bohr⁸  :    1251733.110712
 Mol. α(0) /au        :        343.222211


Wiberg/Mayer (AO) data.
largest (>0.10) Wiberg bond orders for each atom

 ---------------------------------------------------------------------------
     #   Z sym  total        # sym  WBO       # sym  WBO       # sym  WBO
 ---------------------------------------------------------------------------
     1   8 O    2.028 --     2 C    1.700     8 N    0.188
     2   6 C    3.949 --     1 O    1.700     8 N    1.199     3 C    0.963
     3   6 C    3.983 --     4 C    1.591     7 C    1.233     2 C    0.963
     4   6 C    3.952 --     3 C    1.591     5 S    1.207    35 H    0.970
                             6 C    0.110
     5  16 S    2.656 --     4 C    1.207     6 C    1.200
     6   6 C    3.952 --     7 C    1.637     5 S    1.200    36 H    0.970
                             4 C    0.110
     7   6 C    3.986 --     6 C    1.637     3 C    1.233    37 H    0.964
     8   7 N    3.455 --     2 C    1.199     9 C    0.986    28 C    0.953
                             1 O    0.188
     9   6 C    3.974 --    13 N    0.991     8 N    0.986    38 H    0.933
                            10 C    0.907
    10   6 C    3.917 --    12 O    1.764    11 O    1.172     9 C    0.907
    11   8 O    2.236 --    10 C    1.172    39 H    0.854    12 O    0.183
    12   8 O    2.059 --    10 C    1.764    11 O    0.183
    13   7 N    3.449 --    14 C    1.168     9 C    0.991    21 C    0.966
                            20 O    0.179
    14   6 C    3.946 --    20 O    1.689    13 N    1.168    15 C    0.999
    15   6 C    3.982 --    16 C    1.557    19 C    1.229    14 C    0.999
    16   6 C    3.953 --    15 C    1.557    17 S    1.224    40 H    0.960
                            18 C    0.108
    17  16 S    2.666 --    16 C    1.224    18 C    1.189
    18   6 C    3.950 --    19 C    1.650    17 S    1.189    41 H    0.970
                            16 C    0.108
    19   6 C    3.987 --    18 C    1.650    15 C    1.229    42 H    0.963
    20   8 O    2.029 --    14 C    1.689    13 N    0.179
    21   6 C    3.959 --    22 C    0.988    13 N    0.966    28 C    0.953
                            43 H    0.938
    22   6 C    3.986 --    27 C    1.419    23 C    1.405    21 C    0.988
                            25 C    0.110
    23   6 C    3.991 --    24 C    1.451    22 C    1.405    44 H    0.968
                            26 C    0.112
    24   6 C    3.991 --    23 C    1.451    25 C    1.433    45 H    0.971
                            27 C    0.110
    25   6 C    3.991 --    26 C    1.445    24 C    1.433    46 H    0.971
                            22 C    0.110
    26   6 C    3.992 --    25 C    1.445    27 C    1.437    47 H    0.971
                            23 C    0.112
    27   6 C    3.991 --    26 C    1.437    22 C    1.419    48 H    0.967
                            24 C    0.110
    28   6 C    3.961 --    29 C    0.989     8 N    0.953    21 C    0.953
                            49 H    0.953
    29   6 C    3.985 --    34 C    1.417    30 C    1.410    28 C    0.989
                            32 C    0.110
    30   6 C    3.992 --    31 C    1.449    29 C    1.410    50 H    0.969
                            33 C    0.112
    31   6 C    3.992 --    30 C    1.449    32 C    1.435    51 H    0.971
                            34 C    0.111
    32   6 C    3.990 --    33 C    1.442    31 C    1.435    52 H    0.971
                            29 C    0.110
    33   6 C    3.992 --    32 C    1.442    34 C    1.441    53 H    0.971
                            30 C    0.112
    34   6 C    3.990 --    33 C    1.441    29 C    1.417    54 H    0.968
                            31 C    0.111
    35   1 H    0.997 --     4 C    0.970
    36   1 H    0.996 --     6 C    0.970
    37   1 H    0.999 --     7 C    0.964
    38   1 H    0.994 --     9 C    0.933
    39   1 H    0.880 --    11 O    0.854
    40   1 H    0.995 --    16 C    0.960
    41   1 H    0.997 --    18 C    0.970
    42   1 H    0.997 --    19 C    0.963
    43   1 H    0.992 --    21 C    0.938
    44   1 H    0.999 --    23 C    0.968
    45   1 H    0.998 --    24 C    0.971
    46   1 H    0.998 --    25 C    0.971
    47   1 H    0.998 --    26 C    0.971
    48   1 H    0.999 --    27 C    0.967
    49   1 H    0.995 --    28 C    0.953
    50   1 H    0.999 --    30 C    0.969
    51   1 H    0.998 --    31 C    0.971
    52   1 H    0.998 --    32 C    0.971
    53   1 H    0.998 --    33 C    0.971
    54   1 H    0.998 --    34 C    0.968
 ---------------------------------------------------------------------------

Topologies differ in total number of bonds
Writing topology from bond orders to xtbtopo.mol

molecular dipole:
                 x           y           z       tot (Debye)
 q only:        0.258       0.564       0.152
   full:        0.268       0.434       0.190       1.384
molecular quadrupole (traceless):
                xx          xy          yy          xz          yz          zz
 q only:      -14.989      14.285      -4.983       4.507      -5.416      19.971
  q+dip:      -15.967      17.744     -14.212       8.069      -0.271      30.179
   full:      -15.608      13.652     -11.437       9.342      -0.738      27.045

           -------------------------------------------------
          |                Geometry Summary                 |
           -------------------------------------------------

      molecular mass/u    :      488.5785493
   center of mass at/Å    :        0.2036573       0.4322492      -0.2676249
  moments of inertia/u·Å² :        0.4081398E+04   0.5033061E+04   0.5380963E+04
rotational constants/cm⁻¹ :        0.4130357E-02   0.3349380E-02   0.3132828E-02

 * 52 selected distances

     #   Z          #   Z                                           value/Å
     1   8 O        2   6 C                                       1.2107595
     3   6 C        4   6 C                                       1.3607713
     4   6 C        5  16 S                                       1.7158408
     5  16 S        6   6 C                                       1.7178768
     3   6 C        7   6 C                                       1.4216960
     6   6 C        7   6 C                                       1.3557536
     2   6 C        8   7 N                                       1.3599928
     8   7 N        9   6 C                                       1.4413892
    10   6 C       11   8 O                                       1.3244160
    10   6 C       12   8 O                                       1.2006511
     9   6 C       13   7 N                                       1.4374180
    13   7 N       14   6 C                                       1.3718344
    15   6 C       16   6 C                                       1.3666324
    16   6 C       17  16 S                                       1.7135214
    17  16 S       18   6 C                                       1.7217945 (max)
    15   6 C       19   6 C                                       1.4237157
    18   6 C       19   6 C                                       1.3530957
    14   6 C       20   8 O                                       1.2134430
    13   7 N       21   6 C                                       1.4559752
    22   6 C       23   6 C                                       1.3902558
    23   6 C       24   6 C                                       1.3825096
    24   6 C       25   6 C                                       1.3850831
    25   6 C       26   6 C                                       1.3832701
    22   6 C       27   6 C                                       1.3874552
    26   6 C       27   6 C                                       1.3849093
     8   7 N       28   6 C                                       1.4594636
    29   6 C       30   6 C                                       1.3896454
    30   6 C       31   6 C                                       1.3824440
    31   6 C       32   6 C                                       1.3847414
    32   6 C       33   6 C                                       1.3839299
    29   6 C       34   6 C                                       1.3866082
    33   6 C       34   6 C                                       1.3837595
     4   6 C       35   1 H                                       1.0714433
     6   6 C       36   1 H                                       1.0716101
     7   6 C       37   1 H                                       1.0759298
     9   6 C       38   1 H                                       1.0967194
    11   8 O       39   1 H                                       0.9714220 (min)
    16   6 C       40   1 H                                       1.0722777
    18   6 C       41   1 H                                       1.0713904
    19   6 C       42   1 H                                       1.0745131
    21   6 C       43   1 H                                       1.0978785
    23   6 C       44   1 H                                       1.0802028
    24   6 C       45   1 H                                       1.0797904
    25   6 C       46   1 H                                       1.0797616
    26   6 C       47   1 H                                       1.0799328
    27   6 C       48   1 H                                       1.0801736
    28   6 C       49   1 H                                       1.0956216
    30   6 C       50   1 H                                       1.0810461
    31   6 C       51   1 H                                       1.0800920
    32   6 C       52   1 H                                       1.0798425
    33   6 C       53   1 H                                       1.0798166
    34   6 C       54   1 H                                       1.0799493

 * 6 distinct bonds (by element types)

   Z      Z             #   av. dist./Å        max./Å        min./Å
   1 H    6 C          19     1.0804206     1.0978785     1.0713904
   6 C    6 C          18     1.3836820     1.4237157     1.3530957
   6 C    7 N           6     1.4210122     1.4594636     1.3599928
   1 H    8 O           1     0.9714220     0.9714220     0.9714220
   6 C    8 O           4     1.2373174     1.3244160     1.2006511
   6 C   16 S           4     1.7172583     1.7217945     1.7135214


optimized geometry written to: xtbopt.xyz


           -------------------------------------------------
          | TOTAL ENERGY              -94.490422877343 Eh   |
          | GRADIENT NORM               0.000458130964 Eh/α |
          | HOMO-LUMO GAP               3.358755659459 eV   |
           -------------------------------------------------

------------------------------------------------------------------------
 * finished run on 2022/03/17 at 00:14:18.128     
------------------------------------------------------------------------
 total:
 * wall-time:     0 d,  0 h,  0 min, 12.210 sec
 *  cpu-time:     0 d,  0 h,  5 min, 13.067 sec
 * ratio c/w:    25.641 speedup
 SCF:
 * wall-time:     0 d,  0 h,  0 min,  0.288 sec
 *  cpu-time:     0 d,  0 h,  0 min,  4.706 sec
 * ratio c/w:    16.338 speedup
 ANC optimizer:
 * wall-time:     0 d,  0 h,  0 min, 11.792 sec
 *  cpu-time:     0 d,  0 h,  5 min,  4.868 sec
 * ratio c/w:    25.854 speedup

