54
 energy: -94.470566031679 gnorm: 0.099813449915 xtb: 6.3.3 (4ae9cef)
O        -2.65130200000000    1.85890500000000    0.93298700000000
C        -1.67269900000000    1.86313900000000    0.18911600000000
C        -1.39043200000000    3.02045000000000   -0.66122800000000
C        -1.52237400000000    4.32085900000000   -0.20156600000000
S        -1.11623900000000    5.48952900000000   -1.37866800000000
C        -0.83894600000000    4.28040400000000   -2.55571200000000
C        -1.04517400000000    3.01338900000000   -2.05638400000000
N        -0.79104300000000    0.79946700000000    0.12888700000000
C         0.60502500000000    0.89244500000000   -0.25228600000000
C         1.47004600000000    1.72089900000000    0.75338300000000
O         0.77184600000000    2.31273400000000    1.74586600000000
O         2.68718400000000    1.84186200000000    0.72508300000000
N         1.07565500000000   -0.48152800000000   -0.21125500000000
C         1.77077200000000   -1.16155200000000   -1.19749200000000
C         2.28644200000000   -0.43523900000000   -2.35939800000000
C         2.98536900000000    0.75819800000000   -2.35602400000000
S         3.35491100000000    1.32458300000000   -3.92911600000000
C         2.72355400000000   -0.09056600000000   -4.64243000000000
C         2.20764300000000   -0.95020400000000   -3.70107000000000
O         1.88467700000000   -2.38534200000000   -1.15773700000000
C         0.31442000000000   -1.22508200000000    0.81291200000000
C         1.05402300000000   -1.30499900000000    2.15254900000000
C         0.35814700000000   -1.51799000000000    3.35676500000000
C         1.03510700000000   -1.63211300000000    4.57550800000000
C         2.42383000000000   -1.56308200000000    4.61108100000000
C         3.13562300000000   -1.39557100000000    3.42851100000000
C         2.45722900000000   -1.27646900000000    2.21263700000000
C        -1.05085100000000   -0.45165700000000    0.84194500000000
C        -2.18834900000000   -1.22071200000000    0.17420200000000
C        -2.03716000000000   -1.86117900000000   -1.06794000000000
C        -3.10362900000000   -2.54759700000000   -1.65357400000000
C        -4.34257600000000   -2.58695500000000   -1.01742900000000
C        -4.51631400000000   -1.94017800000000    0.20383100000000
C        -3.44713700000000   -1.26252600000000    0.79376100000000
H        -1.82828600000000    4.63790700000000    0.78895200000000
H        -0.55434500000000    4.55379700000000   -3.56143800000000
H        -0.96979500000000    2.11871100000000   -2.66491100000000
H         0.69889600000000    1.33925100000000   -1.23798400000000
H         1.45698000000000    2.69932900000000    2.33124300000000
H         3.30647200000000    1.35118000000000   -1.51484300000000
H         2.75985500000000   -0.22859400000000   -5.71502200000000
H         1.77353400000000   -1.91068900000000   -3.95046800000000
H         0.17486700000000   -2.26886900000000    0.50191800000000
H        -0.72395100000000   -1.62037700000000    3.37750300000000
H         0.47737100000000   -1.80177400000000    5.49315900000000
H         2.95301100000000   -1.66605300000000    5.55410300000000
H         4.22204900000000   -1.36807300000000    3.44509200000000
H         3.05550900000000   -1.16691100000000    1.31166700000000
H        -1.35230800000000   -0.18663800000000    1.86121200000000
H        -1.08850200000000   -1.83803400000000   -1.59917100000000
H        -2.97135500000000   -3.04623400000000   -2.60946600000000
H        -5.17490900000000   -3.11447200000000   -1.47760700000000
H        -5.48657400000000   -1.95271900000000    0.69232600000000
H        -3.61579500000000   -0.73706100000000    1.73402200000000
54
 energy: -94.482663256514 gnorm: 0.037062262103 xtb: 6.3.3 (4ae9cef)
O        -2.64039652906508    1.81889777217681    0.91365374725734
C        -1.65520813368530    1.85295236714744    0.19808588219840
C        -1.37250608457500    3.02013267267677   -0.66014186010042
C        -1.50685623091717    4.30433364130323   -0.19610205733025
S        -1.13165422655999    5.47788598078699   -1.37812396286409
C        -0.84451806556565    4.26190181391702   -2.54899528225784
C        -1.01141122078105    3.00918965392397   -2.04081738127195
N        -0.77956287506819    0.79499978958546    0.12525442398604
C         0.61275209938389    0.88256462188458   -0.25478045566169
C         1.46445796158170    1.70050930395198    0.74989394837017
O         0.76708516991301    2.28459901837035    1.73272883692909
O         2.66164152188864    1.81939175757048    0.68691471548069
N         1.07136944741169   -0.48648356741938   -0.21958661711656
C         1.74612869419347   -1.17063329548180   -1.20539790883113
C         2.28271997534715   -0.42362851405803   -2.35888732816854
C         2.94820702569278    0.77736311038344   -2.34201223323563
S         3.40020222561143    1.30166148302165   -3.91024701456693
C         2.71453164335049   -0.09778040369956   -4.62025886894255
C         2.18802416768232   -0.93694029656581   -3.68927518460149
O         1.87523988161002   -2.38138814819687   -1.13876400734116
C         0.31677467351331   -1.20575140544523    0.81565162379045
C         1.05146420824868   -1.28929672569677    2.15296107132824
C         0.35969188774602   -1.50958162301697    3.34471244471249
C         1.03302672161370   -1.63508836864185    4.55277803848683
C         2.41532282739272   -1.56485580444375    4.59277355427728
C         3.11906475975310   -1.39008672041656    3.41335812075345
C         2.44401957646808   -1.25839127355916    2.20687588934060
C        -1.04870424760351   -0.45534567431046    0.84195125541868
C        -2.18811058432056   -1.21431180126738    0.17515133761465
C        -2.03444548809179   -1.85030950295189   -1.05637660282649
C        -3.09374365508103   -2.53160862271451   -1.63992955671298
C        -4.32766955278448   -2.57592111859781   -1.01076210199605
C        -4.49928637823139   -1.93097033502086    0.20288449217198
C        -3.43766581024647   -1.25753457577055    0.78967162526115
H        -1.80309220184372    4.61230229239089    0.79003949625733
H        -0.57169888464614    4.53463591171315   -3.55159667765232
H        -0.94447536711757    2.11819077691128   -2.64364850369851
H         0.73013963958738    1.33267666513057   -1.24437025642389
H         1.42231824468396    2.70648057469096    2.32200612926131
H         3.25903083136907    1.36110166620638   -1.49593390876488
H         2.75507563030480   -0.23850250664864   -5.68507885006361
H         1.75359311505333   -1.89254119552653   -3.92952317861161
H         0.17743093362908   -2.24012662352941    0.47686957329396
H        -0.71780035444611   -1.60740157131361    3.35408093652447
H         0.47502183958398   -1.79586211787287    5.46596083506953
H         2.94163992131042   -1.66149803608755    5.53398075598836
H         4.20047821076425   -1.36288924183330    3.42824348235351
H         3.02843174920564   -1.14788296610150    1.30348465167405
H        -1.34882461803445   -0.20163012939466    1.86448798938409
H        -1.08486721565041   -1.82965352226774   -1.57611487024182
H        -2.95797076939878   -3.02950958208793   -2.59101241979249
H        -5.15434443107481   -3.10508558778529   -1.46846205913592
H        -5.46365975673816   -1.94945370509111    0.69279809788816
H        -3.59640990236730   -0.74382731092802    1.72894819313848
54
 energy: -94.486375917069 gnorm: 0.013355936098 xtb: 6.3.3 (4ae9cef)
O        -2.63877864993487    1.78136799981367    0.89785801214948
C        -1.65097966044521    1.83437088512834    0.19663561441352
C        -1.35146516175568    3.01402903100130   -0.65462701113624
C        -1.48585565562567    4.28704192997712   -0.18467332942757
S        -1.14137371893766    5.46591889643104   -1.37470044471389
C        -0.84416411534222    4.24360804021244   -2.54231458492172
C        -0.98946892049489    2.99833477847130   -2.02888634977410
N        -0.77399178471935    0.78869968901901    0.11612309473622
C         0.61723558906126    0.87240497750069   -0.25641934089831
C         1.46170292122619    1.69063935301315    0.74098481263738
O         0.75639234379180    2.25200330353794    1.71912347778898
O         2.65175365380274    1.80309611161224    0.65367873123403
N         1.06680715760891   -0.49294033579731   -0.22224853529440
C         1.73203359915442   -1.18140264300022   -1.20147452278743
C         2.27088164424903   -0.41383025310031   -2.35009652209238
C         2.93020686953200    0.78167490909979   -2.32207659145232
S         3.40691959985980    1.29572615840618   -3.88773917834543
C         2.71861378848192   -0.10968431307295   -4.59700406924308
C         2.16730107623640   -0.92930529957022   -3.67273573645237
O         1.84955301441172   -2.38694601457319   -1.13312081882462
C         0.31286512067199   -1.20208314645602    0.81055793224133
C         1.04365965724260   -1.27938551260270    2.14196083419148
C         0.35137308944165   -1.49953824623171    3.32654538236548
C         1.02422720080494   -1.62733878210067    4.52875560498067
C         2.40487239612050   -1.55714993174963    4.56931601396539
C         3.10476039331070   -1.37389463935171    3.39062303244988
C         2.43121567928641   -1.23684536182383    2.18888607278635
C        -1.04187666466334   -0.45502197082946    0.84513420310396
C        -2.17920918034785   -1.20875531878429    0.18276063458577
C        -2.02052345281658   -1.83887194379770   -1.04505535268967
C        -3.07627504170485   -2.51551855120536   -1.63012032328985
C        -4.30927807074534   -2.56272867213830   -1.00477136082111
C        -4.48069503591848   -1.92195457039736    0.20854477065635
C        -3.42318011617838   -1.25236906281236    0.79703927225225
H        -1.77351582262371    4.58758696745714    0.80140227591753
H        -0.58122229113887    4.51833155120733   -3.54383959906976
H        -0.90804113412831    2.10508996422791   -2.62153468725589
H         0.75948459291887    1.32009800329419   -1.24926132253829
H         1.37326632486397    2.70750795863639    2.32285154250457
H         3.21817448184358    1.36603830164592   -1.47078836572529
H         2.76132225756406   -0.24643443707482   -5.65860317788727
H         1.71162208976564   -1.87411974246573   -3.90422516542993
H         0.17933331023893   -2.23318742278481    0.45737035982645
H        -0.72376969064395   -1.59566697521865    3.32484780877994
H         0.46647660519106   -1.79418710140575    5.43804876154009
H         2.92993449024054   -1.66029572052635    5.50766956610894
H         4.18372997514043   -1.34681548316809    3.40366679631820
H         3.00195599530782   -1.11183184834091    1.28176556738396
H        -1.34049888888048   -0.20038527448775    1.86763045602767
H        -1.06907357500332   -1.81449431745130   -1.55622055948645
H        -2.93662358255347   -3.01079281511522   -2.57962800849012
H        -5.13172565537849   -3.09301786263037   -1.46208936289977
H        -5.44226302262722   -1.94350905120156    0.69886105918326
H        -3.57382402476185   -0.74326718842631    1.73561463081805
54
 energy: -94.487315959312 gnorm: 0.009309442625 xtb: 6.3.3 (4ae9cef)
O        -2.64849013130692    1.75727576198050    0.88173277582023
C        -1.64967133710337    1.82292642549234    0.19663296022276
C        -1.33740009402287    3.00762522938828   -0.64650762202344
C        -1.47336517555554    4.27847608320636   -0.17564123026617
S        -1.13419144665975    5.45728036926697   -1.37011072957670
C        -0.84031766376953    4.23155881755889   -2.53859236559610
C        -0.97462739192455    2.98694959147558   -2.02017151138846
N        -0.77121011680811    0.78417936068136    0.10958617348377
C         0.61919010046236    0.86624324339635   -0.25875634208710
C         1.46021720399522    1.68232024327163    0.74359745347100
O         0.74459705029388    2.22953653987717    1.71676910093134
O         2.64915672459191    1.80902714845160    0.64061243481166
N         1.06119311145996   -0.49911515354706   -0.22538108784699
C         1.71829303017973   -1.19267732931704   -1.20278661265589
C         2.25794850716214   -0.41433529091192   -2.34492502539333
C         2.92051891047115    0.77778556392668   -2.30867675070702
S         3.41615691124639    1.28764778272544   -3.87125088791930
C         2.71680730855441   -0.11295578102958   -4.58747389500444
C         2.15506429773960   -0.92909160600577   -3.66663948761987
O         1.83095867703203   -2.39875513307412   -1.13691887087317
C         0.30832394044161   -1.20518944349805    0.80613119095880
C         1.03843626746397   -1.27551316840669    2.13196210918901
C         0.34385729338150   -1.49864332967807    3.31405768819060
C         1.01831070580577   -1.62484292607942    4.51470251701711
C         2.39951974112728   -1.54967393992961    4.55230562040548
C         3.09935433402095   -1.35419454595906    3.37457258647222
C         2.42537934284621   -1.21661780138488    2.17411615548834
C        -1.03748186388893   -0.45382093394961    0.84663859659956
C        -2.17414628665054   -1.20435734649930    0.18999680050821
C        -2.00977640195827   -1.82825432727076   -1.03982545608720
C        -3.06366643027764   -2.50413626269537   -1.62758520830636
C        -4.29708679785901   -2.55432129828358   -1.00184967579649
C        -4.47141687849064   -1.91881895575035    0.21482975762868
C        -3.41592150011945   -1.25012257662919    0.80721062725213
H        -1.75127380910109    4.57682973125092    0.81415879346280
H        -0.58477319717787    4.50767402520952   -3.54165341947721
H        -0.87745070748589    2.08922150703820   -2.60468568539467
H         0.77190565004657    1.31065326527760   -1.25240443240820
H         1.33281257768441    2.70873300519686    2.33053378046990
H         3.19590532632912    1.36179868923370   -1.45285320743608
H         2.76972248019550   -0.24723682966280   -5.64871491154674
H         1.68329625779357   -1.86713081100395   -3.89405941266372
H         0.17428434082506   -2.23632273681425    0.45293795155628
H        -0.73100868391213   -1.59700193532430    3.30575720387019
H         0.46080293475298   -1.79320167486829    5.42379591476801
H         2.92506900465922   -1.65561096830782    5.48916980079739
H         4.17802615166690   -1.31907555244834    3.38670959878302
H         2.98790508822292   -1.07767175476838    1.26372034505634
H        -1.33069256638872   -0.19059414927964    1.86818650250295
H        -1.05562595539658   -1.79867801877659   -1.54569365282976
H        -2.92100409782658   -2.99521510125658   -2.57867439346567
H        -5.11804383772022   -3.08302086552726   -1.46211367009225
H        -5.43288760807842   -1.94298328588776    0.70487859007763
H        -3.56148129096998   -0.74456255008025    1.74864451466679
54
 energy: -94.487716121980 gnorm: 0.006136637244 xtb: 6.3.3 (4ae9cef)
O        -2.65602290487741    1.74533756430652    0.86707811406234
C        -1.65097131843974    1.81485978354419    0.19173622680051
C        -1.32617585333271    3.00310717545018   -0.64017308352489
C        -1.45824978857218    4.27441668369070   -0.16875358564007
S        -1.12021016596713    5.45143387475942   -1.36705384007886
C        -0.82774095063237    4.22284070057756   -2.53467880339372
C        -0.96661613495642    2.97913913946750   -2.01515954320458
N        -0.77071612813992    0.78016249465650    0.10372802466725
C         0.61988410581687    0.86151573770629   -0.26066009681050
C         1.45471947765922    1.68489926538116    0.74518468851558
O         0.72937510494648    2.20666561889741    1.72283073588462
O         2.64277002744599    1.82326478210167    0.64255551257415
N         1.05708618917656   -0.50491933331554   -0.22818460471590
C         1.70634647606937   -1.20259264972927   -1.20721605499417
C         2.24800883326733   -0.42093443079835   -2.34417658120678
C         2.92038444686971    0.76603355879235   -2.30077083174163
S         3.41856497283883    1.28104817184492   -3.85979108107147
C         2.71675646413691   -0.11537819381257   -4.58486737436292
C         2.14617774099197   -0.93121070744397   -3.66826797224427
O         1.81031635023815   -2.41037456570142   -1.14744415961462
C         0.30472865253104   -1.20817713102105    0.80438064599413
C         1.03660836554253   -1.27339155966535    2.12589333110208
C         0.34130454537850   -1.50393519334370    3.30667819193492
C         1.01759697654349   -1.62448227976951    4.50704482073272
C         2.39878193676562   -1.53782112249163    4.54143727183159
C         3.09856658094382   -1.32965235472376    3.36521948977252
C         2.42326168258519   -1.19549913786812    2.16526066639144
C        -1.03657100250158   -0.45262735821060    0.84808223078322
C        -2.17347255305633   -1.20207624561088    0.19674263668709
C        -2.00483241159731   -1.81809720385437   -1.03712911817641
C        -3.05689151657888   -2.49360336928834   -1.62858178074994
C        -4.29006267067313   -2.54819050741653   -1.00144837277569
C        -4.46739089953712   -1.92081565048921    0.21978149006780
C        -3.41351692883699   -1.25313449171256    0.81704300134160
H        -1.73160029045549    4.57267960930453    0.82305771611241
H        -0.57734964778009    4.49882771044124   -3.53937138833305
H        -0.86473485590876    2.07856241939311   -2.59507519790092
H         0.77787229593661    1.30316513802436   -1.25349000490327
H         1.29480853915308    2.69479463185013    2.34801930992785
H         3.19143895176795    1.34713630423030   -1.44153168243385
H         2.77784006788187   -0.24536832857569   -5.64651215035578
H         1.66218233538855   -1.86348572320107   -3.89513769599978
H         0.16719195527005   -2.24004863103718    0.45499505268282
H        -0.73298967037978   -1.61126125369108    3.29356006969646
H         0.46151785374621   -1.79776962330008    5.41641782519097
H         2.92580772081738   -1.64525918595893    5.47715083979497
H         4.17712582550820   -1.28117228959269    3.37717825767533
H         2.97992568101799   -1.04360904414707    1.25282103743532
H        -1.32408159072942   -0.17945242136105    1.86865684773314
H        -1.04925520620216   -1.78051452106920   -1.54033616378228
H        -2.91210653191700   -2.97918177612661   -2.58242103710426
H        -5.11008402648407   -3.07526781090323   -1.46533206755993
H        -5.42923520335181   -1.94921273094158    0.70937308304116
H        -3.55606990532809   -0.75137453824737    1.76165915424537
54
 energy: -94.488029948512 gnorm: 0.005684287233 xtb: 6.3.3 (4ae9cef)
O        -2.66448198709458    1.73858979480911    0.85118352947293
C        -1.65282573351311    1.80970007904434    0.18585115075335
C        -1.31724675435213    3.00015213397230   -0.63569157678562
C        -1.44008715317565    4.27295731043446   -0.16442202455795
S        -1.09023399883232    5.44671699333730   -1.36293267858856
C        -0.81046913717058    4.21585609623515   -2.53184850859333
C        -0.96070866069153    2.97314423253981   -2.01231576810017
N        -0.77218010201480    0.77592198031378    0.09849890812334
C         0.61919543651674    0.85629599260893   -0.26206578548292
C         1.44717767078571    1.67996321123948    0.75440279226241
O         0.71019253601314    2.17703177759753    1.73542962733464
O         2.63259545255282    1.84645440496805    0.64860076605029
N         1.05289810291903   -0.51127432953439   -0.23106813523262
C         1.69249749117452   -1.21240275159842   -1.21476913821497
C         2.23878649097983   -0.43120635451286   -2.34689258520585
C         2.92368910398814    0.74957349552310   -2.29515113391489
S         3.42838945902158    1.27005754378931   -3.84936155381675
C         2.71604286496819   -0.11608697221120   -4.58589446757414
C         2.13767080379768   -0.93354500953953   -3.67512320225256
O         1.78353303807998   -2.42224235342011   -1.16292361131881
C         0.30144190106942   -1.21172636273101    0.80405194942042
C         1.03692249014282   -1.27133142164301    2.12230581067997
C         0.34314935047293   -1.51504862623833    3.30207824349120
C         1.02161371398967   -1.62732290081118    4.50252519593218
C         2.40187833430681   -1.52015769051466    4.53454358003940
C         3.10025083534244   -1.29612033109716    3.36017214721786
C         2.42269131232753   -1.16913357211124    2.16047381178555
C        -1.03815909118805   -0.45226646714080    0.84968500124301
C        -2.17609943723996   -1.20145609719937    0.20306281488716
C        -2.00535338117696   -1.80633806208620   -1.03686613538164
C        -3.05536779652070   -2.48138425566631   -1.63257501247706
C        -4.28713468334416   -2.54369305311210   -1.00266657683140
C        -4.46638294281902   -1.92780601358332    0.22445978086249
C        -3.41400094181062   -1.26138465784095    0.82695761186079
H        -1.70898524281554    4.57279633259510    0.82870829097348
H        -0.56045078958151    4.49049173641588   -3.53711010148108
H        -0.86230932988480    2.07046379088512   -2.58951314290417
H         0.78126963165297    1.29842843795444   -1.25249567952728
H         1.25334190008839    2.67759492361320    2.36843748339377
H         3.19589145786128    1.32418102726397   -1.43180506622866
H         2.78304105900028   -0.23976838452398   -5.64819919726788
H         1.64455480446181   -1.86047924526764   -3.90455720320603
H         0.15930342286708   -2.24457909709363    0.45947717788572
H        -0.72984519711982   -1.63813668121730    3.28479042922477
H         0.46842304464228   -1.80989479838276    5.41216901074538
H         2.93116768755357   -1.62484731209475    5.46952691945758
H         4.17832539539464   -1.22853323744073    3.37247404263127
H         2.97447115009006   -1.00333674186092    1.24714284441979
H        -1.31954579777605   -0.17010482657306    1.86980151203841
H        -1.04965727463679   -1.75830099355343   -1.53928979441325
H        -2.90968054019527   -2.95870422094257   -2.59069304664504
H        -5.10663071349809   -3.06848060623590   -1.47077551221726
H        -5.42827169443689   -1.96293743211626    0.71412396163061
H        -3.55429556117309   -0.76634143524459    1.77607424440186
54
 energy: -94.488358280957 gnorm: 0.007081833197 xtb: 6.3.3 (4ae9cef)
O        -2.67377423830602    1.73508274913077    0.83345221921729
C        -1.65628282781068    1.80590746805319    0.17721756882556
C        -1.31006359880594    2.99809421941174   -0.63483444653390
C        -1.41607475221347    4.27228105320728   -0.16194909986335
S        -1.04972218693725    5.44322182168812   -1.35835910061205
C        -0.78620347116039    4.21111580925272   -2.52953224338011
C        -0.95462677648058    2.96933391842880   -2.01246255779831
N        -0.77580051794807    0.77105049213155    0.09331520658870
C         0.61695712860745    0.85111315471891   -0.26306910345827
C         1.43586852741411    1.67838782821953    0.76159306957968
O         0.68949073334642    2.13720305024562    1.75553449681185
O         2.61700940897577    1.87263301711104    0.65677689197369
N         1.04882911157688   -0.51754419867289   -0.23390418790322
C         1.67503438621205   -1.22215372862290   -1.22547891801015
C         2.23071307924681   -0.44389656684026   -2.35252881036171
C         2.92895705907838    0.72983005610524   -2.29087692919459
S         3.44212869531898    1.25660780892292   -3.83928616598061
C         2.71778952143835   -0.11657357043553   -4.58882675219817
C         2.12968240095498   -0.93558689827657   -3.68567771599461
O         1.75144963259411   -2.43378034315956   -1.18064877140079
C         0.29900693126323   -1.21493778087378    0.80477968733691
C         1.03905557600789   -1.26786008686907    2.12087582879799
C         0.34925556694431   -1.53041869540880    3.29956343496291
C         1.02973904183664   -1.63236761736584    4.50019430062673
C         2.40790606692038   -1.49572559262570    4.53182526313823
C         3.10295638034947   -1.25293560515215    3.35936294415405
C         2.42275527676181   -1.13664723936499    2.15963705312284
C        -1.04139728842262   -0.45308900843880    0.85150194816387
C        -2.18074914790931   -1.20293090004520    0.20857059659628
C        -2.01144665512533   -1.79323128159404   -1.03925620900020
C        -3.05998124089924   -2.46665656965861   -1.63920160665587
C        -4.28892564569211   -2.54026223078255   -1.00476103165678
C        -4.46718756748361   -1.93964307001254    0.22998946379231
C        -3.41559990964135   -1.27530495010441    0.83712882642986
H        -1.68154669509884    4.57439459419206    0.83165138429838
H        -0.53276659520134    4.48418510946619   -3.53433377356442
H        -0.86940950623650    2.06575483332920   -2.59005576266570
H         0.78287022904714    1.29578495340960   -1.25030145234010
H         1.21311694515621    2.64320574749847    2.39680558493823
H         3.20406387916346    1.29620778460452   -1.42259345264616
H         2.78693605777239   -0.23180331687799   -5.65202182840095
H         1.62854639229782   -1.85667598980875   -3.92130530095917
H         0.15253198349617   -2.24879831314785    0.46506061273808
H        -0.72147401579289   -1.67515076663647    3.27870670418492
H         0.48074287513335   -1.82901303925098    5.40967941230753
H         2.93970087980095   -1.59233284370533    5.46670297487836
H         4.17973773053384   -1.16149808244146    3.37265185911960
H         2.97090494063889   -0.95674757011068    1.24677666698678
H        -1.31729731254578   -0.16506591514186    1.87175109966361
H        -1.05741491560046   -1.73317652365175   -1.54344039210591
H        -2.91558595972993   -2.93238438197082   -2.60336014879118
H        -5.10849771177339   -3.06211516822014   -1.47678059107809
H        -5.42803149923155   -1.98419674287303    0.72135941954745
H        -3.55387440184256   -0.79089188098519    1.79238383377239
54
 energy: -94.488724442127 gnorm: 0.008624734871 xtb: 6.3.3 (4ae9cef)
O        -2.68361228097988    1.73341975380090    0.81453033551900
C        -1.66088621826801    1.80262817214298    0.16683279844445
C        -1.30357295109780    2.99586316165476   -0.63829275606324
C        -1.38554520439865    4.27036980851616   -0.16092919169514
S        -0.99669986093311    5.43947342383064   -1.35204736739337
C        -0.75530056755434    4.20789234413923   -2.52784336938052
C        -0.94810887431069    2.96711310850138   -2.01621712596002
N        -0.78158964546281    0.76499551526161    0.08883575452361
C         0.61307511887270    0.84560878558479   -0.26285001028916
C         1.42323179973287    1.66970924689782    0.77236808952923
O         0.67126654032689    2.08758910205600    1.78165234406204
O         2.59718328231080    1.90222402692085    0.66106085002394
N         1.04509635142363   -0.52340861387744   -0.23589774425591
C         1.65510721334265   -1.23089669023292   -1.23739629419873
C         2.22267654443616   -0.45613123254277   -2.35968479461014
C         2.93442584222684    0.70928304700503   -2.28678068001475
S         3.45943389240886    1.24189555730309   -3.82859635000925
C         2.72201302189075   -0.11626892446806   -4.59170808585077
C         2.12051089378658   -0.93533288959447   -3.69767123426039
O         1.71321690663097   -2.44388732414817   -1.19994462965432
C         0.29684499461003   -1.21801710625193    0.80578724098051
C         1.04161961261257   -1.26334624127518    2.12068007365751
C         0.35867598656809   -1.54917396856293    3.29829783407892
C         1.04092555182496   -1.63841118303599    4.49896602355704
C         2.41533894008572   -1.46379976959674    4.53258364847648
C         3.10447577377098   -1.19973578904278    3.36167294561763
C         2.42160167378752   -1.09834176198137    2.16159093323829
C        -1.04627348595176   -0.45600485104579    0.85303400242719
C        -2.18685353247650   -1.20694553846074    0.21227185157491
C        -2.02316314787854   -1.77920591334713   -1.04496912903058
C        -3.07139523162172   -2.44938863908498   -1.64843891113235
C        -4.29587765113775   -2.53822706865835   -1.00732954387490
C        -4.46899585265196   -1.95699450054519    0.23714232693963
C        -3.41717263404504   -1.29558332875212    0.84737100976008
H        -1.64713645260701    4.57497255978461    0.83288229051285
H        -0.49413405633631    4.47977507320420   -3.53092209085370
H        -0.88352881190467    2.06398989655802   -2.59743956376479
H         0.78304777533671    1.29544549419704   -1.24660961680478
H         1.17914852807153    2.60051963606309    2.42761620618851
H         3.21380254836278    1.26566897014996   -1.41302754238634
H         2.79126650454466   -0.22250514947833   -5.65580492576519
H         1.61187547618557   -1.84975168319764   -3.94323720023209
H         0.14793547329748   -2.25277166225313    0.47017698436841
H        -0.70842569298756   -1.72071565368256    3.27497233049538
H         0.49764432746859   -1.85471105711671    5.40760765266579
H         2.94947237187214   -1.54740097608982    5.46786465391352
H         4.17871066944939   -1.07950524578314    3.37644616913762
H         2.96728847927349   -0.90259969562196    1.25059205462555
H        -1.31839616122032   -0.16650474598975    1.87392009191227
H        -1.07281016956436   -1.70613514569369   -1.55398602011281
H        -2.93107264495868   -2.89995622157082   -2.62044298547267
H        -5.11616454065878   -3.05676357574040   -1.48212328536299
H        -5.42698674034684   -2.01395806467202    0.73298937167686
H        -3.55320768516021   -0.82605747217582    1.81044658052122
54
 energy: -94.489091738455 gnorm: 0.007786220509 xtb: 6.3.3 (4ae9cef)
O        -2.69395553634434    1.73261544220141    0.79581252366277
C        -1.66624231548021    1.79946022704101    0.15619199394787
C        -1.29699223446511    2.99238063468546   -0.64599108423238
C        -1.35070871803270    4.26532180668685   -0.16097311519174
S        -0.93473964881686    5.43365509195141   -1.34396463606756
C        -0.72070051232089    4.20481405569265   -2.52727110634051