78
 energy: -193.652583140136 gnorm: 0.135721214335 xtb: 6.3.3 (4ae9cef)
C         2.24281100000000    1.67419000000000   -1.79306400000000
C         3.11118700000000    2.34707600000000   -0.74916200000000
F         4.03335700000000    3.20711300000000   -1.26176300000000
F         2.37730900000000    3.07202000000000    0.13890100000000
F         3.81147300000000    1.44950200000000   -0.00254800000000
C         2.55015800000000    1.88253600000000   -3.15210700000000
C         1.77481700000000    1.31917800000000   -4.16376900000000
C         0.67335400000000    0.53994800000000   -3.83688000000000
C         0.35122100000000    0.31470200000000   -2.49902300000000
C         1.13388500000000    0.85491100000000   -1.45443900000000
C         0.75946800000000    0.55885700000000    0.00234000000000
C        -0.50311000000000    1.37988100000000    0.42375900000000
C        -0.25378200000000    2.32140400000000    1.60167100000000
C        -0.44585700000000    3.72506800000000    1.49616800000000
C        -0.80380600000000    4.41618700000000    0.19198800000000
F        -2.07915600000000    4.19416700000000   -0.21135600000000
F        -0.66363100000000    5.77198800000000    0.23852800000000
F        -0.00590500000000    4.00956800000000   -0.83875100000000
C        -0.24863600000000    4.53506900000000    2.63475800000000
C         0.17459500000000    3.99202100000000    3.84444100000000
C         0.41891800000000    2.63026500000000    3.93576000000000
C         0.21443100000000    1.80708500000000    2.82836600000000
N        -1.53835900000000    0.36864000000000    0.71490500000000
C        -2.87832400000000    0.67558100000000    0.53283900000000
C        -3.85516000000000   -0.42816000000000    0.46037500000000
C        -4.09202900000000   -1.04761500000000   -0.77029800000000
C        -5.01924900000000   -2.09561300000000   -0.86151400000000
C        -5.29427000000000   -2.76467800000000   -2.18903400000000
F        -4.24481400000000   -2.67416200000000   -3.05086600000000
F        -5.56079100000000   -4.09265100000000   -2.06679500000000
F        -6.35935700000000   -2.21463200000000   -2.83010900000000
C        -5.71916600000000   -2.48375900000000    0.29523200000000
C        -5.50171100000000   -1.84752200000000    1.53228700000000
C        -6.29828300000000   -2.25856600000000    2.75239100000000
F        -5.68019400000000   -1.94184900000000    3.92254400000000
F        -7.52079100000000   -1.66511300000000    2.79235800000000
F        -6.52922900000000   -3.59862100000000    2.80079100000000
C        -4.56677400000000   -0.80345500000000    1.60244100000000
O        -3.30150500000000    1.81726700000000    0.42811200000000
C        -0.97769900000000   -0.98166300000000    0.71803100000000
C        -0.97838200000000   -1.58071800000000    2.16600600000000
O        -1.60211300000000   -0.79887800000000    3.08839500000000
O        -0.45632600000000   -2.63588100000000    2.49418200000000
N         0.37375200000000   -0.84868400000000    0.22014600000000
C         1.02977700000000   -1.97940100000000   -0.22798700000000
C         2.48040600000000   -1.89637200000000   -0.49484600000000
C         3.36145600000000   -1.54170000000000    0.52985500000000
C         4.73993900000000   -1.46520200000000    0.27598000000000
C         5.70420100000000   -1.09599400000000    1.38020900000000
F         5.12009600000000   -0.38261800000000    2.38094500000000
F         6.25164900000000   -2.19329000000000    1.97013800000000
F         6.74742900000000   -0.33933200000000    0.94072000000000
C         5.21188000000000   -1.76830500000000   -1.01385000000000
C         4.33105900000000   -2.15013600000000   -2.04276400000000
C         4.86699000000000   -2.48472500000000   -3.41434600000000
F         5.63420100000000   -3.60764800000000   -3.41016200000000
F         5.65305100000000   -1.49327700000000   -3.91609300000000
F         3.89380100000000   -2.69419400000000   -4.34277000000000
C         2.95843300000000   -2.22492000000000   -1.76598200000000
O         0.45213500000000   -3.03908400000000   -0.44071400000000
H         3.40208100000000    2.50213700000000   -3.43447500000000
H         2.02705600000000    1.49621300000000   -5.20708700000000
H         0.06290500000000    0.10470200000000   -4.62543400000000
H        -0.51934800000000   -0.30296600000000   -2.28260300000000
H         1.61505500000000    0.74340300000000    0.65705000000000
H        -0.88098800000000    1.95345800000000   -0.42795800000000
H        -0.40514200000000    5.61097700000000    2.57401600000000
H         0.33218100000000    4.63608400000000    4.70724300000000
H         0.77641400000000    2.20492900000000    4.87139900000000
H         0.44948900000000    0.75176500000000    2.94817100000000
H        -3.55909900000000   -0.71094200000000   -1.65987100000000
H        -6.45551300000000   -3.28855700000000    0.22983800000000
H        -4.40780700000000   -0.28329800000000    2.54634100000000
H        -1.55938000000000   -1.65122100000000    0.07833900000000
H        -1.85732500000000    0.07392300000000    2.71939200000000
H         2.97897400000000   -1.34005200000000    1.52985800000000
H         6.28423900000000   -1.71600700000000   -1.21815900000000
H         2.25738200000000   -2.53035400000000   -2.54063000000000
78
 energy: -193.672206271637 gnorm: 0.054137156885 xtb: 6.3.3 (4ae9cef)
C         2.23179699730314    1.66377334805722   -1.79687276111578
C         3.09308859407260    2.33183386347462   -0.75264029389360
F         4.00358735555947    3.17929439469446   -1.26987607190745
F         2.37558867967775    3.05395016137652    0.13895418069478
F         3.79764036652884    1.43924418500646   -0.01375386681642
C         2.54214501830227    1.88101744476682   -3.14078465899045
C         1.77493710528012    1.31817943490284   -4.14669920087592
C         0.67830772750160    0.54094810394698   -3.81675497224056
C         0.36612703664435    0.31344732310802   -2.48443191842152
C         1.13942254705800    0.84770737419014   -1.45062343051476
C         0.76019532550555    0.55979868765967    0.00092084389185
C        -0.49522250218175    1.38401840228033    0.42411771885993
C        -0.24292819516095    2.32529735360181    1.59668596794527
C        -0.43637011230456    3.71617462234064    1.50035203166680
C        -0.79827104668810    4.40099579878410    0.20107925316895
F        -2.06533316819702    4.18704627195767   -0.20201643523448
F        -0.65764388630736    5.74329438322168    0.26133734778039
F        -0.00942770348529    4.00479944484896   -0.83123117778146
C        -0.24326789126874    4.52566351424569    2.62224419441751
C         0.17019926610632    3.98595719074882    3.82844446847534
C         0.41408595522527    2.62753518253478    3.91839175129468
C         0.20862095511780    1.81189113230333    2.81509621316912
N        -1.53024738753988    0.37181075578504    0.70315020585838
C        -2.86120003746287    0.67738611996424    0.52179705837848
C        -3.83371055510845   -0.45558787567637    0.46704180480568
C        -4.08703941753804   -1.06443024560234   -0.75907647812999
C        -5.02461431589081   -2.09053059931940   -0.84410466112820
C        -5.29512923213184   -2.75810375924433   -2.17082952756121
F        -4.24973708951395   -2.66200455562529   -3.02062236124108
F        -5.56249942635351   -4.07381496074719   -2.04901176417117
F        -6.35044649617867   -2.21042371205208   -2.81004557150427
C        -5.72436236467240   -2.48449851525200    0.29503065124547
C        -5.49891802842890   -1.84617160869689    1.51410637096883
C        -6.29097208108111   -2.25601195023161    2.73372959928169
F        -5.67323603527114   -1.93594979100874    3.88953268383965
F        -7.50301957712150   -1.66232206096948    2.77506978064104
F        -6.52098039429438   -3.58451520934596    2.78056234964758
C        -4.55922776789102   -0.82056814326644    1.59773515313255
O        -3.26325533577809    1.81569992175811    0.43578632620338
C        -0.98266523808389   -0.97268370493832    0.71904401376057
C        -0.96949666968249   -1.56282128042972    2.16633162684407
O        -1.60145362489323   -0.80813344992030    3.08227491718561
O        -0.46030229246600   -2.60078061994964    2.46091101671762
N         0.36733032831713   -0.84109166633133    0.21282416670074
C         1.01427894418036   -1.96386651227107   -0.24660935333151
C         2.47913797096708   -1.86054234726909   -0.50523207547505
C         3.36276077193552   -1.52510560217848    0.51697948474782
C         4.73181518379249   -1.47145137783057    0.26141330928765
C         5.69421915397908   -1.10182385404900    1.36399061413074
F         5.10890359907305   -0.39542990621627    2.35368680753357
F         6.23700617320237   -2.19070950468577    1.95209505594570
F         6.72933679679919   -0.35459685069052    0.92644743463318
C         5.21180344103225   -1.76923675283446   -1.01263152891642
C         4.32817451902171   -2.14516609080195   -2.02450651889122
C         4.86523236638076   -2.48006054271238   -3.39392665671435
F         5.62496593594641   -3.59574615377679   -3.39300753891538
F         5.64496668927342   -1.49482559122028   -3.89232432773667
F         3.89455587959962   -2.68329971379955   -4.30948165086202
C         2.96234440612900   -2.20647951148527   -1.76372537050288
O         0.43354497611183   -3.01374840788095   -0.42735436209085
H         3.39029541819264    2.49777642873598   -3.41045673021588
H         2.02799284689974    1.49423058635660   -5.18361831270870
H         0.06646680362049    0.10950733940432   -4.59869578470349
H        -0.49756560268716   -0.29882224129166   -2.25842855585266
H         1.60694361316828    0.77461257688600    0.65895122311056
H        -0.86519730177298    1.96194082654601   -0.42769422625846
H        -0.40468306241043    5.59357977081852    2.55336232599753
H         0.32291161581907    4.62775829781442    4.68612246004402
H         0.76964616166450    2.20059430711066    4.84729658008132
H         0.43123379817989    0.75842603524950    2.92457041947856
H        -3.56294330130937   -0.73001488084854   -1.64695193698882
H        -6.44726559231260   -3.28976416205415    0.23237585771011
H        -4.40396790835118   -0.30466254318735    2.53743231732185
H        -1.56271168634521   -1.66255600234908    0.08924173246647
H        -1.85757720762154    0.06342332941760    2.72391892006306
H         2.98777104843380   -1.32810164577614    1.51371358411986
H         6.27520454240489   -1.71214663188948   -1.21684251810690
H         2.26830762177877   -2.52001337819235   -2.53328722344836
78
 energy: -193.677716393457 gnorm: 0.014523026385 xtb: 6.3.3 (4ae9cef)
C         2.22363540370723    1.65410124429575   -1.79057800100729
C         3.08177809529422    2.31663445206048   -0.74673016930223
F         3.98210297805529    3.15497599420777   -1.26403868731048
F         2.37384816875395    3.02991093428195    0.14948362925851
F         3.78568062048798    1.42039554037786   -0.01798318791316
C         2.53661965586532    1.87684863001858   -3.12571136543011
C         1.77165992150691    1.31251284861259   -4.12826478322180
C         0.67915269938451    0.53286192383170   -3.79416741590426
C         0.37402393734804    0.30356701647249   -2.46387790401513
C         1.14275599659561    0.83934593255230   -1.43807785490114
C         0.76383743711086    0.56115954731976    0.00860672460636
C        -0.49163362680612    1.38855060030963    0.41318114767358
C        -0.24073259260289    2.32197519339461    1.58546664660080
C        -0.42876430964109    3.70587295745328    1.49439751582995
C        -0.79057437112536    4.39001645462226    0.19914804099385
F        -2.05074224081266    4.17976833801509   -0.20137237421335
F        -0.64786173812944    5.72048437241197    0.27098588268181
F        -0.00790694043316    3.99833015091541   -0.83235791140397
C        -0.23886931282037    4.51511977871708    2.60735095773910
C         0.16885525164656    3.97489541955788    3.81234143075941
C         0.41012154095088    2.61662928560441    3.90065906451545
C         0.20211782489879    1.80564712420825    2.79840939041701
N        -1.52607778453617    0.37960831154365    0.68727276255360
C        -2.85067507948335    0.68891747421995    0.51877862600269
C        -3.81501023791190   -0.46896930391855    0.47244630965172
C        -4.07423296634008   -1.07713277844899   -0.75007670900352
C        -5.01896822840605   -2.09031986423943   -0.82969736750361
C        -5.29376052318005   -2.75234223470579   -2.15704144100485
F        -4.25340582275865   -2.65102232309790   -2.99810127346378
F        -5.56404376886064   -4.05662486436789   -2.03233951166663
F        -6.34358224019248   -2.20192498947733   -2.78716641177870
C        -5.72309523827300   -2.49071152842328    0.29572592379176
C        -5.48693046912990   -1.84885472210720    1.50229244326677
C        -6.28260716323478   -2.25275347437927    2.71943054595285
F        -5.66790750751984   -1.92897742439640    3.86396954540235
F        -7.48557563039440   -1.65623240344943    2.75246069020564
F        -6.51234964101026   -3.57120392967058    2.76120252691919
C        -4.54503626982413   -0.83350100568775    1.59682356789491
O        -3.23559106852350    1.82696470425251    0.43766101354734
C        -0.98620222050918   -0.95662284856373    0.72100202579661
C        -0.97045080780126   -1.55327889946345    2.16661771253877
O        -1.59392056552263   -0.80589659075219    3.07909448326328
O        -0.43632467848041   -2.57626328183037    2.43753444551559
N         0.36449128145454   -0.83088646837046    0.21210344034045
C         0.99892729028948   -1.95079373944418   -0.25549908391771
C         2.47106171195314   -1.82651111660843   -0.51644265294289
C         3.35527017717297   -1.50333624247230    0.50500713455745
C         4.71898151773354   -1.46710367079768    0.24781768705604
C         5.68184584515559   -1.10510413259216    1.35105357024938
F         5.09724223180720   -0.40603651252796    2.33313638464522
F         6.21789272570274   -2.19273395658331    1.93060314839211
F         6.70999415069339   -0.36858974275282    0.91129628715369
C         5.21046710670296   -1.76284756871598   -1.01453589245809
C         4.32149618889763   -2.13177561101229   -2.01495597144529
C         4.86233992486020   -2.47360358628435   -3.37996221446890
F         5.61581724324308   -3.58287858874927   -3.37131550077467
F         5.63949600710984   -1.49274299235613   -3.86967566456809
F         3.89580269082756   -2.67287434093021   -4.28617959938606
C         2.95834450761723   -2.17970526096670   -1.76865944016585
O         0.41134818113296   -2.99070891381459   -0.42535724636768
H         3.37932152403401    2.49830214368017   -3.38389255384003
H         2.02324836261326    1.49026606564225   -5.16150403546753
H         0.06396697846776    0.10463945247127   -4.57015931152616
H        -0.48140533758635   -0.31038979292917   -2.22627803634632
H         1.60070382257954    0.79865059508989    0.67287720207592
H        -0.85297218215408    1.97039118995976   -0.43938746509931
H        -0.40072232459384    5.57861360035588    2.53021429192897
H         0.31518036201905    4.61493158052458    4.66789328244997
H         0.76050526744599    2.18610552530542    4.82559184136896
H         0.41340134267723    0.75143330240269    2.89574631717736
H        -3.55074426191630   -0.75349202354983   -1.63745178703914
H        -6.44627106055690   -3.28925436873003    0.23259530354640
H        -4.38894898596128   -0.32826468867562    2.53782088357516
H        -1.55889688451560   -1.66718472889783    0.10123295973284
H        -1.86754869324203    0.05864839778606    2.72560604773538
H         2.98668130233144   -1.29908072348323    1.49854835483658
H         6.27002194783822   -1.71319052771929   -1.21497569492476
H         2.27030755082334   -2.49535431653190   -2.53767267041836
78
 energy: -193.678894439588 gnorm: 0.009214381133 xtb: 6.3.3 (4ae9cef)
C         2.22312275721015    1.64871183259036   -1.77990929275091
C         3.08170606026944    2.30594388238614   -0.73398214305133
F         3.97851033592069    3.14532863623747   -1.24661927319416
F         2.37546184509591    3.00958525017047    0.16931792463540
F         3.78501737252675    1.40167147055355   -0.01409899130479
C         2.53237528332024    1.87415787984346   -3.11494186814761
C         1.76582019118758    1.30559890080715   -4.11478382728249
C         0.67808257233374    0.51974910706813   -3.77749360242842
C         0.37790699367977    0.28801634629554   -2.44713103250015
C         1.14770570223728    0.83052231596862   -1.42589600153148
C         0.76604137261272    0.56142167279260    0.01721050664900
C        -0.49146414867029    1.39017990341815    0.40324432381204
C        -0.24271775939542    2.31939157716871    1.57394818348875
C        -0.42308051576375    3.70276257325147    1.48281341967006
C        -0.78094420655885    4.38811549577185    0.18713297079150
F        -2.03917227969951    4.17811003249536   -0.21407659609397
F        -0.63568050791819    5.71534410114548    0.26210430907015
F         0.00264536716712    3.99538936066940   -0.84239218756416
C        -0.23341966700628    4.50951472308887    2.59721970359097
C         0.16762407250185    3.96380228041242    3.80254300662792
C         0.40293596918876    2.60402664549601    3.88946903187229
C         0.19462029478515    1.79623934781298    2.78561991377173
N        -1.52501352535895    0.38391021893569    0.67688033290097
C        -2.84762925995719    0.69751545344206    0.51838624572484
C        -3.80497392709481   -0.46889229775824    0.47503052203677
C        -4.05991747491066   -1.08211333926319   -0.74568267163070
C        -5.00694735581422   -2.09235917609552   -0.82436150142138
C        -5.28870453536870   -2.74970869044657   -2.15257010175867
F        -4.25193543505291   -2.64842395174659   -2.99453905697095
F        -5.56494275902373   -4.05027922388875   -2.02672371437753
F        -6.33861964996133   -2.19193426880243   -2.77347790915956
C        -5.71739219421576   -2.49250004758528    0.29673305002570
C        -5.47348574089881   -1.85237787980092    1.50206664210887
C        -6.27581960699328   -2.25108971097303    2.71628689694581
F        -5.66552156654891   -1.92595157645131    3.86000717582150
F        -7.47498833592907   -1.64868055210028    2.73801085892004
F        -6.50988907846330   -3.56653407506718    2.75544073247655
C        -4.53000826083442   -0.83969694170266    1.59990569716854
O        -3.22913196972825    1.83717458825735    0.44255723905479
C        -0.98683560377369   -0.94787284135291    0.72328681740835
C        -0.95196710518430   -1.53504100765107    2.17425901431846
O        -1.60659898513416   -0.80978213586359    3.08105800799219
O        -0.41084534593343   -2.56078073914144    2.43198127302914
N         0.36308705426062   -0.82523707562868    0.21531360939372
C         0.98835530435852   -1.94355525237366   -0.26269305649475
C         2.45955778458147   -1.80914088482304   -0.52687836856347
C         3.34113100089328   -1.48321547215189    0.49519541373212
C         4.70503657295646   -1.45549568367900    0.24099688255240
C         5.66955640836321   -1.10303298193847    1.34596564605124
F         5.08857921941659   -0.40648335265127    2.32879592831775
F         6.19850416902837   -2.19694269554305    1.91758895440457
F         6.69923922794547   -0.37352556817404    0.90503474979869
C         5.20348225123308   -1.75606319353985   -1.01687142256578
C         4.31278086275097   -2.11692895830694   -2.01804584157768
C         4.85964353002257   -2.46448887798907   -3.37885210834703
F         5.61023336437775   -3.57322638820777   -3.35870228419980
F         5.64107976355906   -1.48574566412412   -3.86215169078534
F         3.89806962865390   -2.66362369247315   -4.28682291157251
C         2.94899633495839   -2.15860047713839   -1.77884188595936
O         0.39725456675653   -2.98125856478161   -0.43219504144854
H         3.37219285947655    2.49997593434791   -3.37023588190700
H         2.01436335581220    1.48429772222383   -5.14812993201472
H         0.06121292553542    0.08908974424002   -4.55004911632357
H        -0.47185682010933   -0.33091690982025   -2.20138721262078
H         1.59535925193925    0.80655700586489    0.68772338807266
H        -0.84477591001977    1.97032342614572   -0.45349605428217
H        -0.39141240815803    5.57299530597994    2.51787972727929
H         0.31278946579166    4.60199263918091    4.65903228965173
H         0.75019736524829    2.16886728087938    4.81292701558218
H         0.39830227382417    0.73983208083289    2.87549447616883
H        -3.53276768398394   -0.76722814402563   -1.63358325055130
H        -6.44497251773060   -3.28675353603386    0.23235132533944
H        -4.37236484729446   -0.34215199610213    2.54438505802146
H        -1.55433530974807   -1.66913181244546    0.10980651042543
H        -1.88995077858479    0.05413428041354    2.73438469035345
H         2.97396298961629   -1.27059027868613    1.48719460676234
H         6.26406634627680   -1.71559795330168   -1.21275319512380
H         2.26347700914697   -2.46729514655831   -2.55221504631395
78
 energy: -193.679702492984 gnorm: 0.010402554315 xtb: 6.3.3 (4ae9cef)
C         2.22549149568564    1.64291587362558   -1.76543438970993
C         3.08522995034331    2.29434561395350   -0.71652904874470
F         3.97911311483800    3.13793317940058   -1.22234300551414
F         2.38009179323547    2.98616569307227    0.19688315808157
F         3.78912277891756    1.38030371423638   -0.00701474453839
C         2.52860644982996    1.87022273002273   -3.10226306987158
C         1.75982191751138    1.29572868243884   -4.09809153399795
C         0.67961446880505    0.50007166588127   -3.75733483365414
C         0.38490499509753    0.26659984648107   -2.42676956264387
C         1.15621324391158    0.81886436113826   -1.41034899437237
C         0.76852865360339    0.55771206118267    0.02859470328887
C        -0.49163008429626    1.38918665134435    0.39297205236496
C        -0.24800895180886    2.31730549483472    1.56031759222995
C        -0.41640484634422    3.70136039106396    1.46761312650619
C        -0.76480722219638    4.38794362906924    0.16904330313008
F        -2.02086265307069    4.17820436914600   -0.23787607655435
F        -0.61566917940382    5.71344769491937    0.24472702127089
F         0.02410538499529    3.99162489555872   -0.85579280026736
C        -0.22521199808922    4.50429515772048    2.58573290403979
C         0.16612136672080    3.95067843240806    3.79140881180672
C         0.39115189957499    2.58875000778826    3.87747287961336
C         0.18164487288282    1.78518712410488    2.77153312462387
N        -1.52539326341420    0.38618366192100    0.66525341565731
C        -2.84646152817082    0.70566434286623    0.52018179838026
C        -3.79569516663900   -0.46624745135630    0.47853353455178
C        -4.04217579554644   -1.08641226157723   -0.74054651719986
C        -4.98940707242908   -2.09612908609930   -0.81961447230874
C        -5.27980443735776   -2.74765218557994   -2.14936498098533
F        -4.24800457453783   -2.64764533599777   -2.99620516132495
F        -5.56449420390261   -4.04594137566771   -2.02502400093614
F        -6.33129608348870   -2.17906002500680   -2.75857567195000
C        -5.70715542179082   -2.49393731656771    0.29857296214901
C        -5.45681656984895   -1.85763071609837    1.50518868596877
C        -6.26746414140669   -2.25063371076373    2.71607393256706
F        -5.66473257817920   -1.92346493239300    3.86230559343721
F        -7.46364726506759   -1.64073060112358    2.72253641944905
F        -6.50830652125279   -3.56418111948496    2.75492060546734
C        -4.51398187483933   -0.84482319315796    1.60477199407018
O        -3.22644482796030    1.84698570972735    0.45146521559061
C        -0.98837252199252   -0.94180203320870    0.72987087713944
C        -0.95413734638310   -1.52313422519293    2.18420849482627
O        -1.61204849291622   -0.80371786410156    3.09039453423311
O        -0.36358428308802   -2.52546728740391    2.44245078755358
N         0.36128570690349   -0.82330677144278    0.22413622342072
C         0.97533643681236   -1.93784707604906   -0.27320471585222
C         2.44306818818905   -1.79318226416744   -0.54236602983318
C         3.32011551478520   -1.46239562297409    0.48188604956104
C         4.68497042205577   -1.43982335440386    0.23316688380968
C         5.65078930823761   -1.09819468296365    1.34103838301497
F         5.07488972259319   -0.40499247936964    2.32801998450804
F         6.17162459302434   -2.20162352284074    1.90274239577167
F         6.68484298598765   -0.37488895160694    0.90155388016250
C         5.19031591622110   -1.74670302826098   -1.02088561762583
C         4.30023189024672   -2.09592879059624   -2.02752512780971
C         4.85654512305189   -2.44880487184308   -3.38321802947929
F         5.60458958289522   -3.55845931418790   -3.34819660036003
F         5.64556735865893   -1.47257604103635   -3.85974584711944
F         3.90297401853357   -2.64903657488027   -4.29804198254581
C         2.93531434742447   -2.13292396727880   -1.79574339985955
O         0.38027720817624   -2.97231619584187   -0.45075985727855
H         3.36378599021494    2.50276482563785   -3.35702630112190
H         2.00214554617304    1.47720921810338   -5.13250321243740
H         0.06210221995228    0.06354686773612   -4.52625178998653
H        -0.45762141954747   -0.35949973661170   -2.17215821329016
H         1.58843651283591    0.80852862832754    0.70754435162423
H        -0.83455120453772    1.96453552756213   -0.47101155477550
H        -0.37434872203949    5.56909874565278    2.50517543573920
H         0.31135052451541    4.58612048972249    4.64991624135008
H         0.73233364988252    2.14712974727426    4.80040019668332
H         0.37741498836511    0.72629452519594    2.85287193358583
H        -3.51066803684961   -0.77966560374881   -1.62903563560210
H        -6.44150967882123   -3.28227411314559    0.23180209966422
H        -4.35483123997993   -0.35563134728939    2.55364141701209
H        -1.54791779516218   -1.67431668717652    0.12346408206481
H        -1.92476247890799    0.04942625338893    2.74057271276839
H         2.95256770420963   -1.24011132436556    1.47190364992472
H         6.25296169246379   -1.71845109605133   -1.20994771135919
H         2.25263394290446   -2.43077167359337   -2.57611295775292
78
 energy: -193.680183900825 gnorm: 0.007378949182 xtb: 6.3.3 (4ae9cef)
C         2.23007317392132    1.63849035016664   -1.75469147860965
C         3.09035653717639    2.28797754405997   -0.70426157091807
F         3.98207428994152    3.13659409033332   -1.20593213748057
F         2.38563951404032    2.97223505742754    0.21633911023330
F         3.79714617692619    1.36987437242024   -0.00070680889726
C         2.52809501572322    1.86684913452891   -3.09343487604360
C         1.75900099557483    1.28773646074723   -4.08644579450488
C         0.68579852415491    0.48292226573106   -3.74440437003777
C         0.39426224265805    0.24938189142750   -2.41381016199461
C         1.16523275825271    0.80900158617239   -1.39969419373801
C         0.77104732372553    0.55125564972417    0.03688013006465
C        -0.49086180226316    1.38681006528427    0.38679433361245
C        -0.25260112047987    2.31735673302493    1.55158603028536
C        -0.41065924017973    3.70226836164211    1.45669664704480
C        -0.74729357521574    4.38831123945866    0.15394602310396
F        -2.00085162628403    4.17869892172997   -0.26324706860646
F        -0.59533130021379    5.71405857879099    0.22708664384731
F         0.04989702845473    3.98712536566587   -0.86421867398866
C        -0.21709831859713    4.50271830210121    2.57743847091533
C         0.16452822623382    3.94392142912450    3.78399067107098
C         0.37875913613307    2.58022665357022    3.87139846242640
C         0.16896364486619    1.77973248539859    2.76400153436183
N        -1.52557007157033    0.38604102238034    0.65858857080720
C        -2.84675245799156    0.70858062055963    0.52646893062489
C        -3.79099632455478   -0.46425840596842    0.48355856159104
C        -4.03030952650461   -1.08795885735060   -0.73543456470944
C        -4.97553309299784   -2.09960373217283   -0.81646794351981
C        -5.27069433214507   -2.74666396400717   -2.14779795221641
F        -4.24250153415405   -2.64754802281022   -2.99977893217654
F        -5.56107338661968   -4.04495007957704   -2.02792728975083
F        -6.32370696245403   -2.17002365867708   -2.74950691781705
C        -5.69672452938753   -2.49571137239091    0.30103807154800
C        -5.44661080119744   -1.86259034896280    1.50995217666094
C        -6.26250690458701   -2.25243747908226    2.71858661464344
F        -5.66614087232754   -1.92313798965526    3.86835261236347
F        -7.45787408892080   -1.63832156930086    2.71487530511558
F        -6.50780838840359   -3.56574643216657    2.76033008058350
C        -4.50663635374904   -0.84697759215812    1.60992472341968
O        -3.22784913540433    1.85011636939912    0.46273028197271
C        -0.98780130458182   -0.94055558329601    0.73980530179973
C        -0.94170687752489   -1.50303354118965    2.20169756844248
O        -1.63630286998570   -0.80191308479932    3.09649072408545
O        -0.33415209627420   -2.49207214956866    2.46700602469746
N         0.36048224877192   -0.82724933504607    0.23363848751738
C         0.96550213703244   -1.93759817929907   -0.28409167753846
C         2.42965801261434   -1.78801462510783   -0.55740575937710
C         3.30232724930260   -1.45479043003189    0.47010815793593
C         4.66796575243526   -1.43004909182227    0.22658358863372
C         5.63236897227830   -1.09385275727119    1.33763189275185
F         5.05833605868424   -0.40444128747527    2.32898592721333
F         6.14941749046001   -2.20358608860819    1.89310393850715