      -----------------------------------------------------------      
     |                   =====================                   |     
     |                           x T B                           |     
     |                   =====================                   |     
     |                         S. Grimme                         |     
     |          Mulliken Center for Theoretical Chemistry        |     
     |                    University of Bonn                     |     
      -----------------------------------------------------------      

   * xtb version 6.3.3 (4ae9cef) compiled by 'conda@95abc7406d43' on 2020-10-14

   xtb is free software: you can redistribute it and/or modify it under
   the terms of the GNU Lesser General Public License as published by
   the Free Software Foundation, either version 3 of the License, or
   (at your option) any later version.
   
   xtb is distributed in the hope that it will be useful,
   but WITHOUT ANY WARRANTY; without even the implied warranty of
   MERCHANTABILITY or FITNESS FOR A PARTICULAR PURPOSE.  See the
   GNU Lesser General Public License for more details.
   
   Cite this work as:
   * C. Bannwarth, E. Caldeweyher, S. Ehlert, A. Hansen, P. Pracht,
     J. Seibert, S. Spicher, S. Grimme, WIREs Comput. Mol. Sci., 2020,
     e01493. DOI: 10.1002/wcms.1493
   
   for GFN2-xTB:
   * S. Grimme, C. Bannwarth, P. Shushkov, J. Chem. Theory Comput., 2017,
     13, 1989-2009. DOI: 10.1021/acs.jctc.7b00118
   for GFN1-xTB:
   * C. Bannwarth, S. Ehlert and S. Grimme., J. Chem. Theory Comput., 2019,
     15, 1652-1671. DOI: 10.1021/acs.jctc.8b01176
   for GFN0-xTB:
   * P. Pracht, E. Caldeweyher, S. Ehlert, S. Grimme, ChemRxiv, 2019, preprint.
     DOI: 10.26434/chemrxiv.8326202.v1
   for GFN-FF:
   * S. Spicher and S. Grimme, Angew. Chem. Int. Ed., 2020, 59, 15665-15673.
     DOI: 10.1002/anie.202004239
   
   for DFT-D4:
   * E. Caldeweyher, C. Bannwarth and S. Grimme, J. Chem. Phys., 2017,
     147, 034112. DOI: 10.1063/1.4993215
   * E. Caldeweyher, S. Ehlert, A. Hansen, H. Neugebauer, S. Spicher,
     C. Bannwarth and S. Grimme, J. Chem. Phys., 2019, 150, 154122.
     DOI: 10.1063/1.5090222
   * E. Caldeweyher, J.-M. Mewes, S. Ehlert and S. Grimme, Phys. Chem. Chem. Phys.
     2020, 22, 8499-8512. DOI: 10.1039/D0CP00502A
   
   for sTDA-xTB:
   * S. Grimme and C. Bannwarth, J. Chem. Phys., 2016, 145, 054103.
     DOI: 10.1063/1.4959605
   
   in the mass-spec context:
   * V. Asgeirsson, C. Bauer and S. Grimme, Chem. Sci., 2017, 8, 4879.
     DOI: 10.1039/c7sc00601b
   * J. Koopman and S. Grimme, ACS Omega 2019, 4, 12, 15120-15133.
     DOI: 10.1021/acsomega.9b02011
   
   for metadynamics refer to:
   * S. Grimme, J. Chem. Theory Comput., 2019, 155, 2847-2862
     DOI: 10.1021/acs.jctc.9b00143
   
   with help from (in alphabetical order)
   C. Bannwarth, F. Bohle, G. Brandenburg, E. Caldeweyher, M. Checinski,
   S. Dohm, S. Ehlert, S. Ehrlich, F. März, H. Neugebauer, J. Pisarek,
   P. Pracht, P. Shushkov, and S. Spicher.
   
 * started run on 2022/03/17 at 02:19:48.572     

           -------------------------------------------------
          |                Calculation Setup                |
           -------------------------------------------------

          program call               : xtb alk_8.xyz --opt --chrg 0 --uhf 0 --gfn 2
          coordinate file            : alk_8.xyz
          omp threads                :                    64
          number of atoms            :                    19
          number of electrons        :                    52
          charge                     :                     0
          spin                       :                   0.0
          first test random number   :      0.75417001151740

   ID    Z sym.   atoms
    1    6 C      1-7, 9, 10
    2   17 Cl     8
    3    1 H      11-19

           -------------------------------------------------
          |                 G F N 2 - x T B                 |
           -------------------------------------------------

        Reference                      10.1021/acs.jctc.8b01176
      * Hamiltonian:
        H0-scaling (s, p, d)           1.850000    2.230000    2.230000
        zeta-weighting                 0.500000
      * Dispersion:
        s8                             2.700000
        a1                             0.520000
        a2                             5.000000
        s9                             5.000000
      * Repulsion:
        kExp                           1.500000    1.000000
        rExp                           1.000000
      * Coulomb:
        alpha                          2.000000
        third order                    shell-resolved
        anisotropic                    true
        a3                             3.000000
        a5                             4.000000
        cn-shift                       1.200000
        cn-exp                         4.000000
        max-rad                        5.000000


          ...................................................
          :                      SETUP                      :
          :.................................................:
          :  # basis functions                  55          :
          :  # atomic orbitals                  54          :
          :  # shells                           30          :
          :  # electrons                        52          :
          :  max. iterations                   250          :
          :  Hamiltonian                  GFN2-xTB          :
          :  restarted?                      false          :
          :  GBSA solvation                  false          :
          :  PC potential                    false          :
          :  electronic temp.          300.0000000     K    :
          :  accuracy                    1.0000000          :
          :  -> integral cutoff          0.2500000E+02      :
          :  -> integral neglect         0.1000000E-07      :
          :  -> SCF convergence          0.1000000E-05 Eh   :
          :  -> wf. convergence          0.1000000E-03 e    :
          :  Broyden damping             0.4000000          :
          ...................................................

 iter      E             dE          RMSdq      gap      omega  full diag
   1    -28.7643055 -0.287643E+02  0.411E+00    4.28       0.0  T
   2    -28.7945038 -0.301983E-01  0.245E+00    4.16       1.0  T
   3    -28.7854197  0.908406E-02  0.112E+00    3.99       1.0  T
   4    -28.7968661 -0.114464E-01  0.440E-01    4.15       1.0  T
   5    -28.7987082 -0.184214E-02  0.139E-01    4.17       1.0  T
   6    -28.7990013 -0.293146E-03  0.495E-02    4.14       1.0  T
   7    -28.7990058 -0.443160E-05  0.235E-02    4.14       1.0  T
   8    -28.7990119 -0.612777E-05  0.112E-02    4.14       2.0  T
   9    -28.7990125 -0.607626E-06  0.768E-03    4.14       3.0  T
  10    -28.7990129 -0.402995E-06  0.497E-03    4.14       4.6  T
  11    -28.7990131 -0.208655E-06  0.209E-03    4.14      11.0  T
  12    -28.7990132 -0.415156E-07  0.625E-04    4.14      36.7  T
  13    -28.7990132 -0.647119E-08  0.250E-04    4.14      91.7  T

   *** convergence criteria satisfied after 13 iterations ***

         #    Occupation            Energy/Eh            Energy/eV
      -------------------------------------------------------------
         1        2.0000           -1.0536793             -28.6721
       ...           ...                  ...                  ...
        20        2.0000           -0.4447384             -12.1019
        21        2.0000           -0.4359487             -11.8628
        22        2.0000           -0.4343499             -11.8193
        23        2.0000           -0.4157105             -11.3121
        24        2.0000           -0.4149189             -11.2905
        25        2.0000           -0.4047540             -11.0139
        26        2.0000           -0.3915120             -10.6536 (HOMO)
        27                         -0.2393849              -6.5140 (LUMO)
        28                         -0.2382592              -6.4834
        29                         -0.2117787              -5.7628
        30                         -0.1321023              -3.5947
        31                         -0.1158691              -3.1530
       ...                                ...                  ...
        54                          0.6080432              16.5457
      -------------------------------------------------------------
                  HL-Gap            0.1521271 Eh            4.1396 eV
             Fermi-level           -0.3154485 Eh           -8.5838 eV

 SCC (total)                   0 d,  0 h,  0 min,  0.244 sec
 SCC setup                      ...        0 min,  0.023 sec (  9.425%)
 Dispersion                     ...        0 min,  0.021 sec (  8.568%)
 classical contributions        ...        0 min,  0.022 sec (  9.018%)
 integral evaluation            ...        0 min,  0.030 sec ( 12.308%)
 iterations                     ...        0 min,  0.010 sec (  4.230%)
 molecular gradient             ...        0 min,  0.138 sec ( 56.368%)
 printout                       ...        0 min,  0.000 sec (  0.055%)

         :::::::::::::::::::::::::::::::::::::::::::::::::::::
         ::                     SUMMARY                     ::
         :::::::::::::::::::::::::::::::::::::::::::::::::::::
         :: total energy             -28.371210687197 Eh    ::
         :: gradient norm              0.041434936883 Eh/a0 ::
         :: HOMO-LUMO gap              4.139589711097 eV    ::
         ::.................................................::
         :: SCC energy               -28.799013170332 Eh    ::
         :: -> isotropic ES            0.006198497117 Eh    ::
         :: -> anisotropic ES          0.001511068338 Eh    ::
         :: -> anisotropic XC          0.018208915777 Eh    ::
         :: -> dispersion             -0.016430750112 Eh    ::
         :: repulsion energy           0.427786645336 Eh    ::
         :: add. restraining           0.000000000000 Eh    ::
         :: total charge              -0.000000000000 e     ::
         :::::::::::::::::::::::::::::::::::::::::::::::::::::

      ----------------------------------------------------------- 
     |                   =====================                   |
     |                        A N C O P T                        |
     |                   =====================                   |
     |               Approximate Normal Coordinate               |
     |                Rational Function Optimizer                |
      ----------------------------------------------------------- 

          ...................................................
          :                      SETUP                      :
          :.................................................:
          :   optimization level            normal          :
          :   max. optcycles                   200          :
          :   ANC micro-cycles                  20          :
          :   degrees of freedom                51          :
          :.................................................:
          :   RF solver                   davidson          :
          :   write xtbopt.log                true          :
          :   linear?                        false          :
          :   energy convergence         0.5000000E-05 Eh   :
          :   grad. convergence          0.1000000E-02 Eh/α :
          :   maximium RF displ.         1.0000000          :
          :   Hlow (freq-cutoff)         0.1000000E-01      :
          :   Hmax (freq-cutoff)         5.0000000          :
          :   S6 in model hess.         20.0000000          :
          ...................................................

generating ANC from model Hessian ...
Using Lindh-Hessian (1995)
 Shifting diagonal of input Hessian by    8.3436949460181688E-003
 Lowest  eigenvalues of input Hessian
    0.000000    0.000000    0.000000    0.000000    0.000000    0.000000
    0.010000    0.010311    0.011646    0.016132    0.022039    0.022847
    0.025480    0.026150    0.031783    0.032240    0.046495    0.050860
 Highest eigenvalues
    1.517917    1.598486    1.823471    1.857252    1.910445    1.970899


........................................................................
.............................. CYCLE    1 ..............................
........................................................................
   1    -28.7990132 -0.287990E+02  0.589E-05    4.14       0.0  T
   2    -28.7990132 -0.109246E-10  0.443E-05    4.14     517.7  T
   3    -28.7990132 -0.119158E-10  0.335E-05    4.14     685.2  T
     SCC iter.                  ...        0 min,  0.003 sec
     gradient                   ...        0 min,  0.152 sec
 * total energy  :   -28.3712107 Eh     change       -0.8235190E-10 Eh
   gradient norm :     0.0414352 Eh/α   predicted     0.0000000E+00 (-100.00%)
   displ. norm   :     0.1540765 α      lambda       -0.3521167E-02
   maximum displ.:     0.0604775 α      in ANC's #17, #10, #30, ...

........................................................................
.............................. CYCLE    2 ..............................
........................................................................
   1    -28.8259837 -0.288260E+02  0.137E-01    4.23       0.0  T
   2    -28.8259894 -0.570674E-05  0.836E-02    4.22       1.0  T
   3    -28.8259683  0.210860E-04  0.375E-02    4.22       1.0  T
   4    -28.8259922 -0.239201E-04  0.540E-03    4.22       4.2  T
   5    -28.8259925 -0.282148E-06  0.268E-03    4.22       8.6  T
   6    -28.8259926 -0.289708E-07  0.132E-03    4.22      17.4  T
   7    -28.8259926 -0.126993E-07  0.714E-04    4.22      32.2  T
   8    -28.8259926 -0.306551E-08  0.465E-04    4.22      49.3  T
     SCC iter.                  ...        0 min,  0.008 sec
     gradient                   ...        0 min,  0.147 sec
 * total energy  :   -28.3733287 Eh     change       -0.2117994E-02 Eh
   gradient norm :     0.0103669 Eh/α   predicted    -0.1802415E-02 ( -14.90%)
   displ. norm   :     0.0952577 α      lambda       -0.3303177E-03
   maximum displ.:     0.0538930 α      in ANC's #1, #4, #10, ...

........................................................................
.............................. CYCLE    3 ..............................
........................................................................
   1    -28.8328660 -0.288329E+02  0.703E-02    4.25       0.0  T
   2    -28.8328675 -0.141511E-05  0.425E-02    4.25       1.0  T
   3    -28.8328631  0.439354E-05  0.165E-02    4.25       1.4  T
   4    -28.8328682 -0.511238E-05  0.315E-03    4.24       7.3  T
   5    -28.8328683 -0.750885E-07  0.217E-03    4.24      10.6  T
   6    -28.8328683 -0.227182E-07  0.145E-03    4.24      15.9  T
   7    -28.8328683 -0.115618E-07  0.999E-04    4.24      23.0  T
   8    -28.8328683 -0.821083E-08  0.548E-04    4.24      41.9  T
     SCC iter.                  ...        0 min,  0.006 sec
     gradient                   ...        0 min,  0.150 sec
 * total energy  :   -28.3735047 Eh     change       -0.1760037E-03 Eh
   gradient norm :     0.0037972 Eh/α   predicted    -0.1666674E-03 (  -5.30%)
   displ. norm   :     0.0737406 α      lambda       -0.1024348E-03
   maximum displ.:     0.0472974 α      in ANC's #1, #4, #3, ...

........................................................................
.............................. CYCLE    4 ..............................
........................................................................
   1    -28.8338645 -0.288339E+02  0.494E-02    4.25       0.0  T
   2    -28.8338650 -0.490511E-06  0.299E-02    4.25       1.0  T
   3    -28.8338628  0.216688E-05  0.114E-02    4.25       2.0  T
   4    -28.8338654 -0.254690E-05  0.179E-03    4.24      12.8  T
   5    -28.8338654 -0.128017E-07  0.135E-03    4.24      17.0  T
   6    -28.8338654 -0.108319E-07  0.896E-04    4.24      25.6  T
   7    -28.8338654 -0.434814E-08  0.619E-04    4.24      37.1  T
     SCC iter.                  ...        0 min,  0.006 sec
     gradient                   ...        0 min,  0.142 sec
 * total energy  :   -28.3735547 Eh     change       -0.4998432E-04 Eh
   gradient norm :     0.0026959 Eh/α   predicted    -0.5149611E-04 (   3.02%)
   displ. norm   :     0.0578911 α      lambda       -0.4468044E-04
   maximum displ.:     0.0465787 α      in ANC's #1, #4, #3, ...

........................................................................
.............................. CYCLE    5 ..............................
........................................................................
   1    -28.8325253 -0.288325E+02  0.351E-02    4.24       0.0  T
   2    -28.8325254 -0.106336E-06  0.209E-02    4.24       1.1  T
   3    -28.8325249  0.419619E-06  0.528E-03    4.24       4.3  T
   4    -28.8325254 -0.501765E-06  0.102E-03    4.24      22.6  T
   5    -28.8325254 -0.214789E-08  0.748E-04    4.24      30.7  T
   6    -28.8325254 -0.306855E-08  0.528E-04    4.24      43.5  T
     SCC iter.                  ...        0 min,  0.009 sec
     gradient                   ...        0 min,  0.125 sec
 * total energy  :   -28.3735861 Eh     change       -0.3145321E-04 Eh
   gradient norm :     0.0013717 Eh/α   predicted    -0.2241735E-04 ( -28.73%)
   displ. norm   :     0.0722070 α      lambda       -0.1746294E-04
   maximum displ.:     0.0612024 α      in ANC's #1, #3, #2, ...

........................................................................
.............................. CYCLE    6 ..............................
........................................................................
   1    -28.8312786 -0.288313E+02  0.408E-02    4.23       0.0  T
   2    -28.8312786 -0.695334E-07  0.241E-02    4.23       1.0  T
   3    -28.8312785  0.118380E-06  0.316E-03    4.23       7.3  T
   4    -28.8312787 -0.157032E-06  0.821E-04    4.23      27.9  T
   5    -28.8312787 -0.150190E-08  0.584E-04    4.23      39.3  T
     SCC iter.                  ...        0 min,  0.008 sec
     gradient                   ...        0 min,  0.142 sec
 * total energy  :   -28.3736016 Eh     change       -0.1552477E-04 Eh
   gradient norm :     0.0011241 Eh/α   predicted    -0.8761571E-05 ( -43.56%)
   displ. norm   :     0.0348081 α      lambda       -0.6352353E-05
   maximum displ.:     0.0299313 α      in ANC's #1, #3, #2, ...

........................................................................
.............................. CYCLE    7 ..............................
........................................................................
   1    -28.8317087 -0.288317E+02  0.169E-02    4.24       0.0  T
   2    -28.8317087 -0.101734E-07  0.997E-03    4.23       2.3  T
   3    -28.8317086  0.954942E-07  0.251E-03    4.23       9.2  T
   4    -28.8317087 -0.106683E-06  0.299E-04    4.23      76.7  T
   5    -28.8317087 -0.342283E-09  0.224E-04    4.23     102.4  T
     SCC iter.                  ...        0 min,  0.004 sec
     gradient                   ...        0 min,  0.133 sec
 * total energy  :   -28.3736094 Eh     change       -0.7742441E-05 Eh
   gradient norm :     0.0007207 Eh/α   predicted    -0.3179321E-05 ( -58.94%)
   displ. norm   :     0.0417153 α      lambda       -0.6014691E-05
   maximum displ.:     0.0351534 α      in ANC's #1, #2, #3, ...

........................................................................
.............................. CYCLE    8 ..............................
........................................................................
   1    -28.8322004 -0.288322E+02  0.224E-02    4.24       0.0  T
   2    -28.8322004 -0.191499E-07  0.132E-02    4.24       1.7  T
   3    -28.8322003  0.145426E-06  0.311E-03    4.24       7.4  T
   4    -28.8322004 -0.162562E-06  0.409E-04    4.24      56.2  T
   5    -28.8322004 -0.159080E-08  0.214E-04    4.24     107.0  T
     SCC iter.                  ...        0 min,  0.012 sec
     gradient                   ...        0 min,  0.131 sec
 * total energy  :   -28.3736155 Eh     change       -0.6102481E-05 Eh
   gradient norm :     0.0004468 Eh/α   predicted    -0.3009801E-05 ( -50.68%)
   displ. norm   :     0.0422909 α      lambda        0.1274959E-05
   maximum displ.:     0.0358339 α      in ANC's #1, #2, #3, ...

........................................................................
.............................. CYCLE    9 ..............................
........................................................................
   1    -28.8326607 -0.288327E+02  0.227E-02    4.24       0.0  T
   2    -28.8326607 -0.181076E-07  0.134E-02    4.24       1.7  T
   3    -28.8326606  0.137301E-06  0.301E-03    4.24       7.6  T
   4    -28.8326608 -0.154066E-06  0.439E-04    4.24      52.3  T
   5    -28.8326608 -0.148655E-08  0.274E-04    4.24      83.8  T
     SCC iter.                  ...        0 min,  0.008 sec
     gradient                   ...        0 min,  0.062 sec
 * total energy  :   -28.3736159 Eh     change       -0.3799741E-06 Eh
   gradient norm :     0.0009695 Eh/α   predicted     0.6369619E-06 (-267.63%)
   displ. norm   :     0.0111511 α      lambda       -0.3201439E-05
   maximum displ.:     0.0052679 α      in ANC's #1, #3, #2, ...

   *** GEOMETRY OPTIMIZATION CONVERGED AFTER 9 ITERATIONS ***

------------------------------------------------------------------------
 total energy gain   :        -0.0024052 Eh       -1.5093 kcal/mol
 total RMSD          :         0.1049110 a0        0.0555 Å
 total power (kW/mol):        -0.7016457 (step)   -3.0498 (real)
------------------------------------------------------------------------

 ANCopt (total)                0 d,  0 h,  0 min,  2.071 sec
 optimizer setup                ...        0 min,  0.000 sec (  0.003%)
 model hessian                  ...        0 min,  0.003 sec (  0.121%)
 ANC generation                 ...        0 min,  0.001 sec (  0.026%)
 coordinate transformation      ...        0 min,  0.000 sec (  0.003%)
 single point calculation       ...        0 min,  1.953 sec ( 94.343%)
 optimization log               ...        0 min,  0.001 sec (  0.027%)
 hessian update                 ...        0 min,  0.107 sec (  5.191%)
 rational function              ...        0 min,  0.001 sec (  0.025%)

================
 final structure:
================
19
 xtb: 6.3.3 (4ae9cef)
C         3.21194487238067   -0.33929093660328   -0.45975197886245
C         2.22417112584278    0.17497696427227    0.24683574126002
C         1.15644832795948   -0.63093104587412    0.92654663353986
C        -0.19638105023819   -0.22497233759243    0.40633863642219
C        -0.65054788729021   -0.71466958925360   -0.81198785575096
C        -1.87450576712849   -0.32643681990645   -1.32365721427623
C        -2.65479201472511    0.56815681948155   -0.60944348499342
Cl       -4.19097107318838    1.05691357498270   -1.23932377497271
C        -2.22067499919889    1.07179409867218    0.60479737998305
C        -0.99319810530656    0.67318149723104    1.10312949757253
H         3.95505933254685    0.27861823434872   -0.93368118684916
H         3.32595300259154   -1.40376748944266   -0.58562510939351
H         2.13018756325242    1.24689960015637    0.36078913524720
H         1.20264451275327   -0.44918309319658    2.00350594819434
H         1.32689062384386   -1.69324655064918    0.74331898131328
H        -0.03736866505928   -1.40771606528593   -1.36830047035892
H        -2.22291525386894   -0.71364464731633   -2.26815416549105
H        -2.83675218927293    1.76604412456451    1.15430653846728
H        -0.65519035589387    1.06727466141126    2.05035574894868

 Bond Distances (Angstroems)
 ---------------------------
C1-C2=1.3189         C1-H11=1.0764        C1-H12=1.0779        C2-C1=1.3189         C2-C3=1.5005         C2-H13=1.0821        
C3-C2=1.5005         C3-C4=1.5052         C3-H14=1.0932        C3-H15=1.0914        C4-C3=1.5052         C4-C5=1.3894         
C4-C10=1.3882        C5-C4=1.3894         C5-C6=1.3822         C5-H16=1.0797        C6-C5=1.3822         C6-C7=1.3854         
C6-H17=1.0786        C7-C6=1.3854         C7-Cl8=1.7307        C7-C9=1.3844         Cl8-C7=1.7307        C9-C7=1.3844         
C9-C10=1.3834        C9-H18=1.0787        C10-C4=1.3882        C10-C9=1.3834        C10-H19=1.0802       H11-C1=1.0764        
H12-C1=1.0779        H13-C2=1.0821        H14-C3=1.0932        H15-C3=1.0914        H16-C5=1.0797        H17-C6=1.0786        
H18-C9=1.0787        H19-C10=1.0802       
 C  H  Rav=1.0820 sigma=0.0057  Rmin=1.0764  Rmax=1.0932     9
 C  C  Rav=1.4042 sigma=0.0567  Rmin=1.3189  Rmax=1.5052     9
 Cl C  Rav=1.7307 sigma=0.0000  Rmin=1.7307  Rmax=1.7307     1

 selected bond angles (degree)
 --------------------
H11-C1-C2=121.94               H12-C1-C2=121.79               H12-C1-H11=116.26              C3-C2-C1=124.49                
H13-C2-C1=120.51               H13-C2-C3=115.00               C4-C3-C2=109.76                H14-C3-C2=109.08               
H14-C3-C4=109.49               H15-C3-C2=109.61               H15-C3-C4=110.17               H15-C3-H14=108.70              
C5-C4-C3=120.12                C10-C4-C3=121.13               C10-C4-C5=118.72               C6-C5-C4=121.00                
H16-C5-C4=119.50               H16-C5-C6=119.50               C7-C6-C5=119.29                H17-C6-C5=120.62               
H17-C6-C7=120.09               Cl8-C7-C6=119.65               C9-C7-C6=120.70                C9-C7-Cl8=119.66               
C10-C9-C7=119.30               H18-C9-C7=120.12               H18-C9-C10=120.58              C9-C10-C4=120.99               
H19-C10-C4=119.77              H19-C10-C9=119.23              

 selected dihedral angles (degree)
 ---------------------------------
C3-C2-C1-H11=179.77           C3-C2-C1-H12=359.09           H13-C2-C1-H11=  0.61          H13-C2-C1-H12=179.92          
C4-C3-C2-C1=238.81            C4-C3-C2-H13= 58.02           H14-C3-C2-C1=118.85           H14-C3-C2-H13=298.06          
H15-C3-C2-C1=359.94           H15-C3-C2-H13=179.15          C5-C4-C3-C2= 79.74            C5-C4-C3-H14=199.45           
C5-C4-C3-H15=318.95           C10-C4-C3-C2=261.90           C10-C4-C3-H14= 21.61          C10-C4-C3-H15=141.11          
C6-C5-C4-C3=181.72            C6-C5-C4-C10=359.61           H16-C5-C4-C3=  1.62           H16-C5-C4-C10=179.51          
C7-C6-C5-C4=  0.22            C7-C6-C5-H16=180.32           H17-C6-C5-C4=180.26           H17-C6-C5-H16=  0.36          
Cl8-C7-C6-C5=180.18           Cl8-C7-C6-H17=  0.14          C9-C7-C6-C5=359.96            C9-C7-C6-H17=179.92           
C10-C9-C7-C6=  0.03           C10-C9-C7-Cl8=179.82          H18-C9-C7-C6=180.15           H18-C9-C7-Cl8=359.93          
C9-C10-C4-C3=178.26           C9-C10-C4-C5=  0.39           H19-C10-C4-C3=358.08          H19-C10-C4-C5=180.21          
C4-C10-C9-C7=359.79           C4-C10-C9-H18=179.67          H19-C10-C9-C7=179.96          H19-C10-C9-H18=359.85         
           -------------------------------------------------
          |                Final Singlepoint                |
           -------------------------------------------------

          ...................................................
          :                      SETUP                      :
          :.................................................:
          :  # basis functions                  55          :
          :  # atomic orbitals                  54          :
          :  # shells                           30          :
          :  # electrons                        52          :
          :  max. iterations                   250          :
          :  Hamiltonian                  GFN2-xTB          :
          :  restarted?                      false          :
          :  GBSA solvation                  false          :
          :  PC potential                    false          :
          :  electronic temp.          300.0000000     K    :
          :  accuracy                    1.0000000          :
          :  -> integral cutoff          0.2500000E+02      :
          :  -> integral neglect         0.1000000E-07      :
          :  -> SCF convergence          0.1000000E-05 Eh   :
          :  -> wf. convergence          0.1000000E-03 e    :
          :  Broyden damping             0.4000000          :
          ...................................................

 iter      E             dE          RMSdq      gap      omega  full diag
   1    -28.8326608 -0.288327E+02  0.170E-04    4.24       0.0  T
   2    -28.8326608 -0.852403E-10  0.146E-04    4.24     156.6  T
   3    -28.8326608 -0.580869E-10  0.124E-04    4.24     184.5  T

   *** convergence criteria satisfied after 3 iterations ***

         #    Occupation            Energy/Eh            Energy/eV
      -------------------------------------------------------------
         1        2.0000           -1.0529233             -28.6515
       ...           ...                  ...                  ...
        20        2.0000           -0.4448915             -12.1061
        21        2.0000           -0.4368565             -11.8875
        22        2.0000           -0.4338188             -11.8048
        23        2.0000           -0.4183345             -11.3835
        24        2.0000           -0.4145852             -11.2814
        25        2.0000           -0.4079572             -11.1011
        26        2.0000           -0.3924158             -10.6782 (HOMO)
        27                         -0.2366788              -6.4404 (LUMO)
        28                         -0.2364413              -6.4339
        29                         -0.2059683              -5.6047
        30                         -0.1341058              -3.6492
        31                         -0.1089864              -2.9657
       ...                                ...                  ...
        54                          0.6435336              17.5114
      -------------------------------------------------------------
                  HL-Gap            0.1557371 Eh            4.2378 eV
             Fermi-level           -0.3145473 Eh           -8.5593 eV

 SCC (total)                   0 d,  0 h,  0 min,  0.157 sec
 SCC setup                      ...        0 min,  0.000 sec (  0.049%)
 Dispersion                     ...        0 min,  0.000 sec (  0.109%)
 classical contributions        ...        0 min,  0.000 sec (  0.033%)
 integral evaluation            ...        0 min,  0.022 sec ( 14.132%)
 iterations                     ...        0 min,  0.003 sec (  1.633%)
 molecular gradient             ...        0 min,  0.132 sec ( 83.954%)
 printout                       ...        0 min,  0.000 sec (  0.065%)

         :::::::::::::::::::::::::::::::::::::::::::::::::::::
         ::                     SUMMARY                     ::
         :::::::::::::::::::::::::::::::::::::::::::::::::::::
         :: total energy             -28.373615872300 Eh    ::
         :: gradient norm              0.000969435908 Eh/a0 ::
         :: HOMO-LUMO gap              4.237821657421 eV    ::
         ::.................................................::
         :: SCC energy               -28.832660763190 Eh    ::
         :: -> isotropic ES            0.006458356426 Eh    ::
         :: -> anisotropic ES          0.001022483663 Eh    ::
         :: -> anisotropic XC          0.017364820751 Eh    ::
         :: -> dispersion             -0.016609735637 Eh    ::
         :: repulsion energy           0.459024865554 Eh    ::
         :: add. restraining           0.000000000000 Eh    ::
         :: total charge               0.000000000000 e     ::
         :::::::::::::::::::::::::::::::::::::::::::::::::::::

           -------------------------------------------------
          |                Property Printout                |
           -------------------------------------------------

    * Orbital Energies and Occupations

         #    Occupation            Energy/Eh            Energy/eV
      -------------------------------------------------------------
         1        2.0000           -1.0529233             -28.6515
       ...           ...                  ...                  ...
        14        2.0000           -0.5007144             -13.6251
        15        2.0000           -0.4915404             -13.3755
        16        2.0000           -0.4898537             -13.3296
        17        2.0000           -0.4854976             -13.2111
        18        2.0000           -0.4638403             -12.6217
        19        2.0000           -0.4479300             -12.1888
        20        2.0000           -0.4448915             -12.1061
        21        2.0000           -0.4368565             -11.8875
        22        2.0000           -0.4338188             -11.8048
        23        2.0000           -0.4183345             -11.3835
        24        2.0000           -0.4145852             -11.2814
        25        2.0000           -0.4079572             -11.1011
        26        2.0000           -0.3924158             -10.6782 (HOMO)
        27                         -0.2366788              -6.4404 (LUMO)
        28                         -0.2364413              -6.4339
        29                         -0.2059683              -5.6047
        30                         -0.1341058              -3.6492
        31                         -0.1089864              -2.9657
        32                          0.0189165               0.5147
        33                          0.0238250               0.6483
        34                          0.0239364               0.6513
        35                          0.0370619               1.0085
        36                          0.0913573               2.4860
        37                          0.1164717               3.1694
       ...                                ...                  ...
        54                          0.6435336              17.5114
      -------------------------------------------------------------
                  HL-Gap            0.1557371 Eh            4.2378 eV
             Fermi-level           -0.3145473 Eh           -8.5593 eV

     #   Z          covCN         q      C6AA      α(0)
     1   6 C        2.837    -0.094    30.344     9.027
     2   6 C        2.890    -0.023    28.569     8.763
     3   6 C        3.812    -0.065    21.735     6.636
     4   6 C        2.973     0.017    27.638     8.623
     5   6 C        2.928    -0.035    28.879     8.813
     6   6 C        2.953    -0.040    28.993     8.832
     7   6 C        2.890     0.096    25.866     8.338
     8  17 Cl       0.965    -0.187   105.025    15.679
     9   6 C        2.953    -0.040    29.003     8.833
    10   6 C        2.927    -0.036    28.895     8.815
    11   1 H        0.926     0.038     2.474     2.460
    12   1 H        0.926     0.038     2.470     2.458
    13   1 H        0.925     0.034     2.537     2.491
    14   1 H        0.924     0.049     2.329     2.387
    15   1 H        0.924     0.049     2.329     2.387
    16   1 H        0.926     0.046     2.370     2.407
    17   1 H        0.926     0.054     2.267     2.354
    18   1 H        0.926     0.054     2.269     2.355
    19   1 H        0.926     0.044     2.396     2.421

 Mol. C6AA /au·bohr⁶  :       5108.463185
 Mol. C8AA /au·bohr⁸  :     136214.884059
 Mol. α(0) /au        :        114.078750


Wiberg/Mayer (AO) data.
largest (>0.10) Wiberg bond orders for each atom

 ---------------------------------------------------------------------------
     #   Z sym  total        # sym  WBO       # sym  WBO       # sym  WBO
 ---------------------------------------------------------------------------
     1   6 C    3.989 --     2 C    1.978    11 H    0.976    12 H    0.975
     2   6 C    3.989 --     1 C    1.978     3 C    1.007    13 H    0.967
     3   6 C    3.996 --     2 C    1.007     4 C    0.998    15 H    0.968
                            14 H    0.959
     4   6 C    3.988 --    10 C    1.411     5 C    1.405     3 C    0.998
     5   6 C    3.991 --     6 C    1.449     4 C    1.405    16 H    0.968
                             9 C    0.109
     6   6 C    3.989 --     5 C    1.449     7 C    1.401    17 H    0.968
                            10 C    0.107
     7   6 C    3.913 --     9 C    1.406     6 C    1.401     8 Cl   0.967
     8  17 Cl   1.098 --     7 C    0.967
     9   6 C    3.989 --    10 C    1.442     7 C    1.406    18 H    0.968
                             5 C    0.109
    10   6 C    3.990 --     9 C    1.442     4 C    1.411    19 H    0.968
                             6 C    0.107
    11   1 H    0.998 --     1 C    0.976
    12   1 H    0.998 --     1 C    0.975
    13   1 H    0.999 --     2 C    0.967
    14   1 H    0.997 --     3 C    0.959
    15   1 H    0.997 --     3 C    0.968
    16   1 H    0.998 --     5 C    0.968
    17   1 H    0.997 --     6 C    0.968
    18   1 H    0.997 --     9 C    0.968
    19   1 H    0.998 --    10 C    0.968
 ---------------------------------------------------------------------------

Topologies differ in total number of bonds
Writing topology from bond orders to xtbtopo.mol

molecular dipole:
                 x           y           z       tot (Debye)
 q only:        0.927      -0.330       0.435
   full:        0.733      -0.258       0.360       2.177
molecular quadrupole (traceless):
                xx          xy          yy          xz          yz          zz
 q only:       -8.834       2.699       4.148      -4.105       2.437       4.686
  q+dip:       -7.688       0.323       3.385      -3.625       4.861       4.302
   full:       -7.390       1.455       3.467      -3.240       2.964       3.922

           -------------------------------------------------
          |                Geometry Summary                 |
           -------------------------------------------------

      molecular mass/u    :      152.6210274
   center of mass at/Å    :       -1.0898659       0.2566880      -0.2737329
  moments of inertia/u·Å² :        0.1400279E+03   0.9963168E+03   0.1069467E+04
rotational constants/cm⁻¹ :        0.1203877E+00   0.1691995E-01   0.1576264E-01

 * 17 selected distances

     #   Z          #   Z                                           value/Å
     1   6 C        2   6 C                                       1.3188763
     4   6 C        5   6 C                                       1.3893849
     5   6 C        6   6 C                                       1.3822457
     6   6 C        7   6 C                                       1.3853684
     7   6 C        8  17 Cl                                      1.7307451 (max)
     7   6 C        9   6 C                                       1.3843731
     4   6 C       10   6 C                                       1.3882058
     9   6 C       10   6 C                                       1.3834473
     1   6 C       11   1 H                                       1.0764013 (min)
     1   6 C       12   1 H                                       1.0779389
     2   6 C       13   1 H                                       1.0820520
     3   6 C       14   1 H                                       1.0931641
     3   6 C       15   1 H                                       1.0913923
     5   6 C       16   1 H                                       1.0797157
     6   6 C       17   1 H                                       1.0786072
     9   6 C       18   1 H                                       1.0786540
    10   6 C       19   1 H                                       1.0801834

 * 3 distinct bonds (by element types)

   Z      Z             #   av. dist./Å        max./Å        min./Å
   1 H    6 C           9     1.0820121     1.0931641     1.0764013
   6 C    6 C           7     1.3759859     1.3893849     1.3188763
   6 C   17 Cl          1     1.7307451     1.7307451     1.7307451


optimized geometry written to: xtbopt.xyz


           -------------------------------------------------
          | TOTAL ENERGY              -28.373615872300 Eh   |
          | GRADIENT NORM               0.000969435908 Eh/α |
          | HOMO-LUMO GAP               4.237821657421 eV   |
           -------------------------------------------------

------------------------------------------------------------------------
 * finished run on 2022/03/17 at 02:19:51.175     
------------------------------------------------------------------------
 total:
 * wall-time:     0 d,  0 h,  0 min,  2.603 sec
 *  cpu-time:     0 d,  0 h,  1 min, 23.721 sec
 * ratio c/w:    32.158 speedup
 SCF:
 * wall-time:     0 d,  0 h,  0 min,  0.244 sec
 *  cpu-time:     0 d,  0 h,  0 min,  7.764 sec
 * ratio c/w:    31.810 speedup
 ANC optimizer:
 * wall-time:     0 d,  0 h,  0 min,  2.228 sec
 *  cpu-time:     0 d,  0 h,  1 min, 12.206 sec
 * ratio c/w:    32.409 speedup

