19
 energy: -28.371210687279 gnorm: 0.041435164137 xtb: 6.3.3 (4ae9cef)
C         3.27567000000000   -0.36013900000000   -0.43939800000000
C         2.26918100000000    0.18046300000000    0.26015300000000
C         1.16180100000000   -0.60745900000000    0.90072200000000
C        -0.19979200000000   -0.20738600000000    0.38179900000000
C        -0.66810200000000   -0.71175600000000   -0.84106300000000
C        -1.91995000000000   -0.33324600000000   -1.33110900000000
C        -2.70769700000000    0.55540000000000   -0.60313200000000
Cl       -4.25001900000000    1.02265500000000   -1.20660900000000
C        -2.25388000000000    1.07079600000000    0.60903800000000
C        -1.00165800000000    0.69261800000000    1.09926200000000
H         4.04634200000000    0.26758600000000   -0.87664800000000
H         3.35438900000000   -1.43160600000000   -0.59450300000000
H         2.23800400000000    1.26083600000000    0.38764600000000
H         1.20347900000000   -0.45440000000000    1.98636700000000
H         1.29932100000000   -1.68545200000000    0.74684900000000
H        -0.05478000000000   -1.39973000000000   -1.41950300000000
H        -2.27071800000000   -0.73167200000000   -2.27905300000000
H        -2.86666600000000    1.76704400000000    1.17497300000000
H        -0.65492300000000    1.10544900000000    2.04420800000000
19
 energy: -28.373328680892 gnorm: 0.010366857554 xtb: 6.3.3 (4ae9cef)
C         3.25188076260946   -0.35724950836075   -0.43960837805906
C         2.25700783528054    0.17230720069481    0.25219832613124
C         1.15762002800598   -0.61258531600678    0.90160980528649
C        -0.19595524692006   -0.19988201422397    0.37926053905515
C        -0.66311152910205   -0.69897869780524   -0.83302494274130
C        -1.90494603571081   -0.32867865560419   -1.32347263845280
C        -2.69086810537812    0.55456310793038   -0.59964691530859
Cl       -4.23873868270474    1.01671088077115   -1.20212634082785
C        -2.23991597502815    1.06841178311300    0.60579318413388
C        -0.99610734422155    0.69141895331486    1.08736223265513
H         4.02703261667536    0.25934647625872   -0.86612122449958
H         3.34093591553277   -1.42190257420936   -0.58756012681888
H         2.21001478016206    1.24670892727439    0.38229046934436
H         1.19467128904796   -0.44230868195553    1.98358242804577
H         1.31168214679271   -1.68170393377946    0.72471498481672
H        -0.05419137142518   -1.38897601535602   -1.40070088136106
H        -2.25897773803110   -0.72769566553006   -2.26350167816422
H        -2.85482575717682    1.75686377212862    1.16814739601654
H        -0.65320558840825    1.09363096134546    2.03080276074807
19
 energy: -28.373504684634 gnorm: 0.003797162245 xtb: 6.3.3 (4ae9cef)
C         3.24438596573947   -0.35428231812205   -0.43376861542581
C         2.25094739487988    0.17170796435839    0.25562149445113
C         1.15546079938066   -0.61795297688835    0.90673621055158
C        -0.19463683516945   -0.20330800449718    0.38311697944953
C        -0.65882154278601   -0.69809114428373   -0.82878577542297
C        -1.89501804068787   -0.32653665405910   -1.32341888614271
C        -2.67965752323152    0.55678316573418   -0.60050834606114
Cl       -4.23167744000980    1.01614619948538   -1.20333673795959
C        -2.23165141017367    1.07019464559856    0.60456525321807
C        -0.99279361137585    0.68851177051793    1.08651094378660
H         4.00616175215295    0.25801010029145   -0.88456714978701
H         3.33342990522437   -1.41706750592542   -0.58573683432804
H         2.18430033501417    1.24511341174271    0.37886695582090
H         1.19042552947509   -0.44303253187643    1.98605509917464
H         1.31521572056580   -1.68243495595889    0.72118678916924
H        -0.04808625869752   -1.38641537768818   -1.39322386480637
H        -2.25069057612738   -0.72323392306402   -2.26151957582095
H        -2.84811116540471    1.75698002486904    1.16342379910343
H        -0.64918099876861    1.08890910976572    2.02878126102946
19
 energy: -28.373554668956 gnorm: 0.002695861487 xtb: 6.3.3 (4ae9cef)
C         3.23126039225710   -0.34972561161809   -0.44451657784929
C         2.24129239065791    0.17359868240613    0.25082767909695
C         1.15466332185202   -0.62280028153134    0.91148925336635
C        -0.19418232751294   -0.20809206136463    0.38818382516747
C        -0.65571766084365   -0.70022839261071   -0.82557360895214
C        -1.88888510101469   -0.32610960936103   -1.32391134481340
C        -2.67277800712323    0.55793404565585   -0.60093464566391
Cl       -4.22532349102001    1.01963054894227   -1.20720558316267
C        -2.22713169146336    1.07183708315432    0.60474792827891
C        -0.99074603253445    0.68649969181030    1.08883390279355
H         3.99746376358348    0.25878983126516   -0.89194682873598
H         3.33310121145968   -1.41440498462425   -0.57816684639061
H         2.16529471959220    1.24585377019794    0.37676292776038
H         1.19227722981640   -0.44701916518703    1.98952894414518
H         1.31752604672064   -1.68489490218964    0.72185238630009
H        -0.04305411463902   -1.38825350635039   -1.38807234557849
H        -2.24448037658508   -0.71899331112071   -2.26298284453309
H        -2.84395659092170    1.76046634309956    1.15977482654049
H        -0.64662168228127    1.08591282942633    2.03130795223021
19
 energy: -28.373586122171 gnorm: 0.001371662164 xtb: 6.3.3 (4ae9cef)
C         3.22735473507554   -0.34689657028746   -0.44546222039733
C         2.23711083634397    0.17498430018053    0.25163536632881
C         1.15488877379583   -0.62626275258041    0.91582245835322
C        -0.19386107339157   -0.21215922837308    0.39221935892129
C        -0.65334032662512   -0.70307101277672   -0.82373574375833
C        -1.88511885696757   -0.32617069469686   -1.32478283650319
C        -2.66853981917370    0.55899767044660   -0.60192142252341
Cl       -4.21956858633517    1.02497045757194   -1.21243002647744
C        -2.22501675351462    1.07282939587502    0.60491463017519
C        -0.98984070141132    0.68484072000672    1.09179294370336
H         3.98726171041553    0.26211318798542   -0.90444519404981
H         3.32967043128564   -1.41198057801953   -0.57831226243931
H         2.15215367888421    1.24725206487381    0.37279542178908
H         1.19424943006664   -0.45101263029328    1.99364211968577
H         1.31974116383560   -1.68784578350992    0.72628716488916
H        -0.03957052321891   -1.39204476982225   -1.38483184115365
H        -2.23981031506468   -0.71598131749107   -2.26571935729510
H        -2.84175446148128    1.76404671056285    1.15722713211688
H        -0.64600734251901    1.08339183034770    2.03530330863485
19
 energy: -28.373601646944 gnorm: 0.001124104215 xtb: 6.3.3 (4ae9cef)
C         3.22216497662384   -0.34336957151645   -0.44888124530229
C         2.23189122083735    0.17633243876291    0.25058045516427
C         1.15555234388739   -0.62920505909670    0.92021741108126
C        -0.19479655577118   -0.21787325759919    0.39784012153661
C        -0.65168221447587   -0.70789173904547   -0.82025110466610
C        -1.88097069945132   -0.32610436725163   -1.32524191836417
C        -2.66304622642130    0.56202855783582   -0.60430141815250
Cl       -4.21059289995418    1.03474788695077   -1.22104905768661
C        -2.22312465118520    1.07337727344859    0.60496279723421
C        -0.99031429052169    0.68123185384213    1.09652857909678
H         3.97458475755785    0.26787551252513   -0.91834011384100
H         3.32688570496411   -1.40889274451887   -0.57807321329319
H         2.13987311104225    1.24823831522841    0.36697529138804
H         1.19822818570963   -0.45440824758048    1.99834356622521
H         1.32305425750202   -1.69111100331413    0.73280943490813
H        -0.03691811016450   -1.39781336222110   -1.37990190906093
H        -2.23371599719174   -0.71323120039207   -2.26849929142678
H        -2.83967677900052    1.76712080445347    1.15513157514553
H        -0.64739413398694    1.07894890948888    2.04114904001355
19
 energy: -28.373609389384 gnorm: 0.000720654537 xtb: 6.3.3 (4ae9cef)
C         3.21902430204839   -0.34192284966552   -0.45189930562388
C         2.22930197335775    0.17622212913939    0.24935562176849
C         1.15582417248809   -0.62990971324099    0.92204562840924
C        -0.19514945211865   -0.21979317137083    0.40021204484651
C        -0.65105601974690   -0.70967953814955   -0.81804401988188
C        -1.87899042293283   -0.32630023615506   -1.32469048568496
C        -2.66068166325379    0.56308825316437   -0.60522197277271
Cl       -4.20477344615376    1.04126765540201   -1.22635361881845
C        -2.22227414238627    1.07284465244630    0.60504705566619
C        -0.99078013274950    0.67925416344494    1.09836644462750
H         3.96924507746952    0.27082909912785   -0.92200660631129
H         3.32580154275932   -1.40713860105061   -0.58007475983966
H         2.13545374758210    1.24806773512137    0.36390713435192
H         1.19968448031689   -0.45375622262903    2.00008709367720
H         1.32439096336340   -1.69199894684777    0.73564905900798
H        -0.03687923983744   -1.40100013923799   -1.37631179513032
H        -2.23036405169110   -0.71290076288051   -2.26863566450988
H        -2.83846962312174    1.76729767468351    1.15464041981425
H        -0.64930606539347    1.07552981869816    2.04392672640379
19
 energy: -28.373615491866 gnorm: 0.000446785255 xtb: 6.3.3 (4ae9cef)
C         3.21551368325650   -0.34063270814266   -0.45580334884689
C         2.22675586214725    0.17559700333827    0.24808625039859
C         1.15613549587937   -0.63040268729695    0.92427679590394
C        -0.19576190387501   -0.22235525014760    0.40325182812704
C        -0.65080315387027   -0.71214487700302   -0.81503876553131
C        -1.87676237645468   -0.32635825541414   -1.32417883140031
C        -2.65776001439442    0.56561097235992   -0.60732061345622
Cl       -4.19791928251965    1.04904078925744   -1.23279538146887
C        -2.22148994022316    1.07231224685655    0.60492945449477
C        -0.99199039097623    0.67623229324123    1.10073592137343
H         3.96220587239840    0.27468003686939   -0.92780386474304
H         3.32590001651359   -1.40548288344457   -0.58280381976984
H         2.13285435494191    1.24748271802455    0.36232852143165
H         1.20115748627723   -0.45144994229894    2.00177709165222
H         1.32562871692953   -1.69260713563047    0.73946956884382
H        -0.03712144052606   -1.40431624436137   -1.37233947678434
H        -2.22665994505381   -0.71326490076976   -2.26839666840063
H        -2.83763388791828    1.76664557137191    1.15449493381439
H        -0.65224715253219    1.07141425319024    2.04712940436163
19
 energy: -28.373615871840 gnorm: 0.000969541256 xtb: 6.3.3 (4ae9cef)
C         3.21194487238067   -0.33929093660328   -0.45975197886245
C         2.22417112584278    0.17497696427227    0.24683574126002
C         1.15644832795948   -0.63093104587412    0.92654663353986
C        -0.19638105023819   -0.22497233759243    0.40633863642219
C        -0.65054788729021   -0.71466958925360   -0.81198785575096
C        -1.87450576712849   -0.32643681990645   -1.32365721427623
C        -2.65479201472511    0.56815681948155   -0.60944348499342
Cl       -4.19097107318838    1.05691357498270   -1.23932377497271
C        -2.22067499919889    1.07179409867218    0.60479737998305
C        -0.99319810530656    0.67318149723104    1.10312949757253
H         3.95505933254685    0.27861823434872   -0.93368118684916
H         3.32595300259154   -1.40376748944266   -0.58562510939351
H         2.13018756325242    1.24689960015637    0.36078913524720
H         1.20264451275327   -0.44918309319658    2.00350594819434
H         1.32689062384386   -1.69324655064918    0.74331898131328
H        -0.03736866505928   -1.40771606528593   -1.36830047035892
H        -2.22291525386894   -0.71364464731633   -2.26815416549105
H        -2.83675218927293    1.76604412456451    1.15430653846728
H        -0.65519035589387    1.06727466141126    2.05035574894868
