72
 energy: -136.590941276856 gnorm: 0.112953911915 xtb: 6.3.3 (4ae9cef)
C        -2.57473600000000   -2.24097200000000   -0.31006100000000
C        -2.83030800000000   -1.89561900000000   -1.76635000000000
F        -3.34370400000000   -2.93987600000000   -2.47932700000000
F        -1.72305600000000   -1.51678500000000   -2.45153800000000
F        -3.73195400000000   -0.88854300000000   -1.90065200000000
C        -3.33283400000000   -3.31905700000000    0.20859300000000
C        -3.23459600000000   -3.71735800000000    1.53933600000000
C        -2.38266300000000   -3.03945100000000    2.39253700000000
C        -1.62865100000000   -1.97038600000000    1.91101700000000
C        -1.70182800000000   -1.54134800000000    0.56261800000000
C        -0.78553900000000   -0.37043600000000    0.20353400000000
C         0.48234900000000   -0.81968200000000   -0.58686400000000
C         1.61614400000000   -1.57663000000000    0.10209700000000
C         2.42889700000000   -2.49427100000000   -0.61891700000000
C         2.20016100000000   -2.80497700000000   -2.08536600000000
F         3.15801600000000   -3.60465100000000   -2.63619900000000
F         2.15166400000000   -1.69869000000000   -2.87680500000000
F         1.02069500000000   -3.45874500000000   -2.28740900000000
C         3.47315100000000   -3.16769600000000    0.04861300000000
C         3.73253100000000   -2.93754500000000    1.39644500000000
C         2.95383900000000   -2.03037500000000    2.10049500000000
C         1.91123200000000   -1.35703500000000    1.46110900000000
N         0.88655900000000    0.38626900000000   -1.32243500000000
C         1.72908400000000    1.24810900000000   -0.59238700000000
C         2.87975500000000    1.79806400000000   -1.41976700000000
C         4.15772300000000    1.02919700000000   -1.19065000000000
C         4.84435300000000    1.14407900000000    0.02616000000000
C         6.01462400000000    0.41828700000000    0.25113500000000
C         6.51039900000000   -0.42942400000000   -0.73733000000000
C         5.83470000000000   -0.55385000000000   -1.95029800000000
C         4.66355700000000    0.17174000000000   -2.17682800000000
O         1.57363900000000    1.50323300000000    0.59932600000000
C        -0.38873000000000    1.03307600000000   -1.71716900000000
C        -0.25216500000000    2.55874300000000   -2.02801600000000
O        -0.24077700000000    2.82465000000000   -3.35446600000000
O        -0.08946700000000    3.46354300000000   -1.22347400000000
N        -1.34689100000000    0.66981000000000   -0.66508400000000
C        -2.53432200000000    1.35999400000000   -0.55778200000000
C        -3.33921600000000    1.18542800000000    0.72378900000000
C        -4.10684000000000    2.42215000000000    1.12800500000000
C        -5.48134200000000    2.52408400000000    0.87449600000000
C        -6.18781900000000    3.66561900000000    1.25551300000000
C        -5.52729600000000    4.71760000000000    1.88732100000000
C        -4.15806200000000    4.63143300000000    2.13386000000000
C        -3.44883300000000    3.49116100000000    1.75407600000000
O        -2.91894000000000    2.07682300000000   -1.48293500000000
H        -4.02121000000000   -3.86404200000000   -0.43886600000000
H        -3.82770500000000   -4.55200800000000    1.90552700000000
H        -2.30103400000000   -3.33982400000000    3.43477700000000
H        -0.97206400000000   -1.46208900000000    2.61712800000000
H        -0.51112700000000    0.16411900000000    1.12047600000000
H         0.12752500000000   -1.50001600000000   -1.36531500000000
H         4.10253900000000   -3.87602300000000   -0.48989300000000
H         4.55070600000000   -3.45457500000000    1.89149700000000
H         3.16773000000000   -1.82808000000000    3.14719900000000
H         1.35885300000000   -0.62389400000000    2.04520600000000
H         2.61312400000000    1.78806700000000   -2.48351000000000
H         3.02210700000000    2.85323100000000   -1.15471200000000
H         4.46365600000000    1.79501900000000    0.81185200000000
H         6.53666700000000    0.51449600000000    1.19977600000000
H         7.42459600000000   -0.99054300000000   -0.56275600000000
H         6.22199200000000   -1.21395200000000   -2.72241700000000
H         4.14665600000000    0.05862400000000   -3.12835400000000
H        -0.72787800000000    0.53988400000000   -2.63580200000000
H        -0.23715200000000    3.80470100000000   -3.39584900000000
H        -2.68386500000000    0.92602200000000    1.56096600000000
H        -4.02876700000000    0.34579300000000    0.57922200000000
H        -6.00926000000000    1.71772400000000    0.37028600000000
H        -7.25326500000000    3.73685900000000    1.05267100000000
H        -6.07749500000000    5.60789700000000    2.17859700000000
H        -3.64013900000000    5.45704500000000    2.61528500000000
H        -2.37769600000000    3.44587700000000    1.94327700000000
72
 energy: -136.609102354578 gnorm: 0.042517092204 xtb: 6.3.3 (4ae9cef)
C        -2.56940043460921   -2.23716326755130   -0.29525678940988
C        -2.82899405304081   -1.89464252634279   -1.74590808567284
F        -3.34495681445815   -2.93841044020254   -2.43665188365265
F        -1.74036851768751   -1.52491683347419   -2.44754954336512
F        -3.72873740167160   -0.89653470421555   -1.87975528016884
C        -3.32520956252621   -3.30569235003330    0.20572505194535
C        -3.22965029553401   -3.70581213550665    1.52618204550789
C        -2.37409149979214   -3.03118372229611    2.37644204271256
C        -1.62903552796393   -1.96735382108026    1.89587530878984
C        -1.70269161192061   -1.53533360758120    0.56460364857341
C        -0.78802500448260   -0.37124463759355    0.20986602056510
C         0.46988388086286   -0.82412002041096   -0.60052284175582
C         1.61501561290492   -1.54954502475795    0.09873577607701
C         2.42056101157025   -2.46993262783597   -0.60634250936937
C         2.19018302980436   -2.78837254795017   -2.06481650975328
F         3.14709602665730   -3.58458842567544   -2.59371894213442
F         2.14915907726277   -1.69921196220927   -2.86211961336086
F         1.02223862539816   -3.44711950481134   -2.26859790151597
C         3.45775269692617   -3.14507354609043    0.04224647345878
C         3.72022369650839   -2.92179754705974    1.38221726983275
C         2.94500915569389   -2.01615655155474    2.08276423571586
C         1.91070667632979   -1.34245612813332    1.44638796244444
N         0.88826626548375    0.39124198001604   -1.31855360031755
C         1.74239984573552    1.25769166778643   -0.58560803656004
C         2.87925951188895    1.80992186050430   -1.42128147777715
C         4.14517136599501    1.01628801729951   -1.18237609378857
C         4.83230357002409    1.13212149808145    0.02393270826687
C         5.99977774232602    0.41623244194308    0.24479478020948
C         6.49680339034974   -0.42543170668092   -0.73778721204044
C         5.82261244780209   -0.54613576474191   -1.94264924080930
C         4.65325608249566    0.16849026205555   -2.16339493743833
O         1.61614896195778    1.46996213813220    0.59661940050517
C        -0.38497194481241    1.00667022031204   -1.73144431059510
C        -0.25877995096046    2.52231933708461   -2.00287381877129
O        -0.25834555554399    2.79454735277187   -3.31570506270568
O        -0.10792648124238    3.39353978635357   -1.18739614950318
N        -1.33855400727046    0.66966068494919   -0.66306621036956
C        -2.51165277037384    1.36999226958195   -0.55119804459516
C        -3.32564983459774    1.18393032472445    0.72555829971658
C        -4.09959939191443    2.42728020575066    1.10762183225422
C        -5.46735360951672    2.52870384149612    0.86658528355265
C        -6.17285210089620    3.66015667827977    1.25140652599570
C        -5.51944336085788    4.70740233762475    1.88068703369205
C        -4.15780249992124    4.61872122085567    2.12329800831552
C        -3.45297694203717    3.48674916167049    1.74074099661868
O        -2.86360038370067    2.10132986973128   -1.45633800568282
H        -4.00238727274525   -3.84095626351019   -0.44838993530014
H        -3.82208960057745   -4.53595485870373    1.88707462211219
H        -2.29324424782755   -3.32582326196161    3.41495751031808
H        -0.97503655533305   -1.45483570989288    2.58912854563552
H        -0.48341657502490    0.12744586783470    1.13983643268178
H         0.11335761752947   -1.49982385289756   -1.38221540181353
H         4.07293239512847   -3.85198292666279   -0.50133845275069
H         4.52975786018052   -3.44679869325320    1.87272708357978
H         3.15072957417011   -1.82488792071161    3.12805315516513
H         1.34880750667276   -0.62312644145397    2.02307344409667
H         2.60457895635937    1.77355096688306   -2.47923472335750
H         3.03383065139430    2.85494619764002   -1.13257576501699
H         4.45594828091648    1.78854701127854    0.79792589110651
H         6.52459315816535    0.51802142832139    1.18605979403230
H         7.40918750197554   -0.98242367728883   -0.56591342949638
H         6.20875078525877   -1.20052288766069   -2.71356051767707
H         4.14165713320827    0.06583625368045   -3.11147783393891
H        -0.70690166620256    0.54173827915852   -2.67212050486274
H        -0.23903375667579    3.76879464893872   -3.39078165651097
H        -2.66595061308136    0.91334746368753    1.55419649533751
H        -4.02283123853540    0.35469734066687    0.56589521960151
H        -5.99163610187679    1.72061776959014    0.37305885494105
H        -7.23532377465383    3.72809492405000    1.05447422882189
H        -6.06860798361043    5.59250779024420    2.17616173170493
H        -3.64228493029073    5.43804251179862    2.60818986421803
H        -2.38854922116938    3.43622628700893    1.93365074373536
72
 energy: -136.615726925192 gnorm: 0.015752435103 xtb: 6.3.3 (4ae9cef)
C        -2.56276006718659   -2.23202995929168   -0.28783286473528
C        -2.83356184279422   -1.88947115507796   -1.73340568125896
F        -3.35694579835201   -2.93061400630690   -2.40501800348200
F        -1.76380255550002   -1.52556450271241   -2.45196215540542
F        -3.73064015555575   -0.89543521500026   -1.85401138752185
C        -3.31806153517619   -3.29466790586909    0.20279270009616
C        -3.22447689527567   -3.69660100130196    1.51881772092179
C        -2.36708296264765   -3.02207641560949    2.36798249600810
C        -1.62648295645860   -1.96130142444692    1.88707731346369
C        -1.69839920994999   -1.52987740917124    0.56357318924492
C        -0.78643055418512   -0.37516238733769    0.20822671895135
C         0.46526672246270   -0.82977896587721   -0.60753309721149
C         1.60429260069052   -1.53635802315833    0.10125749315098
C         2.41084248294756   -2.44806451802902   -0.59828511874509
C         2.17715248402749   -2.76902918163123   -2.05203542900199
F         3.13206682364718   -3.56002014610483   -2.56743901381183
F         2.13511783969870   -1.69166658099876   -2.84943795467293
F         1.01794083480005   -3.43319387470225   -2.24938366418710
C         3.44701325861399   -3.12025896709555    0.03591352666295
C         3.71076972224926   -2.90018897167351    1.37345112485069
C         2.93635382096713   -1.99473461729475    2.07227084089392
C         1.90181699351692   -1.32636537258853    1.44025170057185
N         0.89100249452578    0.38819784180999   -1.31343588500689
C         1.75978149924186    1.25113746042586   -0.57061383284419
C         2.86987639384096    1.82066804139023   -1.42519386199204
C         4.12931012740013    1.01394304099236   -1.18017633439110
C         4.81285185877814    1.12743207465583    0.02401717116031
C         5.97749994335517    0.41408189761140    0.24422102847714
C         6.47629171152707   -0.42505753603790   -0.73624831141874
C         5.80093710853058   -0.54521190827970   -1.93721265207360
C         4.63488166616243    0.16772824350730   -2.15748792051966
O         1.66682869943779    1.41379950412305    0.61498155550137
C        -0.37454143126524    0.97931002541903   -1.74078683009941
C        -0.27278967935316    2.48980898053051   -1.97231015962980
O        -0.27850078351234    2.76780684733103   -3.27472753951528
O        -0.11799994731230    3.32741413504698   -1.13087582519406
N        -1.32596396495575    0.66288958641274   -0.66454902890612
C        -2.47898470793785    1.38745198966467   -0.54989952723721
C        -3.30564493378434    1.17988165861858    0.71828354627073
C        -4.08460137903878    2.42107757903935    1.09511356164901
C        -5.44833877886098    2.52129455726894    0.85507565664236
C        -6.15469739202384    3.64847961699825    1.23887186792599
C        -5.50723827455301    4.69486592372175    1.86976951338893
C        -4.14777898710623    4.60704792955729    2.10958545210844
C        -3.44386839747429    3.47921257576014    1.72704970883452
O        -2.79322442231656    2.15154938835395   -1.43619870295104
H        -3.98968982500293   -3.81922078472723   -0.45806447994491
H        -3.81743664658670   -4.52351853947896    1.87544141330524
H        -2.28118591765237   -3.31595962914465    3.40250879178997
H        -0.97049459435007   -1.44442016804377    2.56960989552560
H        -0.45827038664641    0.09804849234829    1.14445237690592
H         0.10708986381202   -1.49771393079621   -1.39246775989164
H         4.04983252357013   -3.82565964207271   -0.51479715485505
H         4.51328278042032   -3.43218656085415    1.86050398476671
H         3.13477645538349   -1.80952763646976    3.11658504037614
H         1.33475091719416   -0.60961327016650    2.00789794254020
H         2.59201935140811    1.77007582613587   -2.47775318328667
H         3.03778629994163    2.85590105356626   -1.11932186251747
H         4.43373401252842    1.78321861577651    0.79246206145929
H         6.50535002821594    0.52162843876971    1.18039396578480
H         7.39111217195948   -0.97465483304199   -0.56850846509975
H         6.18906513867819   -1.19128510750693   -2.71054518190574
H         4.12256556477142    0.06952277326926   -3.10169755266301
H        -0.68672774618892    0.52726722108705   -2.69158564300584
H        -0.24706888358463    3.73532060423199   -3.38839079193662
H        -2.64883960127563    0.89910368783405    1.54360734463367
H        -4.00577565633490    0.35874991445885    0.53852453060441
H        -5.96824895394592    1.71221163364186    0.36384776696542
H        -7.21666852338662    3.71018981775537    1.04913797832894
H        -6.05829461821535    5.57387851040735    2.17252849464754
H        -3.63506820757088    5.42079029737756    2.60145939556228
H        -2.38267602098691    3.42550636300093    1.91988198694848
72
 energy: -136.618384461915 gnorm: 0.015272492087 xtb: 6.3.3 (4ae9cef)
C        -2.56019062864909   -2.22874714432466   -0.28547070926495
C        -2.84326734612658   -1.88145852009866   -1.72779168200920
F        -3.37945209418975   -2.91694305476112   -2.39187132016722
F        -1.78461593909474   -1.52076139747932   -2.45898597669018
F        -3.73658566613111   -0.88345351004823   -1.82964232579958
C        -3.31658596265744   -3.28921219660566    0.20504853227074
C        -3.22027002903955   -3.69293171021272    1.52023710816232
C        -2.35960635507292   -3.01979458736635    2.36788790387878
C        -1.62008537161856   -1.95980307763067    1.88624765727597
C        -1.69417491974466   -1.52878476621317    0.56329211175096
C        -0.78378319296487   -0.38112660974721    0.20459126557946
C         0.46424785169883   -0.83679709988005   -0.61015988996624
C         1.59530212098251   -1.53142150317026    0.10538480389607
C         2.40568586417933   -2.43420965748474   -0.59499153182208
C         2.16483257501072   -2.75463776183175   -2.04750808610917
F         3.11750696332060   -3.54216668865067   -2.56246215513738
F         2.11542974339217   -1.68129387987109   -2.84396569184164
F         1.00768709225606   -3.42255826704897   -2.23438367397677
C         3.44491848588029   -3.10123063198870    0.03534962204601
C         3.70708066151622   -2.87960224299195    1.37336376960850
C         2.92918423161604   -1.97715446657298    2.07244719317284
C         1.89068093227284   -1.31491833114175    1.44297171343208
N         0.89540060501640    0.38059743953202   -1.30859770162964
C         1.77063347479245    1.23965954215840   -0.55973680163256
C         2.85586491623593    1.83167255198603   -1.42573846930899
C         4.11144632664477    1.01794131155364   -1.18147620887190
C         4.78989616554073    1.12724796295718    0.02555697258453
C         5.95297758786382    0.41280902769494    0.24602181098883
C         6.45296174499386   -0.42456322886461   -0.73591850874656
C         5.77690684423791   -0.54515401800699   -1.93670010768678
C         4.61187266625427    0.16865000914511   -2.15760542709548
O         1.71601992641491    1.34715574652869    0.63748803099873
C        -0.36160871821309    0.96010960702307   -1.74570166765540
C        -0.27011054701864    2.47091997101952   -1.95049640556056
O        -0.30164261304029    2.76672491564698   -3.24504382103531
O        -0.10722222560491    3.28008653653632   -1.08064305696209
N        -1.31563452622483    0.64900755717594   -0.67144473253441
C        -2.44428520031650    1.40445887836540   -0.55148015750774
C        -3.28507241851021    1.17553688102912    0.70248579254479
C        -4.06504792188058    2.41185466866938    1.08190386320382
C        -5.42784228327622    2.50822723950653    0.83934134120750
C        -6.13708093660465    3.63211210824787    1.22575470587369
C        -5.49274502781888    4.67914027214203    1.85943492122039
C        -4.13246335958424    4.59504152768938    2.09847479069902
C        -3.42584133323302    3.47038677952813    1.71378376131261
O        -2.72031604766045    2.20924502402196   -1.41899260399965
H        -3.98797916867494   -3.80831304802406   -0.45875725530478
H        -3.81458337358761   -4.51826540294214    1.87537180936038
H        -2.27111692604892   -3.31185700341064    3.40168899637189
H        -0.96246192708861   -1.43814647261186    2.56348505281356
H        -0.44567307908465    0.08649728617708    1.13896759058764
H         0.10459267795861   -1.49991561283462   -1.39806672410930
H         4.04654500957537   -3.80116335520338   -0.52091587945090
H         4.51019347069107   -3.40988091420223    1.85826805732972
H         3.12680841276618   -1.78824292197382    3.11524964321095
H         1.31873158996060   -0.59889029955609    2.00624271111987
H         2.57163025452810    1.77964666770611   -2.47411622932886
H         3.03003635161472    2.86187150915004   -1.11153155889570
H         4.40651658513907    1.78133242301873    0.79284839691714
H         6.47995117917569    0.51969536758739    1.18221841131756
H         7.36766598061143   -0.97323717704745   -0.56894772260178
H         6.16307525614915   -1.19162161659949   -2.70999406999128
H         4.09667179677079    0.07225596941478   -3.10001219482840
H        -0.66711060215687    0.51016437707271   -2.69945089205087
H        -0.27383709071927    3.72903403206839   -3.37474969823910
H        -2.63379860879578    0.88357063918298    1.52753837859178
H        -3.98259362640491    0.35794895158028    0.50088423948046
H        -5.94375332723286    1.69736327596613    0.34697185666340
H        -7.19871124835281    3.69037348973256    1.03554642595800
H        -6.04611556635693    5.55522321358679    2.16428747547626
H        -3.62119232108900    5.40851169930588    2.59114766114742
H        -2.36450081519244    3.41618571669081    1.90380055975883
72
 energy: -136.620246213624 gnorm: 0.015571118111 xtb: 6.3.3 (4ae9cef)
C        -2.56118891916100   -2.22699229666160   -0.28379276801005
C        -2.85728382916617   -1.87064429889008   -1.72241706172760
F        -3.41201552506378   -2.89659609102419   -2.38507624867547
F        -1.80600738228984   -1.51390604308265   -2.46471428917711
F        -3.74398656648223   -0.86278809748209   -1.80277116008040
C        -3.31788072784588   -3.28721179638165    0.21023301233007
C        -3.21626769019160   -3.69212297942148    1.52521238280900
C        -2.35232687044248   -3.02033137305297    2.37083610743464
C        -1.61291898281205   -1.96081488615414    1.88781578711192
C        -1.69146757682612   -1.53012631491085    0.56353316232504
C        -0.78316166441949   -0.38614542612474    0.19974459271328
C         0.46413630716082   -0.84592965128345   -0.60638345328502
C         1.58570419183175   -1.53737741910723    0.11390810326242
C         2.40449408857152   -2.42710231185632   -0.59111794992542
C         2.15493703332096   -2.74466291179740   -2.04367644617211
F         3.10659612386475   -3.52665039301819   -2.56632365099046
F         2.09173362002005   -1.67147360964415   -2.83855242790754
F         0.99818244753279   -3.41817753868373   -2.21920141672964
C         3.45202598050746   -3.08403729390687    0.03734713527010
C         3.71207455686162   -2.85825581163265    1.37579948369939
C         2.92572189020982   -1.96469860193269    2.07762853140796
C         1.87660781807204   -1.31576043155225    1.45270366448764
N         0.90228010155953    0.36990560808545   -1.29866181446349
C         1.78128241228064    1.22342533302381   -0.54959346419003
C         2.83741203141900    1.84650395135544   -1.42463303086386
C         4.09198400546668    1.03033753496989   -1.18532687383011
C         4.76438488173885    1.13247018753451    0.02624379998780
C         5.92282963285641    0.41098708465908    0.24851887555814
C         6.42106117126695   -0.42650051644520   -0.73533522125835
C         5.74544226466239   -0.54559384661773   -1.93725326251174
C         4.58426347867064    0.17484898776659   -2.16044162973763
O         1.75784856597177    1.29141226936846    0.65043723353475
C        -0.34464565407046    0.94655004195275   -1.75087867281880
C        -0.26770793201007    2.46254431341330   -1.93124457314319
O        -0.33064821939170    2.78139675720556   -3.21719522704565
O        -0.05894728309914    3.23876725251034   -1.03693531431558
N        -1.30786576251934    0.63170593712926   -0.68630206459844
C        -2.40567634835629    1.42378471982330   -0.55425311800719
C        -3.26202780077097    1.17284235794269    0.68106042288904
C        -4.04342622425008    2.40115491346807    1.06780519739803
C        -5.40584787839252    2.49218154600725    0.82202855801182
C        -6.11780041854831    3.61391933779081    1.20993451729426
C        -5.47518801641562    4.66129402760806    1.84636386283279
C        -4.11358185580544    4.58236890574158    2.08494638158750
C        -3.40351706464651    3.46047687328521    1.69835369594874
O        -2.64829545272852    2.26001609585272   -1.40357751667103
H        -3.99323151135103   -3.80219099641516   -0.45312792063521
H        -3.81152390604713   -4.51683345421151    1.88040370393156
H        -2.25959489280419   -3.31219878917213    3.40447834006808
H        -0.95157273464277   -1.43699107043407    2.56074829297994
H        -0.44266996902075    0.08656734934026    1.12903606141903
H         0.10235027927388   -1.50405857196564   -1.39805761745922
H         4.05865032638133   -3.77543128557707   -0.52388646474282
H         4.52066458593505   -3.38106619511387    1.85890238411362
H         3.12420325244578   -1.76935519686925    3.11925747556235
H         1.29892651969326   -0.60280913880473    2.01466666901743
H         2.54421498181223    1.79561438725608   -2.46966829100234
H         3.00984279292384    2.87500178036812   -1.10805720624959
H         4.37548511760344    1.78215275827596    0.79497732008181
H         6.44652611084649    0.51199437561305    1.18737094496476
H         7.33433046138421   -0.97748645188696   -0.56832550679996
H         6.12772579468369   -1.19578686288653   -2.70967175156616
H         4.06474669227457    0.07904307751049   -3.10114047425807
H        -0.64454993230139    0.49649409255145   -2.70595049194987
H        -0.30514630890084    3.74038538076957   -3.35155699107442
H        -2.61723436206353    0.86976042743384    1.50716155839951
H        -3.95175118093447    0.35512430592764    0.45687712467162
H        -5.91644473324111    1.67997551686767    0.32527033472893
H        -7.17933084350288    3.66930555933776    1.01795958127967
H        -6.03137862803900    5.53444460576094    2.15401855074868
H        -3.60374681136843    5.39666405584227    2.57803354835292
H        -2.34081505918095    3.40668824465242    1.88371897365952
72
 energy: -136.621716079816 gnorm: 0.016832936039 xtb: 6.3.3 (4ae9cef)
C        -2.56793245926768   -2.22665078029817   -0.28114161444235
C        -2.87338894606661   -1.85929240506961   -1.71567614021890
F        -3.44969934462951   -2.87336034061209   -2.38058735772867
F        -1.82428738774962   -1.50948634060895   -2.46505531633526
F        -3.74971759110689   -0.83757979566437   -1.77922496091804
C        -3.32284773855047   -3.28829809094469    0.21716708537868
C        -3.21326291356471   -3.69467097064933    1.53161455807320
C        -2.34499623750695   -3.02490539148259    2.37439004354913
C        -1.60617310843380   -1.96535479445466    1.88945557513049
C        -1.69253387352358   -1.53383559794338    0.56437408801564
C        -0.78563347420762   -0.39106816248460    0.19411844947160
C         0.46503130834809   -0.85487605590433   -0.59911529428953
C         1.57981814513616   -1.54949048561573    0.12429732828296
C         2.40898526718275   -2.42546370064810   -0.58629131477376
C         2.15155591473281   -2.74118817543199   -2.03847073157511
F         3.10397000850973   -3.51653197001138   -2.57210518483744
F         2.07155302316930   -1.66666981701036   -2.83288297526238
F         0.99503821646391   -3.42209766578219   -2.20401657178929
C         3.46783789453491   -3.06924036334635    0.04045665400873
C         3.72598118286767   -2.83931294180291    1.37889675036611
C         2.92584571375088   -1.96149025178824    2.08614328806040
C         1.86363514964901   -1.32869727282494    1.46623301302867
N         0.91128999868756    0.36119047386520   -1.28434533139227
C         1.78530324471124    1.21455407813355   -0.53996619342971
C         2.81718620370994    1.86471490303114   -1.42090367800667
C         4.07264994641789    1.04840109888528   -1.19116604495061
C         4.74008352195209    1.14126832736264    0.02467741193303
C         5.89067359181893    0.40764302318219    0.24980315452423
C         6.38370558383692   -0.43200954999360   -0.73556906879530
C         5.70964485679974   -0.54604912867241   -1.93941652647673
C         4.55545027359129    0.18615030898500   -2.16564463460455
O         1.79317846399413    1.24726048080733    0.66227399862695
C        -0.32591013305048    0.93823409983962   -1.75625307302061
C        -0.24775818647336    2.45962774808670   -1.91783551183510
O        -0.36638300900614    2.80347454982431   -3.19430494037751
O         0.01197808407363    3.20921975233007   -1.01147695951471
N        -1.30623730744005    0.61075095451577   -0.70902508028243
C        -2.37232576912639    1.43703547630027   -0.56002638578927
C        -3.24071630674046    1.17232947098263    0.65861852774351
C        -4.02327744801852    2.39310726103164    1.05262729206391
C        -5.38554721027974    2.47877684863977    0.80452832570330
C        -6.09976306912496    3.59867054398787    1.19421488587031
C        -5.45754332450012    4.64558748080576    1.83281379020124
C        -4.09478910512748    4.57199823680604    2.07052362640798
C        -3.38153050342153    3.45264263223779    1.68174816682508
O        -2.58006259371336    2.30709404393313   -1.38773878946554
H        -4.00358451387678   -3.80163701937701   -0.44313255579522
H        -3.80826081299065   -4.51955484243546    1.88855210735681
H        -2.24779908407651   -3.31728198009424    3.40820156989203
H        -0.94076096195699   -1.44153394424700    2.55921946251597
H        -0.45135002959008    0.09581408867508    1.11769458032025
H         0.10223329686956   -1.50880579338698   -1.39499522505141
H         4.08493045547784   -3.74895198114773   -0.52500421753241
H         4.54633030947795   -3.34728841438851    1.85940181750942
H         3.12568691397632   -1.76051000297976    3.12720947541465
H         1.27513479291548   -0.62688954926154    2.03198424125923
H         2.51434274492784    1.82093634886674   -2.46385184078774
H         2.98274756565620    2.89303451652966   -1.10170983787841
H         4.34917931536498    1.78880231633088    0.79484901190523
H         6.40969572718479    0.49862212446686    1.19282737314212
H         7.29200802746062   -0.99127949837817   -0.56671258910555
H         6.08548103216771   -1.20325724458843   -2.70975070639800
H         4.03245470025677    0.09243234991125   -3.10542533973854
H        -0.61516908174580    0.48876162124243   -2.71493050813348
H        -0.35359157335939    3.76247641160167   -3.32036959656753
H        -2.60363428879168    0.85780925213037    1.48726431355614
H        -3.92284338644564    0.35465437553199    0.41499074913738
H        -5.89076736139010    1.66487218667826    0.30394307683831
H        -7.16120181290230    3.65232929092735    1.00009402496743
H        -6.01592278488931    5.51682335886912    2.14214679799899
H        -3.58616038778742    5.38802199223309    2.56270391653236
H        -2.31726035524170    3.39949029176202    1.86229756548897
72
 energy: -136.622848030622 gnorm: 0.010956232016 xtb: 6.3.3 (4ae9cef)
C        -2.57980958748532   -2.22621961434752   -0.27770552271283
C        -2.88848996556045   -1.84930620029681   -1.70858642716819
F        -3.48471277702917   -2.85193491969976   -2.37609890036390
F        -1.83626288157524   -1.51008614419962   -2.45973091218724
F        -3.75183009237250   -0.81338293464863   -1.76595569140817
C        -3.33095180745907   -3.29048480196428    0.22351983138107
C        -3.21179764869380   -3.69946177207308    1.53668372973255
C        -2.33852147852035   -3.03214035036705    2.37612048569023