      -----------------------------------------------------------      
     |                   =====================                   |     
     |                           x T B                           |     
     |                   =====================                   |     
     |                         S. Grimme                         |     
     |          Mulliken Center for Theoretical Chemistry        |     
     |                    University of Bonn                     |     
      -----------------------------------------------------------      

   * xtb version 6.3.3 (4ae9cef) compiled by 'conda@95abc7406d43' on 2020-10-14

   xtb is free software: you can redistribute it and/or modify it under
   the terms of the GNU Lesser General Public License as published by
   the Free Software Foundation, either version 3 of the License, or
   (at your option) any later version.
   
   xtb is distributed in the hope that it will be useful,
   but WITHOUT ANY WARRANTY; without even the implied warranty of
   MERCHANTABILITY or FITNESS FOR A PARTICULAR PURPOSE.  See the
   GNU Lesser General Public License for more details.
   
   Cite this work as:
   * C. Bannwarth, E. Caldeweyher, S. Ehlert, A. Hansen, P. Pracht,
     J. Seibert, S. Spicher, S. Grimme, WIREs Comput. Mol. Sci., 2020,
     e01493. DOI: 10.1002/wcms.1493
   
   for GFN2-xTB:
   * S. Grimme, C. Bannwarth, P. Shushkov, J. Chem. Theory Comput., 2017,
     13, 1989-2009. DOI: 10.1021/acs.jctc.7b00118
   for GFN1-xTB:
   * C. Bannwarth, S. Ehlert and S. Grimme., J. Chem. Theory Comput., 2019,
     15, 1652-1671. DOI: 10.1021/acs.jctc.8b01176
   for GFN0-xTB:
   * P. Pracht, E. Caldeweyher, S. Ehlert, S. Grimme, ChemRxiv, 2019, preprint.
     DOI: 10.26434/chemrxiv.8326202.v1
   for GFN-FF:
   * S. Spicher and S. Grimme, Angew. Chem. Int. Ed., 2020, 59, 15665-15673.
     DOI: 10.1002/anie.202004239
   
   for DFT-D4:
   * E. Caldeweyher, C. Bannwarth and S. Grimme, J. Chem. Phys., 2017,
     147, 034112. DOI: 10.1063/1.4993215
   * E. Caldeweyher, S. Ehlert, A. Hansen, H. Neugebauer, S. Spicher,
     C. Bannwarth and S. Grimme, J. Chem. Phys., 2019, 150, 154122.
     DOI: 10.1063/1.5090222
   * E. Caldeweyher, J.-M. Mewes, S. Ehlert and S. Grimme, Phys. Chem. Chem. Phys.
     2020, 22, 8499-8512. DOI: 10.1039/D0CP00502A
   
   for sTDA-xTB:
   * S. Grimme and C. Bannwarth, J. Chem. Phys., 2016, 145, 054103.
     DOI: 10.1063/1.4959605
   
   in the mass-spec context:
   * V. Asgeirsson, C. Bauer and S. Grimme, Chem. Sci., 2017, 8, 4879.
     DOI: 10.1039/c7sc00601b
   * J. Koopman and S. Grimme, ACS Omega 2019, 4, 12, 15120-15133.
     DOI: 10.1021/acsomega.9b02011
   
   for metadynamics refer to:
   * S. Grimme, J. Chem. Theory Comput., 2019, 155, 2847-2862
     DOI: 10.1021/acs.jctc.9b00143
   
   with help from (in alphabetical order)
   C. Bannwarth, F. Bohle, G. Brandenburg, E. Caldeweyher, M. Checinski,
   S. Dohm, S. Ehlert, S. Ehrlich, F. März, H. Neugebauer, J. Pisarek,
   P. Pracht, P. Shushkov, and S. Spicher.
   
 * started run on 2022/03/16 at 21:28:22.038     

           -------------------------------------------------
          |                Calculation Setup                |
           -------------------------------------------------

          program call               : xtb acid_116.xyz --opt --chrg 0 --uhf 0 --gfn 2
          coordinate file            : acid_116.xyz
          omp threads                :                    64
          number of atoms            :                    80
          number of electrons        :                   242
          charge                     :                     0
          spin                       :                   0.0
          first test random number   :      0.15066115036783

   ID    Z sym.   atoms
    1    6 C      1, 3-16, 18, 20-29, 32, 33, 37-46
    2    8 O      2, 17, 30, 31, 34, 35, 47, 48
    3    7 N      19, 36
    4    1 H      49-80

           -------------------------------------------------
          |                 G F N 2 - x T B                 |
           -------------------------------------------------

        Reference                      10.1021/acs.jctc.8b01176
      * Hamiltonian:
        H0-scaling (s, p, d)           1.850000    2.230000    2.230000
        zeta-weighting                 0.500000
      * Dispersion:
        s8                             2.700000
        a1                             0.520000
        a2                             5.000000
        s9                             5.000000
      * Repulsion:
        kExp                           1.500000    1.000000
        rExp                           1.000000
      * Coulomb:
        alpha                          2.000000
        third order                    shell-resolved
        anisotropic                    true
        a3                             3.000000
        a5                             4.000000
        cn-shift                       1.200000
        cn-exp                         4.000000
        max-rad                        5.000000


          ...................................................
          :                      SETUP                      :
          :.................................................:
          :  # basis functions                 224          :
          :  # atomic orbitals                 224          :
          :  # shells                          128          :
          :  # electrons                       242          :
          :  max. iterations                   250          :
          :  Hamiltonian                  GFN2-xTB          :
          :  restarted?                      false          :
          :  GBSA solvation                  false          :
          :  PC potential                    false          :
          :  electronic temp.          300.0000000     K    :
          :  accuracy                    1.0000000          :
          :  -> integral cutoff          0.2500000E+02      :
          :  -> integral neglect         0.1000000E-07      :
          :  -> SCF convergence          0.1000000E-05 Eh   :
          :  -> wf. convergence          0.1000000E-03 e    :
          :  Broyden damping             0.4000000          :
          ...................................................

 iter      E             dE          RMSdq      gap      omega  full diag
   1   -137.7214005 -0.137721E+03  0.444E+00    2.52       0.0  T
   2   -137.8929815 -0.171581E+00  0.260E+00    2.69       1.0  T
   3   -137.8730792  0.199022E-01  0.128E+00    2.47       1.0  T
   4   -137.9072711 -0.341918E-01  0.501E-01    2.27       1.0  T
   5   -137.9256685 -0.183975E-01  0.141E-01    2.28       1.0  T
   6   -137.9266275 -0.958912E-03  0.612E-02    2.31       1.0  T
   7   -137.9267028 -0.753511E-04  0.294E-02    2.31       1.0  T
   8   -137.9267121 -0.926986E-05  0.120E-02    2.32       1.0  T
   9   -137.9267167 -0.461320E-05  0.390E-03    2.32       2.9  T
  10   -137.9267170 -0.344245E-06  0.162E-03    2.32       6.9  T
  11   -137.9267171 -0.776446E-07  0.805E-04    2.32      13.9  T
  12   -137.9267171 -0.906542E-08  0.341E-04    2.32      32.7  T

   *** convergence criteria satisfied after 12 iterations ***

         #    Occupation            Energy/Eh            Energy/eV
      -------------------------------------------------------------
         1        2.0000           -0.7662852             -20.8517
       ...           ...                  ...                  ...
       115        2.0000           -0.4005840             -10.9004
       116        2.0000           -0.3967844             -10.7971
       117        2.0000           -0.3943264             -10.7302
       118        2.0000           -0.3904406             -10.6244
       119        2.0000           -0.3854690             -10.4891
       120        2.0000           -0.3819652             -10.3938
       121        2.0000           -0.3727162             -10.1421 (HOMO)
       122                         -0.2875185              -7.8238 (LUMO)
       123                         -0.2786010              -7.5811
       124                         -0.2685247              -7.3069
       125                         -0.2442767              -6.6471
       126                         -0.2346400              -6.3849
       ...                                ...                  ...
       224                          0.6879830              18.7210
      -------------------------------------------------------------
                  HL-Gap            0.0851977 Eh            2.3183 eV
             Fermi-level           -0.3301174 Eh           -8.9830 eV

 SCC (total)                   0 d,  0 h,  0 min,  0.626 sec
 SCC setup                      ...        0 min,  0.011 sec (  1.701%)
 Dispersion                     ...        0 min,  0.017 sec (  2.754%)
 classical contributions        ...        0 min,  0.024 sec (  3.826%)
 integral evaluation            ...        0 min,  0.114 sec ( 18.269%)
 iterations                     ...        0 min,  0.322 sec ( 51.418%)
 molecular gradient             ...        0 min,  0.134 sec ( 21.482%)
 printout                       ...        0 min,  0.003 sec (  0.536%)

         :::::::::::::::::::::::::::::::::::::::::::::::::::::
         ::                     SUMMARY                     ::
         :::::::::::::::::::::::::::::::::::::::::::::::::::::
         :: total energy            -136.121092135621 Eh    ::
         :: gradient norm              0.121843501220 Eh/a0 ::
         :: HOMO-LUMO gap              2.318347412847 eV    ::
         ::.................................................::
         :: SCC energy              -137.926717124302 Eh    ::
         :: -> isotropic ES            0.172256183639 Eh    ::
         :: -> anisotropic ES          0.007422653194 Eh    ::
         :: -> anisotropic XC          0.040349041301 Eh    ::
         :: -> dispersion             -0.107570465751 Eh    ::
         :: repulsion energy           1.802971121030 Eh    ::
         :: add. restraining           0.000000000000 Eh    ::
         :: total charge              -0.000000000000 e     ::
         :::::::::::::::::::::::::::::::::::::::::::::::::::::

      ----------------------------------------------------------- 
     |                   =====================                   |
     |                        A N C O P T                        |
     |                   =====================                   |
     |               Approximate Normal Coordinate               |
     |                Rational Function Optimizer                |
      ----------------------------------------------------------- 

          ...................................................
          :                      SETUP                      :
          :.................................................:
          :   optimization level            normal          :
          :   max. optcycles                   240          :
          :   ANC micro-cycles                  20          :
          :   degrees of freedom               234          :
          :.................................................:
          :   RF solver                   davidson          :
          :   write xtbopt.log                true          :
          :   linear?                        false          :
          :   energy convergence         0.5000000E-05 Eh   :
          :   grad. convergence          0.1000000E-02 Eh/α :
          :   maximium RF displ.         1.0000000          :
          :   Hlow (freq-cutoff)         0.1000000E-01      :
          :   Hmax (freq-cutoff)         5.0000000          :
          :   S6 in model hess.         20.0000000          :
          ...................................................

generating ANC from model Hessian ...
Using Lindh-Hessian (1995)
 Shifting diagonal of input Hessian by    9.9139540608760238E-003
 Lowest  eigenvalues of input Hessian
    0.000000    0.000000    0.000000    0.000000    0.000000    0.000000
    0.010000    0.010150    0.010203    0.010252    0.010271    0.010304
    0.010340    0.010404    0.010455    0.011332    0.011494    0.011716
 Highest eigenvalues
    2.026574    2.113825    2.114673    2.178923    2.251037    2.254322


........................................................................
.............................. CYCLE    1 ..............................
........................................................................
   1   -137.9267171 -0.137927E+03  0.156E-04    2.32       0.0  T
   2   -137.9267171 -0.187129E-09  0.125E-04    2.32      89.2  T
   3   -137.9267171 -0.941668E-09  0.587E-05    2.32     190.5  T
     SCC iter.                  ...        0 min,  0.082 sec
     gradient                   ...        0 min,  0.133 sec
 * total energy  :  -136.1210921 Eh     change       -0.4263995E-08 Eh
   gradient norm :     0.1218495 Eh/α   predicted     0.0000000E+00 (-100.00%)
   displ. norm   :     0.3609509 α      lambda       -0.2093761E-01
   maximum displ.:     0.1361095 α      in ANC's #39, #24, #38, ...

........................................................................
.............................. CYCLE    2 ..............................
........................................................................
   1   -138.0110215 -0.138011E+03  0.156E-01    2.38       0.0  T
   2   -138.0111563 -0.134812E-03  0.950E-02    2.40       1.0  T
   3   -138.0111048  0.514584E-04  0.428E-02    2.42       1.0  T
   4   -138.0111877 -0.828537E-04  0.109E-02    2.42       1.0  T
   5   -138.0111957 -0.801038E-05  0.411E-03    2.42       2.7  T
   6   -138.0111962 -0.538363E-06  0.202E-03    2.42       5.5  T
   7   -138.0111963 -0.468130E-07  0.102E-03    2.41      11.0  T
   8   -138.0111963 -0.367025E-07  0.371E-04    2.41      30.1  T
   9   -138.0111963 -0.244569E-08  0.176E-04    2.41      63.4  T
     SCC iter.                  ...        0 min,  0.240 sec
     gradient                   ...        0 min,  0.151 sec
 * total energy  :  -136.1354196 Eh     change       -0.1432748E-01 Eh
   gradient norm :     0.0447327 Eh/α   predicted    -0.1183274E-01 ( -17.41%)
   displ. norm   :     0.4079742 α      lambda       -0.6768676E-02
   maximum displ.:     0.1980170 α      in ANC's #39, #24, #38, ...

........................................................................
.............................. CYCLE    3 ..............................
........................................................................
   1   -138.0539901 -0.138054E+03  0.115E-01    2.44       0.0  T
   2   -138.0540754 -0.853716E-04  0.700E-02    2.46       1.0  T
   3   -138.0540509  0.245233E-04  0.331E-02    2.46       1.0  T
   4   -138.0540961 -0.452312E-04  0.924E-03    2.47       1.2  T
   5   -138.0541031 -0.694983E-05  0.284E-03    2.47       3.9  T
   6   -138.0541033 -0.259145E-06  0.147E-03    2.47       7.6  T
   7   -138.0541034 -0.498127E-07  0.723E-04    2.47      15.5  T
   8   -138.0541034 -0.120434E-07  0.246E-04    2.47      45.5  T
     SCC iter.                  ...        0 min,  0.209 sec
     gradient                   ...        0 min,  0.155 sec
 * total energy  :  -136.1398719 Eh     change       -0.4452284E-02 Eh
   gradient norm :     0.0157724 Eh/α   predicted    -0.3947635E-02 ( -11.33%)
   displ. norm   :     0.3857948 α      lambda       -0.2456313E-02
   maximum displ.:     0.1857974 α      in ANC's #24, #39, #38, ...

........................................................................
.............................. CYCLE    4 ..............................
........................................................................
   1   -138.0647342 -0.138065E+03  0.101E-01    2.45       0.0  T
   2   -138.0647929 -0.586866E-04  0.609E-02    2.46       1.0  T
   3   -138.0647703  0.226311E-04  0.277E-02    2.47       1.0  T
   4   -138.0648037 -0.334141E-04  0.814E-03    2.47       1.4  T
   5   -138.0648090 -0.535578E-05  0.243E-03    2.47       4.6  T
   6   -138.0648093 -0.240206E-06  0.109E-03    2.47      10.3  T
   7   -138.0648093 -0.193195E-07  0.588E-04    2.47      19.0  T
   8   -138.0648093 -0.956203E-08  0.178E-04    2.47      62.9  T
     SCC iter.                  ...        0 min,  0.209 sec
     gradient                   ...        0 min,  0.148 sec
 * total energy  :  -136.1416086 Eh     change       -0.1736705E-02 Eh
   gradient norm :     0.0134029 Eh/α   predicted    -0.1410969E-02 ( -18.76%)
   displ. norm   :     0.4196315 α      lambda       -0.1618770E-02
   maximum displ.:     0.1944393 α      in ANC's #24, #39, #38, ...

........................................................................
.............................. CYCLE    5 ..............................
........................................................................
   1   -138.0670225 -0.138067E+03  0.102E-01    2.44       0.0  T
   2   -138.0670549 -0.324377E-04  0.608E-02    2.45       1.0  T
   3   -138.0670304  0.245297E-04  0.235E-02    2.45       1.0  T
   4   -138.0670632 -0.328496E-04  0.485E-03    2.45       2.3  T
   5   -138.0670648 -0.161847E-05  0.201E-03    2.45       5.6  T
   6   -138.0670650 -0.110307E-06  0.106E-03    2.45      10.6  T
   7   -138.0670650 -0.133574E-07  0.528E-04    2.45      21.2  T
   8   -138.0670650 -0.997090E-08  0.154E-04    2.45      72.5  T
     SCC iter.                  ...        0 min,  0.211 sec
     gradient                   ...        0 min,  0.147 sec
 * total energy  :  -136.1426839 Eh     change       -0.1075250E-02 Eh
   gradient norm :     0.0141695 Eh/α   predicted    -0.9519429E-03 ( -11.47%)
   displ. norm   :     0.3861218 α      lambda       -0.1024342E-02
   maximum displ.:     0.1442115 α      in ANC's #24, #17, #15, ...

........................................................................
.............................. CYCLE    6 ..............................
........................................................................
   1   -138.0648859 -0.138065E+03  0.981E-02    2.42       0.0  T
   2   -138.0649041 -0.182576E-04  0.577E-02    2.42       1.0  T
   3   -138.0648787  0.254235E-04  0.222E-02    2.42       1.0  T
   4   -138.0649098 -0.311293E-04  0.374E-03    2.42       3.0  T
   5   -138.0649105 -0.683962E-06  0.183E-03    2.42       6.1  T
   6   -138.0649107 -0.142170E-06  0.878E-04    2.42      12.7  T
   7   -138.0649107 -0.875201E-08  0.390E-04    2.42      28.7  T
     SCC iter.                  ...        0 min,  0.186 sec
     gradient                   ...        0 min,  0.139 sec
 * total energy  :  -136.1434131 Eh     change       -0.7292371E-03 Eh
   gradient norm :     0.0136852 Eh/α   predicted    -0.5885535E-03 ( -19.29%)
   displ. norm   :     0.4281340 α      lambda       -0.9518166E-03
   maximum displ.:     0.1770129 α      in ANC's #17, #2, #15, ...

........................................................................
.............................. CYCLE    7 ..............................
........................................................................
   1   -138.0637786 -0.138064E+03  0.971E-02    2.39       0.0  T
   2   -138.0637967 -0.181323E-04  0.572E-02    2.39       1.0  T
   3   -138.0637662  0.304863E-04  0.236E-02    2.39       1.0  T
   4   -138.0638034 -0.371475E-04  0.406E-03    2.39       2.8  T
   5   -138.0638042 -0.863667E-06  0.202E-03    2.39       5.5  T
   6   -138.0638044 -0.196921E-06  0.941E-04    2.39      11.9  T
   7   -138.0638044 -0.122144E-07  0.419E-04    2.39      26.7  T
     SCC iter.                  ...        0 min,  0.187 sec
     gradient                   ...        0 min,  0.121 sec
 * total energy  :  -136.1441516 Eh     change       -0.7385201E-03 Eh
   gradient norm :     0.0091602 Eh/α   predicted    -0.5631435E-03 ( -23.75%)
   displ. norm   :     0.5047766 α      lambda       -0.9467785E-03
   maximum displ.:     0.2196947 α      in ANC's #17, #2, #15, ...

........................................................................
.............................. CYCLE    8 ..............................
........................................................................
   1   -138.0629433 -0.138063E+03  0.114E-01    2.35       0.0  T
   2   -138.0629653 -0.220232E-04  0.668E-02    2.35       1.0  T
   3   -138.0629261  0.392086E-04  0.265E-02    2.35       1.0  T
   4   -138.0629733 -0.472339E-04  0.472E-03    2.35       2.4  T
   5   -138.0629747 -0.131645E-05  0.213E-03    2.35       5.2  T
   6   -138.0629748 -0.180034E-06  0.106E-03    2.35      10.6  T
   7   -138.0629749 -0.214358E-07  0.443E-04    2.35      25.3  T
   8   -138.0629749 -0.451607E-08  0.164E-04    2.35      68.3  T
     SCC iter.                  ...        0 min,  0.211 sec
     gradient                   ...        0 min,  0.134 sec
 * total energy  :  -136.1448997 Eh     change       -0.7481280E-03 Eh
   gradient norm :     0.0098396 Eh/α   predicted    -0.5940273E-03 ( -20.60%)
   displ. norm   :     0.5501619 α      lambda       -0.8586270E-03
   maximum displ.:     0.2371566 α      in ANC's #17, #2, #13, ...

........................................................................
.............................. CYCLE    9 ..............................
........................................................................
   1   -138.0631688 -0.138063E+03  0.120E-01    2.32       0.0  T
   2   -138.0631891 -0.203475E-04  0.705E-02    2.33       1.0  T
   3   -138.0631516  0.375305E-04  0.257E-02    2.32       1.0  T
   4   -138.0631968 -0.452168E-04  0.406E-03    2.32       2.8  T
   5   -138.0631976 -0.794510E-06  0.203E-03    2.32       5.5  T
   6   -138.0631978 -0.155594E-06  0.103E-03    2.32      10.9  T
   7   -138.0631978 -0.211401E-07  0.403E-04    2.32      27.8  T
   8   -138.0631978 -0.487913E-08  0.147E-04    2.32      75.9  T
     SCC iter.                  ...        0 min,  0.211 sec
     gradient                   ...        0 min,  0.133 sec
 * total energy  :  -136.1455909 Eh     change       -0.6912039E-03 Eh
   gradient norm :     0.0102646 Eh/α   predicted    -0.5592591E-03 ( -19.09%)
   displ. norm   :     0.5782521 α      lambda       -0.7932006E-03
   maximum displ.:     0.2367429 α      in ANC's #17, #2, #13, ...

........................................................................
.............................. CYCLE   10 ..............................
........................................................................
   1   -138.0636009 -0.138064E+03  0.123E-01    2.31       0.0  T
   2   -138.0636190 -0.181039E-04  0.725E-02    2.31       1.0  T
   3   -138.0635817  0.372931E-04  0.254E-02    2.31       1.0  T
   4   -138.0636264 -0.447251E-04  0.367E-03    2.31       3.0  T
   5   -138.0636269 -0.526820E-06  0.193E-03    2.31       5.8  T
   6   -138.0636270 -0.121886E-06  0.968E-04    2.31      11.6  T
   7   -138.0636271 -0.173173E-07  0.352E-04    2.31      31.7  T
     SCC iter.                  ...        0 min,  0.188 sec
     gradient                   ...        0 min,  0.131 sec
 * total energy  :  -136.1462303 Eh     change       -0.6393647E-03 Eh
   gradient norm :     0.0088987 Eh/α   predicted    -0.5292213E-03 ( -17.23%)
   displ. norm   :     0.5799260 α      lambda       -0.7094103E-03
   maximum displ.:     0.2417046 α      in ANC's #2, #13, #17, ...

........................................................................
.............................. CYCLE   11 ..............................
........................................................................
   1   -138.0652141 -0.138065E+03  0.119E-01    2.30       0.0  T
   2   -138.0652307 -0.165435E-04  0.700E-02    2.30       1.0  T
   3   -138.0651950  0.357265E-04  0.244E-02    2.30       1.0  T
   4   -138.0652375 -0.425064E-04  0.349E-03    2.30       3.2  T
   5   -138.0652379 -0.413981E-06  0.196E-03    2.30       5.7  T
   6   -138.0652380 -0.158997E-06  0.887E-04    2.30      12.6  T
   7   -138.0652380 -0.949652E-08  0.339E-04    2.30      33.0  T
     SCC iter.                  ...        0 min,  0.186 sec
     gradient                   ...        0 min,  0.160 sec
 * total energy  :  -136.1467951 Eh     change       -0.5647918E-03 Eh
   gradient norm :     0.0089731 Eh/α   predicted    -0.4740036E-03 ( -16.07%)
   displ. norm   :     0.5728995 α      lambda       -0.6373327E-03
   maximum displ.:     0.2480952 α      in ANC's #2, #13, #17, ...

........................................................................
.............................. CYCLE   12 ..............................
........................................................................
   1   -138.0648884 -0.138065E+03  0.115E-01    2.30       0.0  T
   2   -138.0649085 -0.200596E-04  0.674E-02    2.30       1.0  T
   3   -138.0648778  0.306482E-04  0.235E-02    2.30       1.0  T
   4   -138.0649146 -0.367811E-04  0.383E-03    2.31       2.9  T
   5   -138.0649152 -0.604943E-06  0.199E-03    2.30       5.6  T
   6   -138.0649154 -0.170008E-06  0.931E-04    2.30      12.0  T
   7   -138.0649154 -0.126062E-07  0.371E-04    2.30      30.1  T
     SCC iter.                  ...        0 min,  0.192 sec
     gradient                   ...        0 min,  0.151 sec
 * total energy  :  -136.1472836 Eh     change       -0.4884712E-03 Eh
   gradient norm :     0.0104957 Eh/α   predicted    -0.4232595E-03 ( -13.35%)
   displ. norm   :     0.5371242 α      lambda       -0.6226287E-03
   maximum displ.:     0.2407121 α      in ANC's #2, #13, #6, ...

........................................................................
.............................. CYCLE   13 ..............................
........................................................................
   1   -138.0688410 -0.138069E+03  0.984E-02    2.31       0.0  T
   2   -138.0688570 -0.159452E-04  0.580E-02    2.31       1.0  T
   3   -138.0688357  0.212643E-04  0.196E-02    2.31       1.0  T
   4   -138.0688615 -0.258092E-04  0.326E-03    2.31       3.4  T
   5   -138.0688620 -0.431781E-06  0.175E-03    2.31       6.4  T
   6   -138.0688621 -0.145275E-06  0.802E-04    2.31      13.9  T
   7   -138.0688621 -0.122445E-07  0.354E-04    2.31      31.6  T
     SCC iter.                  ...        0 min,  0.187 sec
     gradient                   ...        0 min,  0.146 sec
 * total energy  :  -136.1477295 Eh     change       -0.4459081E-03 Eh
   gradient norm :     0.0105984 Eh/α   predicted    -0.4011777E-03 ( -10.03%)
   displ. norm   :     0.5639478 α      lambda       -0.5764443E-03
   maximum displ.:     0.2511241 α      in ANC's #2, #13, #5, ...

........................................................................
.............................. CYCLE   14 ..............................
........................................................................
   1   -138.0627381 -0.138063E+03  0.108E-01    2.30       0.0  T
   2   -138.0627527 -0.146030E-04  0.638E-02    2.31       1.0  T
   3   -138.0627288  0.238838E-04  0.202E-02    2.30       1.0  T
   4   -138.0627579 -0.291061E-04  0.287E-03    2.30       3.9  T
   5   -138.0627581 -0.207726E-06  0.153E-03    2.30       7.3  T
   6   -138.0627582 -0.509574E-07  0.847E-04    2.30      13.2  T
   7   -138.0627582 -0.159866E-07  0.322E-04    2.30      34.7  T
     SCC iter.                  ...        0 min,  0.191 sec
     gradient                   ...        0 min,  0.128 sec
 * total energy  :  -136.1480872 Eh     change       -0.3577457E-03 Eh
   gradient norm :     0.0116358 Eh/α   predicted    -0.3798886E-03 (   6.19%)
   displ. norm   :     0.4663927 α      lambda       -0.9166804E-03
   maximum displ.:     0.1760445 α      in ANC's #2, #6, #21, ...

........................................................................
.............................. CYCLE   15 ..............................
........................................................................
   1   -138.0715916 -0.138072E+03  0.809E-02    2.31       0.0  T
   2   -138.0716088 -0.172597E-04  0.479E-02    2.32       1.0  T
   3   -138.0715965  0.123281E-04  0.159E-02    2.32       1.0  T
   4   -138.0716118 -0.152706E-04  0.414E-03    2.32       2.7  T
   5   -138.0716127 -0.911160E-06  0.184E-03    2.32       6.1  T
   6   -138.0716128 -0.107483E-06  0.103E-03    2.32      10.9  T
   7   -138.0716128 -0.176045E-07  0.422E-04    2.32      26.5  T
   8   -138.0716128 -0.459909E-08  0.157E-04    2.32      71.2  T
     SCC iter.                  ...        0 min,  0.213 sec
     gradient                   ...        0 min,  0.147 sec
 * total energy  :  -136.1483627 Eh     change       -0.2754472E-03 Eh
   gradient norm :     0.0175228 Eh/α   predicted    -0.5580436E-03 ( 102.60%)
   displ. norm   :     0.2576677 α      lambda       -0.5755622E-03
   maximum displ.:     0.1107501 α      in ANC's #2, #13, #5, ...

........................................................................
.............................. CYCLE   16 ..............................
........................................................................
   1   -138.0687370 -0.138069E+03  0.510E-02    2.33       0.0  T
   2   -138.0687417 -0.466852E-05  0.305E-02    2.32       1.0  T
   3   -138.0687376  0.403504E-05  0.853E-03    2.32       1.3  T
   4   -138.0687427 -0.501362E-05  0.207E-03    2.32       5.4  T
   5   -138.0687429 -0.208834E-06  0.102E-03    2.32      11.0  T
   6   -138.0687429 -0.223506E-07  0.573E-04    2.32      19.5  T
   7   -138.0687429 -0.514345E-08  0.221E-04    2.32      50.5  T
     SCC iter.                  ...        0 min,  0.188 sec
     gradient                   ...        0 min,  0.137 sec
 * total energy  :  -136.1487355 Eh     change       -0.3727957E-03 Eh
   gradient norm :     0.0102809 Eh/α   predicted    -0.3068892E-03 ( -17.68%)
   displ. norm   :     0.2175076 α      lambda       -0.4186622E-03
   maximum displ.:     0.0924545 α      in ANC's #5, #2, #13, ...

........................................................................
.............................. CYCLE   17 ..............................
........................................................................
   1   -138.0675929 -0.138068E+03  0.398E-02    2.31       0.0  T
   2   -138.0676065 -0.135900E-04  0.235E-02    2.31       1.0  T
   3   -138.0676057  0.725377E-06  0.102E-02    2.31       1.1  T
   4   -138.0676079 -0.214972E-05  0.245E-03    2.31       4.6  T
   5   -138.0676083 -0.439822E-06  0.925E-04    2.31      12.1  T
   6   -138.0676084 -0.378622E-07  0.429E-04    2.31      26.1  T
     SCC iter.                  ...        0 min,  0.158 sec
     gradient                   ...        0 min,  0.162 sec
 * total energy  :  -136.1489777 Eh     change       -0.2421897E-03 Eh
   gradient norm :     0.0099886 Eh/α   predicted    -0.2192350E-03 (  -9.48%)
   displ. norm   :     0.4023944 α      lambda       -0.3805492E-03
   maximum displ.:     0.1667698 α      in ANC's #2, #5, #13, ...

........................................................................
.............................. CYCLE   18 ..............................
........................................................................
   1   -138.0660226 -0.138066E+03  0.655E-02    2.32       0.0  T
   2   -138.0660265 -0.386750E-05  0.390E-02    2.32       1.0  T
   3   -138.0660227  0.379751E-05  0.787E-03    2.32       1.4  T
   4   -138.0660275 -0.475681E-05  0.211E-03    2.32       5.3  T
   5   -138.0660277 -0.182695E-06  0.112E-03    2.32      10.0  T
   6   -138.0660277 -0.223707E-07  0.586E-04    2.32      19.1  T
   7   -138.0660277 -0.141627E-07  0.209E-04    2.32      53.4  T
     SCC iter.                  ...        0 min,  0.191 sec
     gradient                   ...        0 min,  0.135 sec
 * total energy  :  -136.1491783 Eh     change       -0.2005959E-03 Eh
   gradient norm :     0.0116319 Eh/α   predicted    -0.2210983E-03 (  10.22%)
   displ. norm   :     0.3250477 α      lambda       -0.5402853E-03
   maximum displ.:     0.1153833 α      in ANC's #10, #7, #21, ...

........................................................................
.............................. CYCLE   19 ..............................
........................................................................
   1   -138.0732173 -0.138073E+03  0.700E-02    2.34       0.0  T
   2   -138.0732317 -0.143667E-04  0.413E-02    2.34       1.0  T
   3   -138.0732269  0.481091E-05  0.123E-02    2.34       1.0  T
   4   -138.0732334 -0.653270E-05  0.343E-03    2.34       3.3  T
   5   -138.0732341 -0.727038E-06  0.140E-03    2.34       8.0  T
   6   -138.0732342 -0.461536E-07  0.710E-04    2.34      15.7  T
   7   -138.0732342 -0.151277E-07  0.303E-04    2.34      36.9  T
     SCC iter.                  ...        0 min,  0.190 sec
     gradient                   ...        0 min,  0.128 sec
 * total energy  :  -136.1493071 Eh     change       -0.1287912E-03 Eh
   gradient norm :     0.0119136 Eh/α   predicted    -0.2986872E-03 ( 131.92%)
   displ. norm   :     0.2203726 α      lambda       -0.3443462E-03
   maximum displ.:     0.1030296 α      in ANC's #2, #5, #26, ...

........................................................................
.............................. CYCLE   20 ..............................
........................................................................
   1   -138.0687220 -0.138069E+03  0.384E-02    2.33       0.0  T
   2   -138.0687288 -0.685504E-05  0.228E-02    2.33       1.0  T
   3   -138.0687265  0.235609E-05  0.879E-03    2.34       1.3  T
   4   -138.0687298 -0.334204E-05  0.249E-03    2.34       4.5  T
   5   -138.0687303 -0.419292E-06  0.981E-04    2.34      11.4  T
   6   -138.0687303 -0.333055E-07  0.482E-04    2.34      23.2  T
     SCC iter.                  ...        0 min,  0.164 sec
     gradient                   ...        0 min,  0.131 sec
 * total energy  :  -136.1495249 Eh     change       -0.2178911E-03 Eh
   gradient norm :     0.0057736 Eh/α   predicted    -0.1805391E-03 ( -17.14%)
   displ. norm   :     0.1840115 α      lambda       -0.1899514E-03
   maximum displ.:     0.0954520 α      in ANC's #5, #2, #7, ...
 * RMSD in coord.:     0.6982393 α      energy gain  -0.2843281E-01 Eh

generating ANC from model Hessian ...
Using Lindh-Hessian (1995)
 Shifting diagonal of input Hessian by    9.8874772148043084E-003
 Lowest  eigenvalues of input Hessian
    0.000000    0.000000    0.000000    0.000000    0.000000    0.000000
    0.010000    0.010132    0.010188    0.010219    0.010245    0.010271
    0.010309    0.010418    0.010486    0.011486    0.011594    0.011849
 Highest eigenvalues
    2.109721    2.149398    2.156344    2.335618    2.349540    2.364800


........................................................................
.............................. CYCLE   21 ..............................
........................................................................
   1   -138.0699730 -0.138070E+03  0.350E-02    2.34       0.0  T
   2   -138.0699751 -0.210951E-05  0.207E-02    2.34       1.0  T
   3   -138.0699714  0.371283E-05  0.752E-03    2.34       1.5  T
   4   -138.0699756 -0.429083E-05  0.192E-03    2.34       5.8  T
   5   -138.0699759 -0.248974E-06  0.681E-04    2.34      16.4  T
   6   -138.0699759 -0.732470E-08  0.342E-04    2.34      32.7  T
     SCC iter.                  ...        0 min,  0.163 sec
     gradient                   ...        0 min,  0.127 sec
 * total energy  :  -136.1496458 Eh     change       -0.1208685E-03 Eh
   gradient norm :     0.0053825 Eh/α   predicted     0.0000000E+00 (-100.00%)
   displ. norm   :     0.0645192 α      lambda       -0.9767908E-04
   maximum displ.:     0.0275135 α      in ANC's #4, #10, #7, ...

........................................................................
.............................. CYCLE   22 ..............................
........................................................................
   1   -138.0707188 -0.138071E+03  0.150E-02    2.34       0.0  T
   2   -138.0707194 -0.569385E-06  0.898E-03    2.34       1.2  T
   3   -138.0707191  0.269713E-06  0.253E-03    2.34       4.4  T
   4   -138.0707194 -0.356941E-06  0.689E-04    2.34      16.2  T
   5   -138.0707195 -0.279877E-07  0.299E-04    2.34      37.4  T
     SCC iter.                  ...        0 min,  0.138 sec
     gradient                   ...        0 min,  0.135 sec
 * total energy  :  -136.1497240 Eh     change       -0.7821951E-04 Eh
   gradient norm :     0.0019378 Eh/α   predicted    -0.4907733E-04 ( -37.26%)
   displ. norm   :     0.2914425 α      lambda       -0.1677428E-03
   maximum displ.:     0.1258059 α      in ANC's #4, #10, #7, ...

........................................................................
.............................. CYCLE   23 ..............................
........................................................................
   1   -138.0713297 -0.138071E+03  0.580E-02    2.34       0.0  T
   2   -138.0713334 -0.370369E-05  0.344E-02    2.34       1.0  T
   3   -138.0713313  0.210965E-05  0.651E-03    2.34       1.7  T
   4   -138.0713340 -0.271320E-05  0.183E-03    2.34       6.1  T
   5   -138.0713342 -0.165230E-06  0.866E-04    2.34      12.9  T
   6   -138.0713342 -0.135410E-07  0.465E-04    2.34      24.0  T
     SCC iter.                  ...        0 min,  0.162 sec
     gradient                   ...        0 min,  0.139 sec
 * total energy  :  -136.1498710 Eh     change       -0.1469586E-03 Eh
   gradient norm :     0.0069481 Eh/α   predicted    -0.8710049E-04 ( -40.73%)
   displ. norm   :     0.1687510 α      lambda       -0.1099442E-03
   maximum displ.:     0.0777785 α      in ANC's #4, #10, #7, ...

........................................................................
.............................. CYCLE   24 ..............................
........................................................................
   1   -138.0708689 -0.138071E+03  0.308E-02    2.34       0.0  T
   2   -138.0708693 -0.397727E-06  0.182E-02    2.34       1.0  T
   3   -138.0708686  0.682776E-06  0.300E-03    2.34       3.7  T
   4   -138.0708694 -0.820667E-06  0.685E-04    2.34      16.3  T
   5   -138.0708695 -0.144778E-07  0.391E-04    2.34      28.6  T
     SCC iter.                  ...        0 min,  0.135 sec
     gradient                   ...        0 min,  0.130 sec
 * total energy  :  -136.1499712 Eh     change       -0.1002345E-03 Eh
   gradient norm :     0.0065489 Eh/α   predicted    -0.5658329E-04 ( -43.55%)
   displ. norm   :     0.5187599 α      lambda       -0.3433739E-03
   maximum displ.:     0.2396479 α      in ANC's #4, #10, #7, ...

........................................................................
.............................. CYCLE   25 ..............................
........................................................................
   1   -138.0681654 -0.138068E+03  0.902E-02    2.33       0.0  T
   2   -138.0681689 -0.348173E-05  0.532E-02    2.33       1.0  T
   3   -138.0681618  0.702189E-05  0.944E-03    2.33       1.2  T
   4   -138.0681702 -0.836931E-05  0.214E-03    2.33       5.2  T
   5   -138.0681704 -0.148076E-06  0.121E-03    2.33       9.2  T
   6   -138.0681704 -0.353558E-07  0.552E-04    2.33      20.3  T
   7   -138.0681704 -0.884754E-08  0.177E-04    2.33      63.3  T
     SCC iter.                  ...        0 min,  0.184 sec
     gradient                   ...        0 min,  0.120 sec
 * total energy  :  -136.1502272 Eh     change       -0.2559382E-03 Eh
   gradient norm :     0.0043919 Eh/α   predicted    -0.2178920E-03 ( -14.87%)
   displ. norm   :     0.4310576 α      lambda       -0.2019168E-03
   maximum displ.:     0.2127779 α      in ANC's #4, #10, #7, ...

........................................................................
.............................. CYCLE   26 ..............................
........................................................................
   1   -138.0666992 -0.138067E+03  0.707E-02    2.33       0.0  T
   2   -138.0667012 -0.195066E-05  0.417E-02    2.33       1.0  T
   3   -138.0666963  0.489782E-05  0.780E-03    2.33       1.4  T
   4   -138.0667020 -0.574091E-05  0.170E-03    2.33       6.6  T
   5   -138.0667021 -0.113189E-06  0.930E-04    2.33      12.0  T
   6   -138.0667022 -0.172736E-07  0.405E-04    2.33      27.6  T
     SCC iter.                  ...        0 min,  0.163 sec
     gradient                   ...        0 min,  0.158 sec
 * total energy  :  -136.1503748 Eh     change       -0.1475937E-03 Eh
   gradient norm :     0.0050569 Eh/α   predicted    -0.1199172E-03 ( -18.75%)
   displ. norm   :     0.3195765 α      lambda       -0.1647950E-03
   maximum displ.:     0.1705366 α      in ANC's #4, #7, #10, ...

........................................................................
.............................. CYCLE   27 ..............................
........................................................................
   1   -138.0684942 -0.138068E+03  0.489E-02    2.33       0.0  T
   2   -138.0684954 -0.123415E-05  0.288E-02    2.33       1.0  T
   3   -138.0684926  0.280948E-05  0.583E-03    2.33       1.9  T
   4   -138.0684957 -0.315755E-05  0.146E-03    2.33       7.7  T
   5   -138.0684959 -0.133435E-06  0.628E-04    2.33      17.8  T
   6   -138.0684959 -0.676687E-08  0.305E-04    2.33      36.7  T
     SCC iter.                  ...        0 min,  0.173 sec
     gradient                   ...        0 min,  0.125 sec
 * total energy  :  -136.1505084 Eh     change       -0.1336318E-03 Eh
   gradient norm :     0.0045068 Eh/α   predicted    -0.9081443E-04 ( -32.04%)
   displ. norm   :     0.4277823 α      lambda       -0.2068116E-03
   maximum displ.:     0.2327534 α      in ANC's #4, #7, #24, ...

........................................................................
.............................. CYCLE   28 ..............................
........................................................................
   1   -138.0696685 -0.138070E+03  0.631E-02    2.33       0.0  T
   2   -138.0696698 -0.131964E-05  0.373E-02    2.33       1.0  T
   3   -138.0696648  0.505186E-05  0.762E-03    2.33       1.5  T
   4   -138.0696705 -0.570371E-05  0.152E-03    2.33       7.4  T
   5   -138.0696706 -0.102436E-06  0.749E-04    2.33      14.9  T
   6   -138.0696706 -0.103539E-07  0.316E-04    2.33      35.4  T
     SCC iter.                  ...        0 min,  0.158 sec
     gradient                   ...        0 min,  0.129 sec
 * total energy  :  -136.1506809 Eh     change       -0.1725070E-03 Eh
   gradient norm :     0.0042959 Eh/α   predicted    -0.1223735E-03 ( -29.06%)
   displ. norm   :     0.4765890 α      lambda       -0.2489256E-03
   maximum displ.:     0.2733247 α      in ANC's #4, #7, #24, ...

........................................................................
.............................. CYCLE   29 ..............................
........................................................................
   1   -138.0719466 -0.138072E+03  0.716E-02    2.34       0.0  T
   2   -138.0719493 -0.265059E-05  0.423E-02    2.34       1.0  T
   3   -138.0719421  0.718368E-05  0.929E-03    2.34       1.2  T
   4   -138.0719502 -0.811231E-05  0.197E-03    2.34       5.7  T
   5   -138.0719504 -0.207242E-06  0.938E-04    2.34      11.9  T
   6   -138.0719504 -0.213688E-07  0.460E-04    2.34      24.3  T
     SCC iter.                  ...        0 min,  0.163 sec
     gradient                   ...        0 min,  0.155 sec
 * total energy  :  -136.1508744 Eh     change       -0.1935375E-03 Eh
   gradient norm :     0.0035271 Eh/α   predicted    -0.1527333E-03 ( -21.08%)
   displ. norm   :     0.5805202 α      lambda       -0.2168506E-03
   maximum displ.:     0.3308933 α      in ANC's #4, #7, #24, ...

........................................................................
.............................. CYCLE   30 ..............................
........................................................................
   1   -138.0678148 -0.138068E+03  0.878E-02    2.34       0.0  T
   2   -138.0678175 -0.269934E-05  0.519E-02    2.34       1.0  T
   3   -138.0678111  0.638819E-05  0.890E-03    2.34       1.3  T
   4   -138.0678186 -0.749833E-05  0.209E-03    2.34       5.3  T
   5   -138.0678187 -0.149885E-06  0.113E-03    2.34       9.9  T
   6   -138.0678188 -0.315519E-07  0.491E-04    2.34      22.8  T
   7   -138.0678188 -0.704648E-08  0.153E-04    2.34      73.1  T
     SCC iter.                  ...        0 min,  0.190 sec
     gradient                   ...        0 min,  0.146 sec
 * total energy  :  -136.1510088 Eh     change       -0.1343809E-03 Eh
   gradient norm :     0.0069858 Eh/α   predicted    -0.1449814E-03 (   7.89%)
   displ. norm   :     0.3744166 α      lambda       -0.2783437E-03
   maximum displ.:     0.2201100 α      in ANC's #4, #7, #24, ...

........................................................................
.............................. CYCLE   31 ..............................
........................................................................
   1   -138.0709662 -0.138071E+03  0.647E-02    2.35       0.0  T
   2   -138.0709710 -0.481438E-05  0.380E-02    2.35       1.0  T
   3   -138.0709669  0.412640E-05  0.821E-03    2.35       1.4  T
   4   -138.0709719 -0.501029E-05  0.205E-03    2.35       5.5  T
   5   -138.0709721 -0.230694E-06  0.100E-03    2.35      11.2  T
   6   -138.0709721 -0.153137E-07  0.590E-04    2.35      19.0  T
   7   -138.0709721 -0.123366E-07  0.174E-04    2.35      64.1  T
     SCC iter.                  ...        0 min,  0.189 sec
     gradient                   ...        0 min,  0.137 sec
 * total energy  :  -136.1511778 Eh     change       -0.1689843E-03 Eh
   gradient norm :     0.0043693 Eh/α   predicted    -0.1586864E-03 (  -6.09%)
   displ. norm   :     0.4316101 α      lambda       -0.1526313E-03
   maximum displ.:     0.2588476 α      in ANC's #4, #7, #24, ...

........................................................................
.............................. CYCLE   32 ..............................
........................................................................
   1   -138.0685481 -0.138069E+03  0.669E-02    2.35       0.0  T
   2   -138.0685497 -0.152559E-05  0.395E-02    2.35       1.0  T
   3   -138.0685472  0.241170E-05  0.575E-03    2.35       1.9  T
   4   -138.0685503 -0.302364E-05  0.136E-03    2.35       8.2  T
   5   -138.0685503 -0.365815E-07  0.776E-04    2.35      14.4  T
   6   -138.0685503 -0.993361E-08  0.389E-04    2.35      28.8  T
     SCC iter.                  ...        0 min,  0.161 sec
     gradient                   ...        0 min,  0.146 sec
 * total energy  :  -136.1512977 Eh     change       -0.1199023E-03 Eh
   gradient norm :     0.0045057 Eh/α   predicted    -0.9053273E-04 ( -24.49%)
   displ. norm   :     0.3803103 α      lambda       -0.1944515E-03
   maximum displ.:     0.2310534 α      in ANC's #4, #7, #24, ...

........................................................................
.............................. CYCLE   33 ..............................
........................................................................
   1   -138.0699503 -0.138070E+03  0.627E-02    2.36       0.0  T
   2   -138.0699520 -0.176376E-05  0.370E-02    2.36       1.0  T
   3   -138.0699468  0.520977E-05  0.837E-03    2.36       1.3  T
   4   -138.0699529 -0.607780E-05  0.150E-03    2.36       7.4  T
   5   -138.0699530 -0.687933E-07  0.832E-04    2.36      13.4  T
   6   -138.0699530 -0.130943E-07  0.393E-04    2.36      28.5  T
     SCC iter.                  ...        0 min,  0.160 sec
     gradient                   ...        0 min,  0.118 sec
 * total energy  :  -136.1514234 Eh     change       -0.1257401E-03 Eh
   gradient norm :     0.0039323 Eh/α   predicted    -0.1112885E-03 ( -11.49%)
   displ. norm   :     0.3680575 α      lambda       -0.9938667E-04
   maximum displ.:     0.2319043 α      in ANC's #4, #7, #24, ...

........................................................................
.............................. CYCLE   34 ..............................
........................................................................
   1   -138.0685174 -0.138069E+03  0.595E-02    2.36       0.0  T
   2   -138.0685185 -0.110374E-05  0.351E-02    2.36       1.0  T
   3   -138.0685145  0.400414E-05  0.719E-03    2.36       1.6  T
   4   -138.0685192 -0.465530E-05  0.121E-03    2.36       9.3  T
   5   -138.0685192 -0.260791E-07  0.724E-04    2.36      15.4  T
   6   -138.0685192 -0.113542E-07  0.297E-04    2.36      37.7  T
     SCC iter.                  ...        0 min,  0.161 sec
     gradient                   ...        0 min,  0.127 sec
 * total energy  :  -136.1514906 Eh     change       -0.6719936E-04 Eh
   gradient norm :     0.0043214 Eh/α   predicted    -0.5642943E-04 ( -16.03%)
   displ. norm   :     0.2795755 α      lambda       -0.1034082E-03
   maximum displ.:     0.1810393 α      in ANC's #4, #7, #3, ...

........................................................................
.............................. CYCLE   35 ..............................
........................................................................
   1   -138.0703214 -0.138070E+03  0.477E-02    2.35       0.0  T
   2   -138.0703227 -0.127430E-05  0.281E-02    2.35       1.0  T
   3   -138.0703193  0.339126E-05  0.677E-03    2.35       1.7  T
   4   -138.0703231 -0.385302E-05  0.132E-03    2.35       8.5  T
   5   -138.0703232 -0.878069E-07  0.573E-04    2.35      19.5  T
   6   -138.0703232 -0.395309E-08  0.299E-04    2.35      37.5  T
     SCC iter.                  ...        0 min,  0.161 sec
     gradient                   ...        0 min,  0.152 sec
 * total energy  :  -136.1515636 Eh     change       -0.7300570E-04 Eh
   gradient norm :     0.0030010 Eh/α   predicted    -0.5574946E-04 ( -23.64%)
   displ. norm   :     0.3177259 α      lambda       -0.1059225E-03
   maximum displ.:     0.2101364 α      in ANC's #4, #7, #3, ...

........................................................................
.............................. CYCLE   36 ..............................
........................................................................
   1   -138.0719340 -0.138072E+03  0.538E-02    2.35       0.0  T
   2   -138.0719353 -0.124113E-05  0.317E-02    2.35       1.0  T
   3   -138.0719328  0.250885E-05  0.586E-03    2.35       1.9  T
   4   -138.0719357 -0.289830E-05  0.124E-03    2.35       9.0  T
   5   -138.0719357 -0.759784E-07  0.613E-04    2.35      18.2  T
   6   -138.0719357 -0.532725E-08  0.311E-04    2.35      36.0  T
     SCC iter.                  ...        0 min,  0.164 sec
     gradient                   ...        0 min,  0.143 sec
 * total energy  :  -136.1516416 Eh     change       -0.7797565E-04 Eh
   gradient norm :     0.0034841 Eh/α   predicted    -0.5830815E-04 ( -25.22%)
   displ. norm   :     0.4813138 α      lambda       -0.1401352E-03
   maximum displ.:     0.3179972 α      in ANC's #4, #7, #3, ...

........................................................................
.............................. CYCLE   37 ..............................
........................................................................
   1   -138.0697684 -0.138070E+03  0.766E-02    2.34       0.0  T
   2   -138.0697701 -0.173581E-05  0.451E-02    2.34       1.0  T
   3   -138.0697673  0.286311E-05  0.652E-03    2.34       1.7  T
   4   -138.0697708 -0.356440E-05  0.131E-03    2.34       8.5  T
   5   -138.0697708 -0.309162E-07  0.700E-04    2.34      16.0  T
   6   -138.0697709 -0.582071E-08  0.289E-04    2.34      38.7  T
     SCC iter.                  ...        0 min,  0.159 sec
     gradient                   ...        0 min,  0.144 sec
 * total energy  :  -136.1517317 Eh     change       -0.9011565E-04 Eh
   gradient norm :     0.0051053 Eh/α   predicted    -0.8630305E-04 (  -4.23%)
   displ. norm   :     0.3055359 α      lambda       -0.1143549E-03
   maximum displ.:     0.2003184 α      in ANC's #4, #7, #10, ...

........................................................................
.............................. CYCLE   38 ..............................
........................................................................
   1   -138.0716911 -0.138072E+03  0.487E-02    2.33       0.0  T
   2   -138.0716925 -0.142069E-05  0.286E-02    2.33       1.0  T
   3   -138.0716909  0.156568E-05  0.499E-03    2.33       2.2  T
   4   -138.0716928 -0.191907E-05  0.111E-03    2.33      10.1  T
   5   -138.0716929 -0.552745E-07  0.521E-04    2.33      21.5  T
   6   -138.0716929 -0.214874E-08  0.279E-04    2.33      40.1  T
     SCC iter.                  ...        0 min,  0.161 sec
     gradient                   ...        0 min,  0.151 sec
 * total energy  :  -136.1518121 Eh     change       -0.8034382E-04 Eh
   gradient norm :     0.0041426 Eh/α   predicted    -0.6251823E-04 ( -22.19%)
   displ. norm   :     0.4227312 α      lambda       -0.9007006E-04
   maximum displ.:     0.2874899 α      in ANC's #4, #7, #3, ...

........................................................................
.............................. CYCLE   39 ..............................
........................................................................
   1   -138.0698425 -0.138070E+03  0.650E-02    2.33       0.0  T
   2   -138.0698440 -0.153527E-05  0.383E-02    2.33       1.0  T
   3   -138.0698411  0.288231E-05  0.674E-03    2.32       1.7  T
   4   -138.0698445 -0.343456E-05  0.128E-03    2.32       8.7  T
   5   -138.0698446 -0.565892E-07  0.656E-04    2.32      17.1  T
   6   -138.0698446 -0.494765E-08  0.349E-04    2.32      32.1  T
     SCC iter.                  ...        0 min,  0.162 sec
     gradient                   ...        0 min,  0.152 sec
 * total energy  :  -136.1518798 Eh     change       -0.6774776E-04 Eh
   gradient norm :     0.0032795 Eh/α   predicted    -0.5308627E-04 ( -21.64%)
   displ. norm   :     0.3572452 α      lambda       -0.8177774E-04
   maximum displ.:     0.2442095 α      in ANC's #4, #7, #10, ...

........................................................................
.............................. CYCLE   40 ..............................
........................................................................
   1   -138.0708156 -0.138071E+03  0.543E-02    2.32       0.0  T
   2   -138.0708170 -0.138441E-05  0.319E-02    2.32       1.0  T
   3   -138.0708150  0.199081E-05  0.576E-03    2.32       1.9  T
   4   -138.0708174 -0.240040E-05  0.115E-03    2.32       9.7  T
   5   -138.0708175 -0.554572E-07  0.558E-04    2.32      20.0  T
   6   -138.0708175 -0.250506E-08  0.315E-04    2.32      35.5  T
     SCC iter.                  ...        0 min,  0.160 sec
     gradient                   ...        0 min,  0.131 sec
 * total energy  :  -136.1519366 Eh     change       -0.5675663E-04 Eh
   gradient norm :     0.0026626 Eh/α   predicted    -0.4611094E-04 ( -18.76%)
   displ. norm   :     0.3628001 α      lambda       -0.5025567E-04
   maximum displ.:     0.2483614 α      in ANC's #4, #7, #10, ...

........................................................................
.............................. CYCLE   41 ..............................
........................................................................
   1   -138.0693263 -0.138069E+03  0.551E-02    2.32       0.0  T
   2   -138.0693272 -0.835910E-06  0.325E-02    2.31       1.0  T
   3   -138.0693255  0.160471E-05  0.496E-03    2.31       2.3  T
   4   -138.0693275 -0.197773E-05  0.890E-04    2.31      12.6  T
   5   -138.0693275 -0.118075E-07  0.497E-04    2.31      22.5  T
   6   -138.0693275 -0.326270E-08  0.244E-04    2.31      45.9  T
     SCC iter.                  ...        0 min,  0.161 sec
     gradient                   ...        0 min,  0.160 sec
 * total energy  :  -136.1519729 Eh     change       -0.3628510E-04 Eh
   gradient norm :     0.0029244 Eh/α   predicted    -0.2843777E-04 ( -21.63%)
   displ. norm   :     0.3180392 α      lambda       -0.5305812E-04
   maximum displ.:     0.2170606 α      in ANC's #4, #7, #10, ...

........................................................................
.............................. CYCLE   42 ..............................
........................................................................
   1   -138.0709366 -0.138071E+03  0.482E-02    2.31       0.0  T
   2   -138.0709374 -0.733881E-06  0.284E-02    2.31       1.0  T
   3   -138.0709353  0.208324E-05  0.510E-03    2.31       2.2  T
   4   -138.0709377 -0.240355E-05  0.109E-03    2.31      10.3  T
   5   -138.0709378 -0.538364E-07  0.579E-04    2.31      19.3  T
   6   -138.0709378 -0.667026E-08  0.276E-04    2.31      40.4  T
     SCC iter.                  ...        0 min,  0.162 sec
     gradient                   ...        0 min,  0.138 sec
 * total energy  :  -136.1520095 Eh     change       -0.3661343E-04 Eh
   gradient norm :     0.0027530 Eh/α   predicted    -0.2921360E-04 ( -20.21%)
   displ. norm   :     0.3208553 α      lambda       -0.3944700E-04
   maximum displ.:     0.2195867 α      in ANC's #4, #7, #8, ...
 * RMSD in coord.:     0.8148372 α      energy gain  -0.2484540E-02 Eh

generating ANC from model Hessian ...
Using Lindh-Hessian (1995)
 Shifting diagonal of input Hessian by    9.8721931995071656E-003
 Lowest  eigenvalues of input Hessian
    0.000000    0.000000    0.000000    0.000000    0.000000    0.000000
    0.010000    0.010117    0.010162    0.010189    0.010212    0.010268
    0.010307    0.010398    0.010492    0.011515    0.011711    0.011882
 Highest eigenvalues
    2.107662    2.149205    2.157311    2.331746    2.348720    2.361444


........................................................................
.............................. CYCLE   43 ..............................
........................................................................
   1   -138.0702936 -0.138070E+03  0.487E-02    2.31       0.0  T
   2   -138.0702944 -0.784144E-06  0.286E-02    2.31       1.0  T
   3   -138.0702933  0.113339E-05  0.396E-03    2.31       2.8  T
   4   -138.0702947 -0.138435E-05  0.102E-03    2.31      11.0  T
   5   -138.0702947 -0.432979E-07  0.551E-04    2.31      20.3  T
   6   -138.0702947 -0.572038E-08  0.287E-04    2.31      38.9  T
     SCC iter.                  ...        0 min,  0.164 sec
     gradient                   ...        0 min,  0.142 sec
 * total energy  :  -136.1520380 Eh     change       -0.2851355E-04 Eh
   gradient norm :     0.0023213 Eh/α   predicted     0.0000000E+00 (-100.00%)
   displ. norm   :     0.0280611 α      lambda       -0.1900451E-04
   maximum displ.:     0.0127101 α      in ANC's #8, #3, #24, ...

........................................................................
.............................. CYCLE   44 ..............................
........................................................................
   1   -138.0715336 -0.138072E+03  0.753E-03    2.32       0.0  T
   2   -138.0715337 -0.708293E-07  0.444E-03    2.32       2.5  T
   3   -138.0715336  0.688690E-07  0.117E-03    2.32       9.6  T
   4   -138.0715337 -0.826892E-07  0.248E-04    2.32      45.0  T
   5   -138.0715337 -0.313682E-08  0.116E-04    2.32      96.4  T
     SCC iter.                  ...        0 min,  0.145 sec
     gradient                   ...        0 min,  0.135 sec
 * total energy  :  -136.1520533 Eh     change       -0.1533950E-04 Eh
   gradient norm :     0.0011471 Eh/α   predicted    -0.9515365E-05 ( -37.97%)
   displ. norm   :     0.1206473 α      lambda       -0.3125763E-04
   maximum displ.:     0.0571710 α      in ANC's #8, #3, #10, ...

........................................................................
.............................. CYCLE   45 ..............................
........................................................................
   1   -138.0736592 -0.138074E+03  0.268E-02    2.32       0.0  T
   2   -138.0736598 -0.610001E-06  0.158E-02    2.32       1.0  T
   3   -138.0736592  0.578450E-06  0.342E-03    2.32       3.3  T
   4   -138.0736599 -0.707472E-06  0.766E-04    2.32      14.6  T
   5   -138.0736600 -0.250872E-07  0.372E-04    2.32      30.0  T
     SCC iter.                  ...        0 min,  0.140 sec
     gradient                   ...        0 min,  0.156 sec
 * total energy  :  -136.1520781 Eh     change       -0.2476647E-04 Eh
   gradient norm :     0.0023041 Eh/α   predicted    -0.1574238E-04 ( -36.44%)
   displ. norm   :     0.0483308 α      lambda       -0.1363952E-04
   maximum displ.:     0.0238151 α      in ANC's #8, #3, #10, ...

........................................................................
.............................. CYCLE   46 ..............................
........................................................................
   1   -138.0731849 -0.138073E+03  0.854E-03    2.32       0.0  T
   2   -138.0731849 -0.338203E-07  0.505E-03    2.32       2.2  T
   3   -138.0731849  0.737184E-07  0.103E-03    2.32      10.9  T
   4   -138.0731849 -0.860295E-07  0.232E-04    2.32      48.1  T
   5   -138.0731849 -0.219569E-08  0.121E-04    2.32      92.6  T
     SCC iter.                  ...        0 min,  0.132 sec
     gradient                   ...        0 min,  0.140 sec
 * total energy  :  -136.1520906 Eh     change       -0.1249304E-04 Eh
   gradient norm :     0.0019916 Eh/α   predicted    -0.6838316E-05 ( -45.26%)
   displ. norm   :     0.2880173 α      lambda       -0.5167014E-04
   maximum displ.:     0.1380171 α      in ANC's #8, #3, #10, ...

........................................................................
.............................. CYCLE   47 ..............................
........................................................................
   1   -138.0698783 -0.138070E+03  0.477E-02    2.32       0.0  T
   2   -138.0698792 -0.874043E-06  0.282E-02    2.32       1.0  T
   3   -138.0698760  0.313185E-05  0.632E-03    2.32       1.8  T
   4   -138.0698796 -0.354627E-05  0.124E-03    2.32       9.0  T
   5   -138.0698797 -0.642107E-07  0.621E-04    2.32      18.0  T
   6   -138.0698797 -0.362436E-08  0.292E-04    2.32      38.3  T
     SCC iter.                  ...        0 min,  0.163 sec
     gradient                   ...        0 min,  0.152 sec
 * total energy  :  -136.1521362 Eh     change       -0.4565109E-04 Eh
   gradient norm :     0.0024049 Eh/α   predicted    -0.2678863E-04 ( -41.32%)
   displ. norm   :     0.1919240 α      lambda        0.3275889E-04
   maximum displ.:     0.0920119 α      in ANC's #8, #3, #10, ...

........................................................................
.............................. CYCLE   48 ..............................
........................................................................
   1   -138.0671615 -0.138067E+03  0.319E-02    2.32       0.0  T
   2   -138.0671620 -0.432891E-06  0.188E-02    2.32       1.0  T
   3   -138.0671604  0.158123E-05  0.447E-03    2.32       2.5  T
   4   -138.0671621 -0.177964E-05  0.874E-04    2.32      12.8  T
   5   -138.0671622 -0.349210E-07  0.421E-04    2.32      26.5  T
   6   -138.0671622 -0.149404E-08  0.198E-04    2.32      56.3  T
     SCC iter.                  ...        0 min,  0.162 sec
     gradient                   ...        0 min,  0.138 sec
 * total energy  :  -136.1521262 Eh     change        0.1001331E-04 Eh
   gradient norm :     0.0048553 Eh/α   predicted     0.1698228E-04 (  69.60%)
   displ. norm   :     0.0682339 α      lambda       -0.4224910E-04
   maximum displ.:     0.0303463 α      in ANC's #8, #3, #10, ...

........................................................................
.............................. CYCLE   49 ..............................
........................................................................
   1   -138.0698336 -0.138070E+03  0.145E-02    2.32       0.0  T
   2   -138.0698338 -0.208540E-06  0.856E-03    2.32       1.3  T
   3   -138.0698331  0.699964E-06  0.310E-03    2.32       3.6  T
   4   -138.0698339 -0.792009E-06  0.578E-04    2.32      19.4  T
   5   -138.0698340 -0.174178E-07  0.261E-04    2.32      42.8  T
     SCC iter.                  ...        0 min,  0.134 sec
     gradient                   ...        0 min,  0.130 sec
 * total energy  :  -136.1521546 Eh     change       -0.2833418E-04 Eh
   gradient norm :     0.0023713 Eh/α   predicted    -0.2122294E-04 ( -25.10%)
   displ. norm   :     0.0636965 α      lambda       -0.2628386E-04
   maximum displ.:     0.0342176 α      in ANC's #3, #8, #7, ...

........................................................................
.............................. CYCLE   50 ..............................
........................................................................
   1   -138.0716006 -0.138072E+03  0.907E-03    2.32       0.0  T
   2   -138.0716007 -0.953026E-07  0.535E-03    2.32       2.1  T
   3   -138.0716004  0.244191E-06  0.191E-03    2.32       5.9  T
   4   -138.0716007 -0.282744E-06  0.366E-04    2.32      30.6  T
   5   -138.0716007 -0.771001E-08  0.163E-04    2.32      68.4  T
     SCC iter.                  ...        0 min,  0.134 sec
     gradient                   ...        0 min,  0.128 sec
 * total energy  :  -136.1521750 Eh     change       -0.2043637E-04 Eh
   gradient norm :     0.0009031 Eh/α   predicted    -0.1320668E-04 ( -35.38%)
   displ. norm   :     0.2486243 α      lambda       -0.3079100E-04
   maximum displ.:     0.1321207 α      in ANC's #3, #8, #7, ...

........................................................................
.............................. CYCLE   51 ..............................
........................................................................
   1   -138.0734784 -0.138073E+03  0.336E-02    2.33       0.0  T
   2   -138.0734788 -0.392008E-06  0.198E-02    2.33       1.0  T
   3   -138.0734778  0.101952E-05  0.387E-03    2.33       2.9  T
   4   -138.0734790 -0.119964E-05  0.721E-04    2.33      15.5  T
   5   -138.0734790 -0.210531E-07  0.392E-04    2.33      28.6  T
   6   -138.0734790 -0.254187E-08  0.188E-04    2.33      59.6  T
     SCC iter.                  ...        0 min,  0.162 sec
     gradient                   ...        0 min,  0.150 sec
 * total energy  :  -136.1522056 Eh     change       -0.3059629E-04 Eh
   gradient norm :     0.0018383 Eh/α   predicted    -0.1581946E-04 ( -48.30%)
   displ. norm   :     0.2515492 α      lambda       -0.2051160E-04
   maximum displ.:     0.1323496 α      in ANC's #3, #8, #7, ...

........................................................................
.............................. CYCLE   52 ..............................
........................................................................
   1   -138.0724716 -0.138072E+03  0.359E-02    2.33       0.0  T
   2   -138.0724719 -0.282547E-06  0.211E-02    2.33       1.0  T
   3   -138.0724717  0.263334E-06  0.219E-03    2.33       5.1  T
   4   -138.0724720 -0.364354E-06  0.583E-04    2.33      19.2  T
   5   -138.0724720 -0.746579E-08  0.338E-04    2.33      33.1  T
     SCC iter.                  ...        0 min,  0.135 sec
     gradient                   ...        0 min,  0.157 sec
 * total energy  :  -136.1522314 Eh     change       -0.2576033E-04 Eh
   gradient norm :     0.0013091 Eh/α   predicted    -0.1055031E-04 ( -59.04%)
   displ. norm   :     0.2608363 α      lambda       -0.2201650E-04
   maximum displ.:     0.1413050 α      in ANC's #3, #8, #7, ...

........................................................................
.............................. CYCLE   53 ..............................
........................................................................
   1   -138.0714566 -0.138071E+03  0.379E-02    2.32       0.0  T
   2   -138.0714569 -0.290062E-06  0.223E-02    2.32       1.0  T
   3   -138.0714564  0.523361E-06  0.276E-03    2.32       4.0  T
   4   -138.0714570 -0.652963E-06  0.573E-04    2.32      19.5  T
   5   -138.0714570 -0.604780E-08  0.335E-04    2.32      33.4  T
     SCC iter.                  ...        0 min,  0.136 sec
     gradient                   ...        0 min,  0.133 sec
 * total energy  :  -136.1522580 Eh     change       -0.2666710E-04 Eh
   gradient norm :     0.0008934 Eh/α   predicted    -0.1134332E-04 ( -57.46%)
   displ. norm   :     0.3001536 α      lambda       -0.2470846E-04
   maximum displ.:     0.1661143 α      in ANC's #3, #8, #7, ...

........................................................................
.............................. CYCLE   54 ..............................
........................................................................
   1   -138.0706139 -0.138071E+03  0.442E-02    2.32       0.0  T
   2   -138.0706143 -0.415407E-06  0.260E-02    2.32       1.0  T
   3   -138.0706134  0.958256E-06  0.362E-03    2.32       3.1  T
   4   -138.0706146 -0.116344E-05  0.596E-04    2.32      18.7  T
   5   -138.0706146 -0.470303E-08  0.344E-04    2.32      32.5  T
   6   -138.0706146 -0.149015E-08  0.153E-04    2.32      72.9  T
     SCC iter.                  ...        0 min,  0.161 sec
     gradient                   ...        0 min,  0.134 sec
 * total energy  :  -136.1522894 Eh     change       -0.3141054E-04 Eh
   gradient norm :     0.0015065 Eh/α   predicted    -0.1286123E-04 ( -59.05%)
   displ. norm   :     0.3968736 α      lambda       -0.3581586E-04
   maximum displ.:     0.2221324 α      in ANC's #3, #1, #7, ...

........................................................................
.............................. CYCLE   55 ..............................
........................................................................
   1   -138.0702264 -0.138070E+03  0.599E-02    2.32       0.0  T
   2   -138.0702273 -0.951462E-06  0.351E-02    2.32       1.0  T
   3   -138.0702246  0.271047E-05  0.605E-03    2.32       1.8  T
   4   -138.0702278 -0.320178E-05  0.844E-04    2.32      13.2  T
   5   -138.0702278 -0.129650E-07  0.503E-04    2.32      22.2  T
   6   -138.0702278 -0.524673E-08  0.243E-04    2.32      46.0  T
     SCC iter.                  ...        0 min,  0.159 sec
     gradient                   ...        0 min,  0.148 sec
 * total energy  :  -136.1523336 Eh     change       -0.4413862E-04 Eh
   gradient norm :     0.0022387 Eh/α   predicted    -0.1916439E-04 ( -56.58%)
   displ. norm   :     0.3287332 α      lambda       -0.4391675E-04
   maximum displ.:     0.1853242 α      in ANC's #3, #1, #7, ...

........................................................................
.............................. CYCLE   56 ..............................
........................................................................
   1   -138.0701213 -0.138070E+03  0.503E-02    2.32       0.0  T
   2   -138.0701219 -0.687150E-06  0.295E-02    2.31       1.0  T
   3   -138.0701202  0.177846E-05  0.497E-03    2.31       2.2  T
   4   -138.0701223 -0.211576E-05  0.692E-04    2.31      16.2  T
   5   -138.0701223 -0.790703E-08  0.414E-04    2.31      27.0  T
   6   -138.0701223 -0.337849E-08  0.209E-04    2.31      53.4  T
     SCC iter.                  ...        0 min,  0.160 sec
     gradient                   ...        0 min,  0.132 sec
 * total energy  :  -136.1523714 Eh     change       -0.3785788E-04 Eh
   gradient norm :     0.0023544 Eh/α   predicted    -0.2433267E-04 ( -35.73%)
   displ. norm   :     0.4377620 α      lambda       -0.6035744E-04
   maximum displ.:     0.2477705 α      in ANC's #3, #5, #1, ...

........................................................................
.............................. CYCLE   57 ..............................
........................................................................
   1   -138.0704418 -0.138070E+03  0.679E-02    2.31       0.0  T
   2   -138.0704432 -0.136781E-05  0.398E-02    2.31       1.0  T
   3   -138.0704396  0.355347E-05  0.705E-03    2.31       1.6  T
   4   -138.0704438 -0.421943E-05  0.959E-04    2.31      11.7  T
   5   -138.0704438 -0.166897E-07  0.569E-04    2.31      19.7  T
   6   -138.0704438 -0.645858E-08  0.296E-04    2.31      37.7  T
     SCC iter.                  ...        0 min,  0.166 sec
     gradient                   ...        0 min,  0.161 sec
 * total energy  :  -136.1524206 Eh     change       -0.4918064E-04 Eh
   gradient norm :     0.0021884 Eh/α   predicted    -0.3596692E-04 ( -26.87%)
   displ. norm   :     0.4328351 α      lambda       -0.5419887E-04
   maximum displ.:     0.2473641 α      in ANC's #3, #5, #1, ...

........................................................................
.............................. CYCLE   58 ..............................
........................................................................
   1   -138.0709345 -0.138071E+03  0.670E-02    2.31       0.0  T
   2   -138.0709358 -0.130956E-05  0.392E-02    2.31       1.0  T
   3   -138.0709327  0.313612E-05  0.666E-03    2.31       1.7  T
   4   -138.0709364 -0.375047E-05  0.952E-04    2.31      11.7  T
   5   -138.0709364 -0.171192E-07  0.562E-04    2.31      19.9  T
   6   -138.0709364 -0.543153E-08  0.294E-04    2.31      38.0  T
     SCC iter.                  ...        0 min,  0.165 sec
     gradient                   ...        0 min,  0.124 sec
 * total energy  :  -136.1524658 Eh     change       -0.4517962E-04 Eh
   gradient norm :     0.0018251 Eh/α   predicted    -0.3217819E-04 ( -28.78%)
   displ. norm   :     0.6415557 α      lambda       -0.5309692E-04
   maximum displ.:     0.3714598 α      in ANC's #3, #5, #1, ...

........................................................................
.............................. CYCLE   59 ..............................
........................................................................
   1   -138.0715396 -0.138072E+03  0.982E-02    2.31       0.0  T
   2   -138.0715423 -0.265000E-05  0.575E-02    2.30       1.0  T
   3   -138.0715366  0.572810E-05  0.906E-03    2.30       1.2  T
   4   -138.0715435 -0.693167E-05  0.142E-03    2.30       7.9  T
   5   -138.0715435 -0.392548E-07  0.832E-04    2.30      13.4  T
   6   -138.0715435 -0.931493E-08  0.433E-04    2.30      25.8  T
     SCC iter.                  ...        0 min,  0.163 sec
     gradient                   ...        0 min,  0.140 sec
 * total energy  :  -136.1525270 Eh     change       -0.6122724E-04 Eh
   gradient norm :     0.0014938 Eh/α   predicted    -0.3140638E-04 ( -48.71%)
   displ. norm   :     0.5010153 α      lambda       -0.4599570E-04
   maximum displ.:     0.2962847 α      in ANC's #3, #5, #1, ...

........................................................................
.............................. CYCLE   60 ..............................
........................................................................
   1   -138.0720957 -0.138072E+03  0.743E-02    2.30       0.0  T
   2   -138.0720970 -0.131681E-05  0.436E-02    2.30       1.0  T
   3   -138.0720945  0.249932E-05  0.602E-03    2.30       1.9  T
   4   -138.0720976 -0.308410E-05  0.121E-03    2.30       9.2  T
   5   -138.0720977 -0.372991E-07  0.714E-04    2.30      15.7  T
   6   -138.0720977 -0.548130E-08  0.351E-04    2.30      31.9  T
     SCC iter.                  ...        0 min,  0.161 sec
     gradient                   ...        0 min,  0.149 sec
 * total energy  :  -136.1525865 Eh     change       -0.5951626E-04 Eh
   gradient norm :     0.0012682 Eh/α   predicted    -0.2556910E-04 ( -57.04%)
   displ. norm   :     0.7449271 α      lambda       -0.7365910E-04
   maximum displ.:     0.4454932 α      in ANC's #3, #5, #1, ...

........................................................................
.............................. CYCLE   61 ..............................
........................................................................
   1   -138.0709842 -0.138071E+03  0.109E-01    2.30       0.0  T
   2   -138.0709874 -0.321524E-05  0.639E-02    2.30       1.0  T
   3   -138.0709813  0.610110E-05  0.946E-03    2.30       1.2  T
   4   -138.0709887 -0.743194E-05  0.204E-03    2.30       5.5  T
   5   -138.0709888 -0.138908E-06  0.114E-03    2.30       9.8  T
   6   -138.0709889 -0.132423E-07  0.575E-04    2.30      19.4  T
   7   -138.0709889 -0.159764E-07  0.146E-04    2.30      76.4  T
     SCC iter.                  ...        0 min,  0.184 sec
     gradient                   ...        0 min,  0.136 sec
 * total energy  :  -136.1526783 Eh     change       -0.9174627E-04 Eh
   gradient norm :     0.0020951 Eh/α   predicted    -0.4591365E-04 ( -49.96%)
   displ. norm   :     0.4757241 α      lambda       -0.1165762E-03
   maximum displ.:     0.2718531 α      in ANC's #3, #5, #4, ...

........................................................................
.............................. CYCLE   62 ..............................
........................................................................
   1   -138.0756884 -0.138076E+03  0.683E-02    2.31       0.0  T
   2   -138.0756911 -0.263910E-05  0.402E-02    2.31       1.0  T
   3   -138.0756880  0.302959E-05  0.714E-03    2.31       1.6  T
   4   -138.0756917 -0.369796E-05  0.198E-03    2.31       5.7  T
   5   -138.0756919 -0.193507E-06  0.937E-04    2.31      11.9  T
   6   -138.0756919 -0.613031E-08  0.504E-04    2.31      22.2  T
     SCC iter.                  ...        0 min,  0.161 sec
     gradient                   ...        0 min,  0.126 sec
 * total energy  :  -136.1527355 Eh     change       -0.5718560E-04 Eh
   gradient norm :     0.0038444 Eh/α   predicted    -0.7148292E-04 (  25.00%)
   displ. norm   :     0.6143886 α      lambda       -0.1124587E-03
   maximum displ.:     0.3687231 α      in ANC's #3, #5, #1, ...

........................................................................
.............................. CYCLE   63 ..............................
........................................................................
   1   -138.0700250 -0.138070E+03  0.877E-02    2.31       0.0  T
   2   -138.0700287 -0.365566E-05  0.514E-02    2.31       1.0  T
   3   -138.0700224  0.623371E-05  0.989E-03    2.31       1.1  T
   4   -138.0700299 -0.749021E-05  0.181E-03    2.30       6.2  T
   5   -138.0700300 -0.120991E-06  0.101E-03    2.31      11.0  T
   6   -138.0700301 -0.208863E-07  0.537E-04    2.31      20.8  T
   7   -138.0700301 -0.969681E-08  0.176E-04    2.31      63.6  T
     SCC iter.                  ...        0 min,  0.199 sec
     gradient                   ...        0 min,  0.152 sec
 * total energy  :  -136.1528043 Eh     change       -0.6880681E-04 Eh
   gradient norm :     0.0030098 Eh/α   predicted    -0.7745461E-04 (  12.57%)
   displ. norm   :     0.2808059 α      lambda       -0.4741259E-04
   maximum displ.:     0.1656317 α      in ANC's #3, #5, #4, ...

........................................................................
.............................. CYCLE   64 ..............................
........................................................................
   1   -138.0699532 -0.138070E+03  0.386E-02    2.30       0.0  T
   2   -138.0699538 -0.521512E-06  0.227E-02    2.30       1.0  T
   3   -138.0699532  0.515317E-06  0.287E-03    2.30       3.9  T
   4   -138.0699539 -0.679073E-06  0.662E-04    2.30      16.9  T
   5   -138.0699539 -0.137642E-07  0.372E-04    2.30      30.1  T
     SCC iter.                  ...        0 min,  0.134 sec
     gradient                   ...        0 min,  0.148 sec
 * total energy  :  -136.1528435 Eh     change       -0.3921290E-04 Eh
   gradient norm :     0.0030045 Eh/α   predicted    -0.2557642E-04 ( -34.78%)
   displ. norm   :     0.3391873 α      lambda       -0.1113095E-03
   maximum displ.:     0.1831343 α      in ANC's #3, #4, #5, ...

[...]
       ...                                ...                  ...
       224                          0.7167414              19.5035
      -------------------------------------------------------------
                  HL-Gap            0.0845764 Eh            2.3014 eV
             Fermi-level           -0.3261197 Eh           -8.8742 eV

     #   Z          covCN         q      C6AA      α(0)
     1   6 C        2.870     0.144    24.855     8.172
     2   8 O        1.705    -0.268    18.436     5.797
     3   6 C        3.644     0.041    20.224     6.464
     4   6 C        2.917    -0.065    29.619     8.925
     5   6 C        2.921    -0.033    28.812     8.802
     6   6 C        2.918    -0.041    29.018     8.834
     7   6 C        2.923    -0.030    28.738     8.791
     8   6 C        2.974    -0.007    28.188     8.709
     9   6 C        3.830     0.047    19.763     6.325
    10   6 C        3.831     0.046    19.784     6.329
    11   6 C        2.971    -0.008    28.209     8.712
    12   6 C        2.923    -0.034    28.840     8.807
    13   6 C        2.918    -0.040    28.993     8.830
    14   6 C        2.921    -0.032    28.807     8.802
    15   6 C        2.918    -0.066    29.644     8.928
    16   6 C        2.869     0.148    24.780     8.160
    17   8 O        1.705    -0.267    18.424     5.795
    18   6 C        3.644     0.041    20.228     6.465
    19   7 N        2.757    -0.109    23.378     7.181
    20   6 C        2.764     0.257    22.673     7.798
    21   6 C        3.051     0.071    26.355     8.419
    22   6 C        3.022     0.008    27.816     8.651
    23   6 C        3.754    -0.117    22.806     6.810
    24   6 C        3.075    -0.018    28.369     8.733
    25   6 C        2.913    -0.030    28.753     8.793
    26   6 C        2.921    -0.035    28.866     8.811
    27   6 C        2.928    -0.029    28.728     8.790
    28   6 C        2.908    -0.052    29.299     8.876
    29   6 C        3.071     0.125    25.190     8.229
    30   8 O        1.717    -0.260    18.299     5.776
    31   8 O        0.861    -0.436    22.404     6.346
    32   6 C        3.746     0.077    19.365     6.277
    33   6 C        2.685     0.358    20.925     7.486
    34   8 O        1.658    -0.368    20.233     6.072
    35   8 O        0.856    -0.361    20.914     6.131
    36   7 N        2.760    -0.106    23.318     7.172
    37   6 C        2.764     0.266    22.511     7.770
    38   6 C        3.074     0.079    26.163     8.386
    39   6 C        3.024     0.005    27.874     8.660
    40   6 C        3.754    -0.115    22.766     6.804
    41   6 C        3.081    -0.018    28.373     8.732
    42   6 C        3.087     0.132    25.032     8.201
    43   6 C        2.908    -0.051    29.269     8.871
    44   6 C        2.927    -0.032    28.790     8.799
    45   6 C        2.921    -0.037    28.920     8.819
    46   6 C        2.912    -0.031    28.770     8.795
    47   8 O        1.718    -0.245    18.062     5.738
    48   8 O        0.860    -0.429    22.274     6.328
    49   1 H        0.924     0.043     2.407     2.426
    50   1 H        0.924     0.039     2.467     2.456
    51   1 H        0.925     0.061     2.191     2.315
    52   1 H        0.926     0.038     2.480     2.463
    53   1 H        0.926     0.036     2.506     2.476
    54   1 H        0.926     0.035     2.515     2.480
    55   1 H        0.926     0.034     2.531     2.488
    56   1 H        0.924     0.084     1.942     2.179
    57   1 H        0.924     0.083     1.949     2.183
    58   1 H        0.926     0.048     2.349     2.397
    59   1 H        0.926     0.039     2.465     2.455
    60   1 H        0.926     0.035     2.515     2.480
    61   1 H        0.926     0.036     2.500     2.472
    62   1 H        0.925     0.059     2.206     2.323
    63   1 H        0.924     0.037     2.495     2.470
    64   1 H        0.924     0.044     2.392     2.419
    65   1 H        0.925     0.088     1.902     2.157
    66   1 H        0.925     0.059     2.209     2.324
    67   1 H        0.925     0.059     2.209     2.324
    68   1 H        0.926     0.048     2.342     2.393
    69   1 H        0.926     0.045     2.388     2.416
    70   1 H        0.926     0.047     2.355     2.400
    71   1 H        0.926     0.048     2.349     2.397
    72   1 H        0.923     0.072     2.063     2.246
    73   1 H        0.804     0.344     0.604     1.220
    74   1 H        0.925     0.084     1.934     2.175
    75   1 H        0.925     0.058     2.224     2.332
    76   1 H        0.925     0.056     2.248     2.345
    77   1 H        0.926     0.040     2.451     2.448
    78   1 H        0.926     0.041     2.431     2.438
    79   1 H        0.926     0.040     2.451     2.448
    80   1 H        0.926     0.045     2.386     2.416

 Mol. C6AA /au·bohr⁶  :      82220.015590
 Mol. C8AA /au·bohr⁸  :    1997362.330372
 Mol. α(0) /au        :        448.861605


Wiberg/Mayer (AO) data.
largest (>0.10) Wiberg bond orders for each atom

 ---------------------------------------------------------------------------
     #   Z sym  total        # sym  WBO       # sym  WBO       # sym  WBO
 ---------------------------------------------------------------------------
     1   6 C    3.934 --     4 C    1.384     8 C    1.317     2 O    1.064
     2   8 O    2.238 --     1 C    1.064     3 C    0.985
     3   6 C    3.946 --     2 O    0.985    51 H    0.980    49 H    0.976
                            50 H    0.976
     4   6 C    3.987 --     5 C    1.430     1 C    1.384    52 H    0.966
                             7 C    0.101
     5   6 C    3.990 --     6 C    1.448     4 C    1.430    53 H    0.971
                             8 C    0.106
     6   6 C    3.991 --     5 C    1.448     7 C    1.419    54 H    0.971
     7   6 C    3.990 --     8 C    1.445     6 C    1.419    55 H    0.968
                             4 C    0.101
     8   6 C    3.983 --     7 C    1.445     1 C    1.317     9 C    0.990
                             5 C    0.106
     9   6 C    3.960 --     8 C    0.990    36 N    0.961    10 C    0.954
                            56 H    0.945
    10   6 C    3.956 --    11 C    0.989     9 C    0.954    19 N    0.951
                            57 H    0.946
    11   6 C    3.981 --    12 C    1.443    16 C    1.321    10 C    0.989
                            14 C    0.106
    12   6 C    3.989 --    11 C    1.443    13 C    1.421    58 H    0.965
                            15 C    0.102
    13   6 C    3.991 --    14 C    1.447    12 C    1.421    59 H    0.971
    14   6 C    3.990 --    13 C    1.447    15 C    1.432    60 H    0.971
                            11 C    0.106
    15   6 C    3.987 --    14 C    1.432    16 C    1.383    61 H    0.966
                            12 C    0.102
    16   6 C    3.934 --    15 C    1.383    11 C    1.321    17 O    1.062
    17   8 O    2.237 --    16 C    1.062    18 C    0.985
    18   6 C    3.947 --    17 O    0.985    62 H    0.980    64 H    0.976
                            63 H    0.975
    19   7 N    3.478 --    20 C    1.214    32 C    0.982    10 C    0.951
                            31 O    0.190
    20   6 C    3.958 --    31 O    1.623    19 N    1.214    21 C    1.029
    21   6 C    3.896 --    22 C    1.568    20 C    1.029    30 O    1.019
    22   6 C    3.982 --    21 C    1.568    24 C    1.175    23 C    1.042
    23   6 C    3.988 --    22 C    1.042    65 H    0.972    66 H    0.965
                            67 H    0.963
    24   6 C    3.985 --    25 C    1.333    29 C    1.284    22 C    1.175
    25   6 C    3.983 --    26 C    1.499    24 C    1.333    68 H    0.968
                            28 C    0.115
    26   6 C    3.991 --    25 C    1.499    27 C    1.386    69 H    0.970
    27   6 C    3.980 --    28 C    1.475    26 C    1.386    70 H    0.971
    28   6 C    3.987 --    27 C    1.475    29 C    1.363    71 H    0.965
                            25 C    0.115
    29   6 C    3.917 --    28 C    1.363    24 C    1.284    30 O    1.054
    30   8 O    2.356 --    29 C    1.054    21 C    1.019
    31   8 O    1.989 --    20 C    1.623    19 N    0.190
    32   6 C    3.965 --    36 N    0.997    19 N    0.982    72 H    0.936
                            33 C    0.885
    33   6 C    3.921 --    35 O    1.790    34 O    1.166    32 C    0.885
    34   8 O    2.223 --    33 C    1.166    73 H    0.817    35 O    0.170
    35   8 O    2.086 --    33 C    1.790    34 O    0.170
    36   7 N    3.453 --    37 C    1.188    32 C    0.997     9 C    0.961
                            48 O    0.181
    37   6 C    3.956 --    48 O    1.642    36 N    1.188    38 C    1.033
    38   6 C    3.901 --    39 C    1.554    47 O    1.039    37 C    1.033
    39   6 C    3.983 --    38 C    1.554    41 C    1.184    40 C    1.041
    40   6 C    3.990 --    39 C    1.041    74 H    0.973    75 H    0.966
                            76 H    0.965
    41   6 C    3.985 --    46 C    1.332    42 C    1.274    39 C    1.184
    42   6 C    3.919 --    43 C    1.356    41 C    1.274    47 O    1.077
    43   6 C    3.987 --    44 C    1.479    42 C    1.356    77 H    0.966
                            46 C    0.114
    44   6 C    3.980 --    43 C    1.479    45 C    1.382    78 H    0.971
    45   6 C    3.990 --    46 C    1.501    44 C    1.382    79 H    0.971
    46   6 C    3.983 --    45 C    1.501    41 C    1.332    80 H    0.968
                            43 C    0.114
    47   8 O    2.362 --    42 C    1.077    38 C    1.039
    48   8 O    1.992 --    37 C    1.642    36 N    0.181
    49   1 H    0.998 --     3 C    0.976
    50   1 H    0.998 --     3 C    0.976
    51   1 H    0.996 --     3 C    0.980
    52   1 H    0.998 --     4 C    0.966
    53   1 H    0.998 --     5 C    0.971
    54   1 H    0.998 --     6 C    0.971
    55   1 H    0.998 --     7 C    0.968
    56   1 H    0.992 --     9 C    0.945
    57   1 H    0.992 --    10 C    0.946
    58   1 H    0.997 --    12 C    0.965
    59   1 H    0.998 --    13 C    0.971
    60   1 H    0.998 --    14 C    0.971
    61   1 H    0.998 --    15 C    0.966
    62   1 H    0.996 --    18 C    0.980
    63   1 H    0.999 --    18 C    0.975
    64   1 H    0.998 --    18 C    0.976
    65   1 H    0.992 --    23 C    0.972
    66   1 H    0.996 --    23 C    0.965
    67   1 H    0.996 --    23 C    0.963
    68   1 H    0.998 --    25 C    0.968
    69   1 H    0.998 --    26 C    0.970
    70   1 H    0.997 --    27 C    0.971
    71   1 H    0.997 --    28 C    0.965
    72   1 H    0.994 --    32 C    0.936
    73   1 H    0.882 --    34 O    0.817
    74   1 H    0.992 --    40 C    0.973
    75   1 H    0.996 --    40 C    0.966
    76   1 H    0.996 --    40 C    0.965
    77   1 H    0.998 --    43 C    0.966
    78   1 H    0.998 --    44 C    0.971
    79   1 H    0.998 --    45 C    0.971
    80   1 H    0.998 --    46 C    0.968
 ---------------------------------------------------------------------------

Topologies differ in total number of bonds
Writing topology from bond orders to xtbtopo.mol

molecular dipole:
                 x           y           z       tot (Debye)
 q only:       -1.447       0.348       0.671
   full:       -1.771       0.564       0.870       5.217
molecular quadrupole (traceless):
                xx          xy          yy          xz          yz          zz
 q only:       -6.714      -7.303      28.017       4.513      16.042     -21.303
  q+dip:      -11.076      -7.797      34.251       3.671      20.075     -23.175
   full:      -11.160      -7.723      31.670       3.243      18.411     -20.510

           -------------------------------------------------
          |                Geometry Summary                 |
           -------------------------------------------------

      molecular mass/u    :      644.6707140
   center of mass at/Å    :        0.0518430       0.1751586       0.0025749
  moments of inertia/u·Å² :        0.6243634E+04   0.8654369E+04   0.1213089E+05
rotational constants/cm⁻¹ :        0.2699971E-02   0.1947875E-02   0.1389645E-02

 * 81 selected distances

     #   Z          #   Z                                           value/Å
     1   6 C        2   8 O                                       1.3612224
     2   8 O        3   6 C                                       1.4047068
     1   6 C        4   6 C                                       1.3888552
     4   6 C        5   6 C                                       1.3855449
     5   6 C        6   6 C                                       1.3808747
     6   6 C        7   6 C                                       1.3852373
     1   6 C        8   6 C                                       1.4026085
     7   6 C        8   6 C                                       1.3816805
     9   6 C       10   6 C                                       1.5379355 (max)
    11   6 C       12   6 C                                       1.3831493
    12   6 C       13   6 C                                       1.3851235
    13   6 C       14   6 C                                       1.3804782
    14   6 C       15   6 C                                       1.3850645
    11   6 C       16   6 C                                       1.4032869
    15   6 C       16   6 C                                       1.3893325
    16   6 C       17   8 O                                       1.3623458
    17   8 O       18   6 C                                       1.4048913
    10   6 C       19   7 N                                       1.4622772
    19   7 N       20   6 C                                       1.3598422
    21   6 C       22   6 C                                       1.3699967
    22   6 C       23   6 C                                       1.4825516
    22   6 C       24   6 C                                       1.4350112
    24   6 C       25   6 C                                       1.3935982
    25   6 C       26   6 C                                       1.3777597
    26   6 C       27   6 C                                       1.3961913
    27   6 C       28   6 C                                       1.3810208
    24   6 C       29   6 C                                       1.4034966
    28   6 C       29   6 C                                       1.3841750
    21   6 C       30   8 O                                       1.3863797
    29   6 C       30   8 O                                       1.3598600
    20   6 C       31   8 O                                       1.2217085
    19   7 N       32   6 C                                       1.4442637
    33   6 C       34   8 O                                       1.3255950
    33   6 C       35   8 O                                       1.1957741
     9   6 C       36   7 N                                       1.4546220
    32   6 C       36   7 N                                       1.4376973
    36   7 N       37   6 C                                       1.3654067
    38   6 C       39   6 C                                       1.3705167
    39   6 C       40   6 C                                       1.4830989
    39   6 C       41   6 C                                       1.4329271
    41   6 C       42   6 C                                       1.4065177
    42   6 C       43   6 C                                       1.3854462
    43   6 C       44   6 C                                       1.3804196
    44   6 C       45   6 C                                       1.3965350
    41   6 C       46   6 C                                       1.3938334
    45   6 C       46   6 C                                       1.3773328
    38   6 C       47   8 O                                       1.3778083
    42   6 C       47   8 O                                       1.3525232
    37   6 C       48   8 O                                       1.2189304
     3   6 C       49   1 H                                       1.0948522
     3   6 C       50   1 H                                       1.0952570
     3   6 C       51   1 H                                       1.0894548
     4   6 C       52   1 H                                       1.0787639
     5   6 C       53   1 H                                       1.0801683
     6   6 C       54   1 H                                       1.0793811
     7   6 C       55   1 H                                       1.0803482
     9   6 C       56   1 H                                       1.0968694
    10   6 C       57   1 H                                       1.0965877
    12   6 C       58   1 H                                       1.0784068
    13   6 C       59   1 H                                       1.0790036
    14   6 C       60   1 H                                       1.0802371
    15   6 C       61   1 H                                       1.0787687
    18   6 C       62   1 H                                       1.0894476
    18   6 C       63   1 H                                       1.0956203
    18   6 C       64   1 H                                       1.0945809
    23   6 C       65   1 H                                       1.0847563
    23   6 C       66   1 H                                       1.0893196
    23   6 C       67   1 H                                       1.0896358
    25   6 C       68   1 H                                       1.0786013
    26   6 C       69   1 H                                       1.0794479
    27   6 C       70   1 H                                       1.0791349
    28   6 C       71   1 H                                       1.0782782
    32   6 C       72   1 H                                       1.0992831
    34   8 O       73   1 H                                       0.9763040 (min)
    40   6 C       74   1 H                                       1.0849469
    40   6 C       75   1 H                                       1.0893110
    40   6 C       76   1 H                                       1.0896495
    43   6 C       77   1 H                                       1.0783588
    44   6 C       78   1 H                                       1.0795814
    45   6 C       79   1 H                                       1.0797281
    46   6 C       80   1 H                                       1.0789067

 * 5 distinct bonds (by element types)

   Z      Z             #   av. dist./Å        max./Å        min./Å
   1 H    6 C          31     1.0853770     1.0992831     1.0782782
   6 C    6 C          31     1.4012774     1.5379355     1.3699967
   6 C    7 N           6     1.4206848     1.4622772     1.3598422
   1 H    8 O           1     0.9763040     0.9763040     0.9763040
   6 C    8 O          12     1.3309788     1.4048913     1.1957741


optimized geometry written to: xtbopt.xyz


           -------------------------------------------------
          | TOTAL ENERGY             -136.153784484698 Eh   |
          | GRADIENT NORM               0.000646369215 Eh/α |
          | HOMO-LUMO GAP               2.301439670020 eV   |
           -------------------------------------------------

------------------------------------------------------------------------
 * finished run on 2022/03/16 at 21:29:05.788     
------------------------------------------------------------------------
 total:
 * wall-time:     0 d,  0 h,  0 min, 43.751 sec
 *  cpu-time:     0 d,  0 h, 14 min, 40.195 sec
 * ratio c/w:    20.118 speedup
 SCF:
 * wall-time:     0 d,  0 h,  0 min,  0.631 sec
 *  cpu-time:     0 d,  0 h,  0 min,  9.490 sec
 * ratio c/w:    15.043 speedup
 ANC optimizer:
 * wall-time:     0 d,  0 h,  0 min, 42.973 sec
 *  cpu-time:     0 d,  0 h, 14 min, 26.581 sec
 * ratio c/w:    20.166 speedup

