      -----------------------------------------------------------      
     |                   =====================                   |     
     |                           x T B                           |     
     |                   =====================                   |     
     |                         S. Grimme                         |     
     |          Mulliken Center for Theoretical Chemistry        |     
     |                    University of Bonn                     |     
      -----------------------------------------------------------      

   * xtb version 6.3.3 (4ae9cef) compiled by 'conda@95abc7406d43' on 2020-10-14

   xtb is free software: you can redistribute it and/or modify it under
   the terms of the GNU Lesser General Public License as published by
   the Free Software Foundation, either version 3 of the License, or
   (at your option) any later version.
   
   xtb is distributed in the hope that it will be useful,
   but WITHOUT ANY WARRANTY; without even the implied warranty of
   MERCHANTABILITY or FITNESS FOR A PARTICULAR PURPOSE.  See the
   GNU Lesser General Public License for more details.
   
   Cite this work as:
   * C. Bannwarth, E. Caldeweyher, S. Ehlert, A. Hansen, P. Pracht,
     J. Seibert, S. Spicher, S. Grimme, WIREs Comput. Mol. Sci., 2020,
     e01493. DOI: 10.1002/wcms.1493
   
   for GFN2-xTB:
   * S. Grimme, C. Bannwarth, P. Shushkov, J. Chem. Theory Comput., 2017,
     13, 1989-2009. DOI: 10.1021/acs.jctc.7b00118
   for GFN1-xTB:
   * C. Bannwarth, S. Ehlert and S. Grimme., J. Chem. Theory Comput., 2019,
     15, 1652-1671. DOI: 10.1021/acs.jctc.8b01176
   for GFN0-xTB:
   * P. Pracht, E. Caldeweyher, S. Ehlert, S. Grimme, ChemRxiv, 2019, preprint.
     DOI: 10.26434/chemrxiv.8326202.v1
   for GFN-FF:
   * S. Spicher and S. Grimme, Angew. Chem. Int. Ed., 2020, 59, 15665-15673.
     DOI: 10.1002/anie.202004239
   
   for DFT-D4:
   * E. Caldeweyher, C. Bannwarth and S. Grimme, J. Chem. Phys., 2017,
     147, 034112. DOI: 10.1063/1.4993215
   * E. Caldeweyher, S. Ehlert, A. Hansen, H. Neugebauer, S. Spicher,
     C. Bannwarth and S. Grimme, J. Chem. Phys., 2019, 150, 154122.
     DOI: 10.1063/1.5090222
   * E. Caldeweyher, J.-M. Mewes, S. Ehlert and S. Grimme, Phys. Chem. Chem. Phys.
     2020, 22, 8499-8512. DOI: 10.1039/D0CP00502A
   
   for sTDA-xTB:
   * S. Grimme and C. Bannwarth, J. Chem. Phys., 2016, 145, 054103.
     DOI: 10.1063/1.4959605
   
   in the mass-spec context:
   * V. Asgeirsson, C. Bauer and S. Grimme, Chem. Sci., 2017, 8, 4879.
     DOI: 10.1039/c7sc00601b
   * J. Koopman and S. Grimme, ACS Omega 2019, 4, 12, 15120-15133.
     DOI: 10.1021/acsomega.9b02011
   
   for metadynamics refer to:
   * S. Grimme, J. Chem. Theory Comput., 2019, 155, 2847-2862
     DOI: 10.1021/acs.jctc.9b00143
   
   with help from (in alphabetical order)
   C. Bannwarth, F. Bohle, G. Brandenburg, E. Caldeweyher, M. Checinski,
   S. Dohm, S. Ehlert, S. Ehrlich, F. März, H. Neugebauer, J. Pisarek,
   P. Pracht, P. Shushkov, and S. Spicher.
   
 * started run on 2022/03/17 at 01:55:12.054     

           -------------------------------------------------
          |                Calculation Setup                |
           -------------------------------------------------

          program call               : xtb acid_62.xyz --opt --chrg 0 --uhf 0 --gfn 2
          coordinate file            : acid_62.xyz
          omp threads                :                    64
          number of atoms            :                    76
          number of electrons        :                   246
          charge                     :                     0
          spin                       :                   0.0
          first test random number   :      0.80892048994731

   ID    Z sym.   atoms
    1    6 C      1-22, 24-29, 33, 35, 36, 40-43, 47-49
    2    7 N      23, 30, 39, 44
    3    8 O      31, 32, 34, 37, 38, 45, 46, 50
    4    1 H      51-76

           -------------------------------------------------
          |                 G F N 2 - x T B                 |
           -------------------------------------------------

        Reference                      10.1021/acs.jctc.8b01176
      * Hamiltonian:
        H0-scaling (s, p, d)           1.850000    2.230000    2.230000
        zeta-weighting                 0.500000
      * Dispersion:
        s8                             2.700000
        a1                             0.520000
        a2                             5.000000
        s9                             5.000000
      * Repulsion:
        kExp                           1.500000    1.000000
        rExp                           1.000000
      * Coulomb:
        alpha                          2.000000
        third order                    shell-resolved
        anisotropic                    true
        a3                             3.000000
        a5                             4.000000
        cn-shift                       1.200000
        cn-exp                         4.000000
        max-rad                        5.000000


          ...................................................
          :                      SETUP                      :
          :.................................................:
          :  # basis functions                 226          :
          :  # atomic orbitals                 226          :
          :  # shells                          126          :
          :  # electrons                       246          :
          :  max. iterations                   250          :
          :  Hamiltonian                  GFN2-xTB          :
          :  restarted?                      false          :
          :  GBSA solvation                  false          :
          :  PC potential                    false          :
          :  electronic temp.          300.0000000     K    :
          :  accuracy                    1.0000000          :
          :  -> integral cutoff          0.2500000E+02      :
          :  -> integral neglect         0.1000000E-07      :
          :  -> SCF convergence          0.1000000E-05 Eh   :
          :  -> wf. convergence          0.1000000E-03 e    :
          :  Broyden damping             0.4000000          :
          ...................................................

 iter      E             dE          RMSdq      gap      omega  full diag
   1   -140.1198236 -0.140120E+03  0.517E+00    2.62       0.0  T
   2   -140.4982456 -0.378422E+00  0.275E+00    1.90       1.0  T
   3   -140.5056423 -0.739671E-02  0.144E+00    1.50       1.0  T
   4   -140.5113612 -0.571889E-02  0.430E-01    1.08       1.0  T
   5   -140.5215729 -0.102117E-01  0.118E-01    1.05       1.0  T
   6   -140.5224506 -0.877713E-03  0.569E-02    1.07       1.0  T
   7   -140.5225224 -0.718666E-04  0.254E-02    1.08       1.0  T
   8   -140.5225364 -0.139086E-04  0.123E-02    1.09       1.0  T
   9   -140.5225413 -0.496891E-05  0.533E-03    1.09       2.2  T
  10   -140.5225421 -0.786430E-06  0.196E-03    1.09       5.8  T
  11   -140.5225423 -0.139223E-06  0.802E-04    1.09      14.3  T
  12   -140.5225423 -0.110843E-07  0.373E-04    1.09      30.7  T

   *** convergence criteria satisfied after 12 iterations ***

         #    Occupation            Energy/Eh            Energy/eV
      -------------------------------------------------------------
         1        2.0000           -0.7989774             -21.7413
       ...           ...                  ...                  ...
       117        2.0000           -0.4238353             -11.5331
       118        2.0000           -0.4223899             -11.4938
       119        2.0000           -0.4173602             -11.3570
       120        2.0000           -0.4139806             -11.2650
       121        2.0000           -0.4090748             -11.1315
       122        2.0000           -0.3879896             -10.5577
       123        2.0000           -0.3828736             -10.4185 (HOMO)
       124                         -0.3428162              -9.3285 (LUMO)
       125                         -0.3326617              -9.0522
       126                         -0.3087189              -8.4007
       127                         -0.2843563              -7.7377
       128                         -0.2810166              -7.6469
       ...                                ...                  ...
       226                          0.6766487              18.4125
      -------------------------------------------------------------
                  HL-Gap            0.0400573 Eh            1.0900 eV
             Fermi-level           -0.3628427 Eh           -9.8735 eV

 SCC (total)                   0 d,  0 h,  0 min,  0.631 sec
 SCC setup                      ...        0 min,  0.021 sec (  3.317%)
 Dispersion                     ...        0 min,  0.015 sec (  2.320%)
 classical contributions        ...        0 min,  0.022 sec (  3.544%)
 integral evaluation            ...        0 min,  0.121 sec ( 19.214%)
 iterations                     ...        0 min,  0.325 sec ( 51.431%)
 molecular gradient             ...        0 min,  0.124 sec ( 19.613%)
 printout                       ...        0 min,  0.003 sec (  0.545%)

         :::::::::::::::::::::::::::::::::::::::::::::::::::::
         ::                     SUMMARY                     ::
         :::::::::::::::::::::::::::::::::::::::::::::::::::::
         :: total energy            -138.674603773126 Eh    ::
         :: gradient norm              0.160920683360 Eh/a0 ::
         :: HOMO-LUMO gap              1.090015608103 eV    ::
         ::.................................................::
         :: SCC energy              -140.522542263380 Eh    ::
         :: -> isotropic ES            0.212275578454 Eh    ::
         :: -> anisotropic ES          0.015187370194 Eh    ::
         :: -> anisotropic XC          0.046772863145 Eh    ::
         :: -> dispersion             -0.106584079946 Eh    ::
         :: repulsion energy           1.844820043259 Eh    ::
         :: add. restraining           0.000000000000 Eh    ::
         :: total charge               0.000000000006 e     ::
         :::::::::::::::::::::::::::::::::::::::::::::::::::::

      ----------------------------------------------------------- 
     |                   =====================                   |
     |                        A N C O P T                        |
     |                   =====================                   |
     |               Approximate Normal Coordinate               |
     |                Rational Function Optimizer                |
      ----------------------------------------------------------- 

          ...................................................
          :                      SETUP                      :
          :.................................................:
          :   optimization level            normal          :
          :   max. optcycles                   228          :
          :   ANC micro-cycles                  20          :
          :   degrees of freedom               222          :
          :.................................................:
          :   RF solver                   davidson          :
          :   write xtbopt.log                true          :
          :   linear?                        false          :
          :   energy convergence         0.5000000E-05 Eh   :
          :   grad. convergence          0.1000000E-02 Eh/α :
          :   maximium RF displ.         1.0000000          :
          :   Hlow (freq-cutoff)         0.1000000E-01      :
          :   Hmax (freq-cutoff)         5.0000000          :
          :   S6 in model hess.         20.0000000          :
          ...................................................

generating ANC from model Hessian ...
Using Lindh-Hessian (1995)
 Shifting diagonal of input Hessian by    9.8893531385198363E-003
 Lowest  eigenvalues of input Hessian
    0.000000    0.000000    0.000000    0.000000    0.000000    0.000000
    0.010000    0.010063    0.010132    0.010153    0.010246    0.010337
    0.010596    0.010626    0.010658    0.010923    0.011325    0.011551
 Highest eigenvalues
    2.080239    2.202385    2.233635    2.236689    2.436897    2.441564


........................................................................
.............................. CYCLE    1 ..............................
........................................................................
   1   -140.5225423 -0.140523E+03  0.171E-04    1.09       0.0  T
   2   -140.5225423 -0.207336E-09  0.126E-04    1.09      91.4  T
   3   -140.5225423 -0.520174E-09  0.742E-05    1.09     154.6  T
     SCC iter.                  ...        0 min,  0.093 sec
     gradient                   ...        0 min,  0.143 sec
 * total energy  :  -138.6746038 Eh     change       -0.4297334E-08 Eh
   gradient norm :     0.1609223 Eh/α   predicted     0.0000000E+00 (-100.00%)
   displ. norm   :     0.3795729 α      lambda       -0.3423613E-01
   maximum displ.:     0.1313189 α      in ANC's #76, #67, #68, ...

........................................................................
.............................. CYCLE    2 ..............................
........................................................................
   1   -140.6345139 -0.140635E+03  0.195E-01    1.39       0.0  T
   2   -140.6350981 -0.584187E-03  0.116E-01    1.35       1.0  T
   3   -140.6350956  0.254568E-05  0.570E-02    1.34       1.0  T
   4   -140.6351197 -0.241163E-04  0.281E-02    1.33       1.0  T
   5   -140.6351665 -0.467890E-04  0.655E-03    1.33       1.8  T
   6   -140.6351682 -0.172210E-05  0.330E-03    1.33       3.5  T
   7   -140.6351682  0.150216E-07  0.168E-03    1.34       6.8  T
   8   -140.6351683 -0.151529E-06  0.497E-04    1.34      23.1  T
   9   -140.6351684 -0.237830E-08  0.228E-04    1.33      50.3  T
     SCC iter.                  ...        0 min,  0.244 sec
     gradient                   ...        0 min,  0.146 sec
 * total energy  :  -138.6983221 Eh     change       -0.2371836E-01 Eh
   gradient norm :     0.0617800 Eh/α   predicted    -0.1958439E-01 ( -17.43%)
   displ. norm   :     0.3896967 α      lambda       -0.1122578E-01
   maximum displ.:     0.1253988 α      in ANC's #27, #18, #76, ...

........................................................................
.............................. CYCLE    3 ..............................
........................................................................
   1   -140.6969002 -0.140697E+03  0.139E-01    1.50       0.0  T
   2   -140.6971379 -0.237667E-03  0.838E-02    1.48       1.0  T
   3   -140.6971267  0.111471E-04  0.407E-02    1.47       1.0  T
   4   -140.6971589 -0.322127E-04  0.174E-02    1.47       1.0  T
   5   -140.6971776 -0.186536E-04  0.439E-03    1.47       2.6  T
   6   -140.6971784 -0.817245E-06  0.206E-03    1.47       5.6  T
   7   -140.6971784  0.189576E-08  0.109E-03    1.47      10.6  T
   8   -140.6971784 -0.570734E-07  0.339E-04    1.47      33.8  T
   9   -140.6971785 -0.303402E-08  0.159E-04    1.47      72.2  T
     SCC iter.                  ...        0 min,  0.248 sec
     gradient                   ...        0 min,  0.123 sec
 * total energy  :  -138.7045097 Eh     change       -0.6187571E-02 Eh
   gradient norm :     0.0210513 Eh/α   predicted    -0.6465285E-02 (   4.49%)
   displ. norm   :     0.3109500 α      lambda       -0.2884706E-02
   maximum displ.:     0.1083152 α      in ANC's #18, #27, #22, ...

........................................................................
.............................. CYCLE    4 ..............................
........................................................................
   1   -140.7033252 -0.140703E+03  0.945E-02    1.47       0.0  T
   2   -140.7033439 -0.186946E-04  0.567E-02    1.47       1.0  T
   3   -140.7033269  0.169619E-04  0.175E-02    1.47       1.0  T
   4   -140.7033489 -0.220108E-04  0.394E-03    1.47       2.9  T
   5   -140.7033498 -0.877048E-06  0.172E-03    1.47       6.7  T
   6   -140.7033498 -0.294488E-07  0.832E-04    1.47      13.8  T
   7   -140.7033499 -0.160254E-07  0.302E-04    1.47      38.0  T
     SCC iter.                  ...        0 min,  0.194 sec
     gradient                   ...        0 min,  0.143 sec
 * total energy  :  -138.7057323 Eh     change       -0.1222568E-02 Eh
   gradient norm :     0.0206289 Eh/α   predicted    -0.1581813E-02 (  29.38%)
   displ. norm   :     0.2945770 α      lambda       -0.2123226E-02
   maximum displ.:     0.1249868 α      in ANC's #16, #18, #27, ...

........................................................................
.............................. CYCLE    5 ..............................
........................................................................
   1   -140.7007038 -0.140701E+03  0.844E-02    1.44       0.0  T
   2   -140.7007156 -0.118097E-04  0.498E-02    1.44       1.0  T
   3   -140.7007031  0.125531E-04  0.160E-02    1.44       1.0  T
   4   -140.7007184 -0.152957E-04  0.406E-03    1.44       2.8  T
   5   -140.7007192 -0.846186E-06  0.164E-03    1.44       7.0  T
   6   -140.7007193 -0.724576E-07  0.837E-04    1.44      13.7  T
   7   -140.7007193 -0.575346E-08  0.354E-04    1.44      32.4  T
     SCC iter.                  ...        0 min,  0.191 sec
     gradient                   ...        0 min,  0.140 sec
 * total energy  :  -138.7066617 Eh     change       -0.9294697E-03 Eh
   gradient norm :     0.0135253 Eh/α   predicted    -0.1153747E-02 (  24.13%)
   displ. norm   :     0.2048621 α      lambda       -0.9621864E-03
   maximum displ.:     0.1136130 α      in ANC's #16, #24, #7, ...

........................................................................
.............................. CYCLE    6 ..............................
........................................................................
   1   -140.7012609 -0.140701E+03  0.513E-02    1.43       0.0  T
   2   -140.7012679 -0.697993E-05  0.303E-02    1.43       1.0  T
   3   -140.7012622  0.573393E-05  0.105E-02    1.43       1.1  T
   4   -140.7012690 -0.681231E-05  0.311E-03    1.43       3.7  T
   5   -140.7012696 -0.666552E-06  0.120E-03    1.43       9.5  T
   6   -140.7012697 -0.375230E-07  0.652E-04    1.43      17.6  T
   7   -140.7012697 -0.516954E-08  0.260E-04    1.43      44.1  T
     SCC iter.                  ...        0 min,  0.183 sec
     gradient                   ...        0 min,  0.115 sec
 * total energy  :  -138.7072212 Eh     change       -0.5594581E-03 Eh
   gradient norm :     0.0074014 Eh/α   predicted    -0.5012871E-03 ( -10.40%)
   displ. norm   :     0.2333155 α      lambda       -0.4810744E-03
   maximum displ.:     0.1267769 α      in ANC's #16, #7, #24, ...

........................................................................
.............................. CYCLE    7 ..............................
........................................................................
   1   -140.7033217 -0.140703E+03  0.528E-02    1.45       0.0  T
   2   -140.7033242 -0.255509E-05  0.310E-02    1.44       1.0  T
   3   -140.7033159  0.836152E-05  0.105E-02    1.44       1.1  T
   4   -140.7033259 -0.100681E-04  0.157E-03    1.44       7.3  T
   5   -140.7033260 -0.600304E-07  0.953E-04    1.44      12.0  T
   6   -140.7033260 -0.648677E-08  0.482E-04    1.44      23.8  T
     SCC iter.                  ...        0 min,  0.166 sec
     gradient                   ...        0 min,  0.145 sec
 * total energy  :  -138.7076246 Eh     change       -0.4034365E-03 Eh
   gradient norm :     0.0070314 Eh/α   predicted    -0.2536313E-03 ( -37.13%)
   displ. norm   :     0.5462898 α      lambda       -0.9472280E-03
   maximum displ.:     0.2922977 α      in ANC's #16, #7, #24, ...

........................................................................
.............................. CYCLE    8 ..............................
........................................................................
   1   -140.7049384 -0.140705E+03  0.123E-01    1.48       0.0  T
   2   -140.7049539 -0.154758E-04  0.726E-02    1.48       1.0  T
   3   -140.7049031  0.507805E-04  0.262E-02    1.48       1.0  T
   4   -140.7049647 -0.616196E-04  0.372E-03    1.48       3.1  T
   5   -140.7049650 -0.257825E-06  0.228E-03    1.48       5.0  T
   6   -140.7049650 -0.451508E-07  0.110E-03    1.48      10.4  T
   7   -140.7049650 -0.408165E-07  0.415E-04    1.48      27.6  T
   8   -140.7049651 -0.867877E-08  0.141E-04    1.48      81.1  T
     SCC iter.                  ...        0 min,  0.219 sec
     gradient                   ...        0 min,  0.131 sec
 * total energy  :  -138.7082755 Eh     change       -0.6508242E-03 Eh
   gradient norm :     0.0160298 Eh/α   predicted    -0.6149621E-03 (  -5.51%)
   displ. norm   :     0.5127300 α      lambda       -0.8934662E-03
   maximum displ.:     0.2647990 α      in ANC's #16, #7, #13, ...

........................................................................
.............................. CYCLE    9 ..............................
........................................................................
   1   -140.7050796 -0.140705E+03  0.110E-01    1.50       0.0  T
   2   -140.7050906 -0.110103E-04  0.642E-02    1.50       1.0  T
   3   -140.7050566  0.339294E-04  0.215E-02    1.50       1.0  T
   4   -140.7050979 -0.412198E-04  0.313E-03    1.50       3.7  T
   5   -140.7050980 -0.177705E-06  0.193E-03    1.50       6.0  T
   6   -140.7050981 -0.372575E-07  0.824E-04    1.50      13.9  T
   7   -140.7050981 -0.163499E-07  0.276E-04    1.50      41.5  T
     SCC iter.                  ...        0 min,  0.193 sec
     gradient                   ...        0 min,  0.132 sec
 * total energy  :  -138.7087949 Eh     change       -0.5194629E-03 Eh
   gradient norm :     0.0214663 Eh/α   predicted    -0.5641763E-03 (   8.61%)
   displ. norm   :     0.3985518 α      lambda       -0.1016616E-02
   maximum displ.:     0.1913103 α      in ANC's #16, #7, #13, ...

........................................................................
.............................. CYCLE   10 ..............................
........................................................................
   1   -140.7091649 -0.140709E+03  0.770E-02    1.52       0.0  T
   2   -140.7091801 -0.151897E-04  0.455E-02    1.52       1.0  T
   3   -140.7091717  0.834392E-05  0.154E-02    1.52       1.0  T
   4   -140.7091836 -0.118856E-04  0.289E-03    1.52       4.0  T
   5   -140.7091840 -0.379590E-06  0.147E-03    1.52       7.8  T
   6   -140.7091840 -0.499112E-07  0.753E-04    1.52      15.2  T
   7   -140.7091840 -0.306892E-08  0.291E-04    1.52      39.4  T
     SCC iter.                  ...        0 min,  0.189 sec
     gradient                   ...        0 min,  0.134 sec
 * total energy  :  -138.7095522 Eh     change       -0.7572519E-03 Eh
   gradient norm :     0.0099286 Eh/α   predicted    -0.5890513E-03 ( -22.21%)
   displ. norm   :     0.6850685 α      lambda       -0.1253432E-02
   maximum displ.:     0.3219281 α      in ANC's #16, #7, #13, ...

........................................................................
.............................. CYCLE   11 ..............................
........................................................................
   1   -140.7042522 -0.140704E+03  0.148E-01    1.53       0.0  T
   2   -140.7042834 -0.311852E-04  0.871E-02    1.53       1.0  T
   3   -140.7042198  0.636026E-04  0.320E-02    1.54       1.0  T
   4   -140.7042994 -0.796298E-04  0.519E-03    1.54       2.2  T
   5   -140.7043005 -0.109676E-05  0.285E-03    1.54       4.0  T
   6   -140.7043006 -0.515086E-07  0.112E-03    1.54      10.3  T
   7   -140.7043006 -0.322379E-07  0.375E-04    1.54      30.6  T
   8   -140.7043006 -0.801771E-08  0.136E-04    1.54      84.5  T
     SCC iter.                  ...        0 min,  0.224 sec
     gradient                   ...        0 min,  0.132 sec
 * total energy  :  -138.7104293 Eh     change       -0.8771169E-03 Eh
   gradient norm :     0.0184534 Eh/α   predicted    -0.9208454E-03 (   4.99%)
   displ. norm   :     0.4902263 α      lambda       -0.9662602E-03
   maximum displ.:     0.2359390 α      in ANC's #7, #16, #13, ...

........................................................................
.............................. CYCLE   12 ..............................
........................................................................
   1   -140.7053893 -0.140705E+03  0.974E-02    1.53       0.0  T
   2   -140.7054046 -0.152513E-04  0.572E-02    1.54       1.0  T
   3   -140.7053886  0.159669E-04  0.178E-02    1.54       1.0  T
   4   -140.7054091 -0.205399E-04  0.352E-03    1.54       3.3  T
   5   -140.7054098 -0.669097E-06  0.176E-03    1.54       6.5  T
   6   -140.7054099 -0.409784E-07  0.950E-04    1.54      12.1  T
   7   -140.7054099 -0.115117E-07  0.386E-04    1.54      29.7  T
     SCC iter.                  ...        0 min,  0.192 sec
     gradient                   ...        0 min,  0.129 sec
 * total energy  :  -138.7111664 Eh     change       -0.7371272E-03 Eh
   gradient norm :     0.0140984 Eh/α   predicted    -0.5992384E-03 ( -18.71%)
   displ. norm   :     0.6538054 α      lambda       -0.9496213E-03
   maximum displ.:     0.3240434 α      in ANC's #7, #16, #4, ...

........................................................................
.............................. CYCLE   13 ..............................
........................................................................
   1   -140.7028593 -0.140703E+03  0.121E-01    1.56       0.0  T
   2   -140.7028737 -0.143772E-04  0.713E-02    1.56       1.0  T
   3   -140.7028273  0.463461E-04  0.255E-02    1.56       1.0  T
   4   -140.7028829 -0.555332E-04  0.363E-03    1.56       3.2  T
   5   -140.7028834 -0.522362E-06  0.198E-03    1.56       5.8  T
   6   -140.7028834 -0.222359E-07  0.885E-04    1.56      13.0  T
   7   -140.7028834 -0.208482E-07  0.344E-04    1.56      33.4  T
     SCC iter.                  ...        0 min,  0.192 sec
     gradient                   ...        0 min,  0.155 sec
 * total energy  :  -138.7118904 Eh     change       -0.7239900E-03 Eh
   gradient norm :     0.0157697 Eh/α   predicted    -0.6777747E-03 (  -6.38%)
   displ. norm   :     0.5400036 α      lambda       -0.1204912E-02
   maximum displ.:     0.2732638 α      in ANC's #7, #4, #6, ...

........................................................................
.............................. CYCLE   14 ..............................
........................................................................
   1   -140.7157421 -0.140716E+03  0.100E-01    1.58       0.0  T
   2   -140.7158168 -0.747096E-04  0.594E-02    1.58       1.0  T
   3   -140.7158127  0.414430E-05  0.260E-02    1.58       1.0  T
   4   -140.7158284 -0.156681E-04  0.544E-03    1.58       2.1  T
   5   -140.7158304 -0.198556E-05  0.224E-03    1.58       5.1  T
   6   -140.7158305 -0.165373E-06  0.118E-03    1.58       9.7  T
   7   -140.7158305 -0.914250E-08  0.493E-04    1.58      23.3  T
   8   -140.7158305 -0.892132E-08  0.192E-04    1.58      59.8  T
     SCC iter.                  ...        0 min,  0.219 sec
     gradient                   ...        0 min,  0.135 sec
 * total energy  :  -138.7122671 Eh     change       -0.3766852E-03 Eh
   gradient norm :     0.0210180 Eh/α   predicted    -0.7781348E-03 ( 106.57%)
   displ. norm   :     0.5793847 α      lambda       -0.1330695E-02
   maximum displ.:     0.2872404 α      in ANC's #7, #16, #4, ...

........................................................................
.............................. CYCLE   15 ..............................
........................................................................
   1   -140.7072292 -0.140707E+03  0.128E-01    1.61       0.0  T
   2   -140.7072836 -0.543508E-04  0.763E-02    1.61       1.0  T
   3   -140.7072455  0.380685E-04  0.335E-02    1.61       1.0  T
   4   -140.7073021 -0.565556E-04  0.628E-03    1.61       1.8  T
   5   -140.7073046 -0.252708E-05  0.284E-03    1.61       4.0  T
   6   -140.7073047 -0.693473E-07  0.120E-03    1.61       9.5  T
   7   -140.7073047 -0.280372E-07  0.535E-04    1.61      21.4  T
   8   -140.7073047 -0.122743E-07  0.189E-04    1.61      60.8  T
     SCC iter.                  ...        0 min,  0.220 sec
     gradient                   ...        0 min,  0.157 sec
 * total energy  :  -138.7128361 Eh     change       -0.5689675E-03 Eh
   gradient norm :     0.0263511 Eh/α   predicted    -0.8886992E-03 (  56.20%)
   displ. norm   :     0.2284745 α      lambda       -0.9650666E-03
   maximum displ.:     0.1110329 α      in ANC's #7, #4, #16, ...

........................................................................
.............................. CYCLE   16 ..............................
........................................................................
   1   -140.7085948 -0.140709E+03  0.689E-02    1.61       0.0  T
   2   -140.7087102 -0.115382E-03  0.415E-02    1.61       1.0  T
   3   -140.7087171 -0.686563E-05  0.220E-02    1.61       1.0  T
   4   -140.7087171 -0.439579E-07  0.607E-03    1.61       1.9  T
   5   -140.7087196 -0.247042E-05  0.215E-03    1.61       5.3  T
   6   -140.7087199 -0.283652E-06  0.979E-04    1.61      11.7  T
   7   -140.7087199 -0.240783E-07  0.461E-04    1.61      24.9  T
     SCC iter.                  ...        0 min,  0.192 sec
     gradient                   ...        0 min,  0.156 sec
 * total energy  :  -138.7130359 Eh     change       -0.1998722E-03 Eh
   gradient norm :     0.0269513 Eh/α   predicted    -0.5077150E-03 ( 154.02%)
   displ. norm   :     0.2796537 α      lambda       -0.8102624E-03
   maximum displ.:     0.1469156 α      in ANC's #7, #4, #6, ...

........................................................................
.............................. CYCLE   17 ..............................
........................................................................
   1   -140.7096344 -0.140710E+03  0.561E-02    1.61       0.0  T
   2   -140.7097184 -0.839746E-04  0.329E-02    1.61       1.0  T
   3   -140.7097258 -0.746960E-05  0.178E-02    1.61       1.0  T
   4   -140.7097248  0.106160E-05  0.616E-03    1.61       1.9  T
   5   -140.7097280 -0.319431E-05  0.162E-03    1.61       7.1  T
   6   -140.7097281 -0.130527E-06  0.768E-04    1.61      14.9  T
   7   -140.7097281 -0.166764E-07  0.365E-04    1.61      31.4  T
     SCC iter.                  ...        0 min,  0.183 sec
     gradient                   ...        0 min,  0.145 sec
 * total energy  :  -138.7135269 Eh     change       -0.4909913E-03 Eh
   gradient norm :     0.0067553 Eh/α   predicted    -0.4368182E-03 ( -11.03%)
   displ. norm   :     0.4257724 α      lambda       -0.4735907E-03
   maximum displ.:     0.2345085 α      in ANC's #7, #4, #6, ...

........................................................................
.............................. CYCLE   18 ..............................
........................................................................
   1   -140.7106298 -0.140711E+03  0.828E-02    1.62       0.0  T
   2   -140.7106470 -0.172425E-04  0.483E-02    1.62       1.0  T
   3   -140.7106413  0.575909E-05  0.122E-02    1.61       1.0  T
   4   -140.7106485 -0.724227E-05  0.403E-03    1.61       2.8  T
   5   -140.7106496 -0.112981E-05  0.153E-03    1.61       7.5  T
   6   -140.7106497 -0.350528E-07  0.868E-04    1.61      13.2  T
   7   -140.7106497 -0.890981E-08  0.325E-04    1.61      35.3  T
     SCC iter.                  ...        0 min,  0.196 sec
     gradient                   ...        0 min,  0.139 sec
 * total energy  :  -138.7138391 Eh     change       -0.3121495E-03 Eh
   gradient norm :     0.0124166 Eh/α   predicted    -0.2797275E-03 ( -10.39%)
   displ. norm   :     0.3999660 α      lambda       -0.4089302E-03
   maximum displ.:     0.2207846 α      in ANC's #4, #7, #6, ...

........................................................................
.............................. CYCLE   19 ..............................
........................................................................
   1   -140.7141209 -0.140714E+03  0.774E-02    1.60       0.0  T
   2   -140.7141363 -0.154223E-04  0.453E-02    1.60       1.0  T
   3   -140.7141308  0.549161E-05  0.114E-02    1.60       1.0  T
   4   -140.7141367 -0.593175E-05  0.484E-03    1.60       2.4  T
   5   -140.7141385 -0.182566E-05  0.154E-03    1.60       7.5  T
   6   -140.7141386 -0.379949E-07  0.890E-04    1.60      12.9  T
   7   -140.7141386 -0.929464E-08  0.293E-04    1.60      39.2  T
     SCC iter.                  ...        0 min,  0.196 sec
     gradient                   ...        0 min,  0.143 sec
 * total energy  :  -138.7141181 Eh     change       -0.2790195E-03 Eh
   gradient norm :     0.0108310 Eh/α   predicted    -0.2371800E-03 ( -15.00%)
   displ. norm   :     0.4463536 α      lambda       -0.4684148E-03
   maximum displ.:     0.2571935 α      in ANC's #4, #7, #3, ...

........................................................................
.............................. CYCLE   20 ..............................
........................................................................
   1   -140.7139725 -0.140714E+03  0.971E-02    1.58       0.0  T
   2   -140.7140173 -0.447265E-04  0.569E-02    1.58       1.0  T
   3   -140.7140083  0.893474E-05  0.225E-02    1.58       1.0  T
   4   -140.7140244 -0.160517E-04  0.503E-03    1.58       2.3  T
   5   -140.7140260 -0.163677E-05  0.211E-03    1.58       5.4  T
   6   -140.7140262 -0.155315E-06  0.109E-03    1.58      10.5  T
   7   -140.7140262 -0.245481E-08  0.513E-04    1.58      22.3  T
   8   -140.7140262 -0.134678E-07  0.137E-04    1.58      83.8  T
     SCC iter.                  ...        0 min,  0.226 sec
     gradient                   ...        0 min,  0.135 sec
 * total energy  :  -138.7143167 Eh     change       -0.1985901E-03 Eh
   gradient norm :     0.0102459 Eh/α   predicted    -0.2808698E-03 (  41.43%)
   displ. norm   :     0.3696848 α      lambda       -0.2927373E-03
   maximum displ.:     0.1929203 α      in ANC's #7, #4, #16, ...
 * RMSD in coord.:     0.7891710 α      energy gain  -0.3971291E-01 Eh

generating ANC from model Hessian ...
Using Lindh-Hessian (1995)
 Shifting diagonal of input Hessian by    9.8664768346772153E-003
 Lowest  eigenvalues of input Hessian
    0.000000    0.000000    0.000000    0.000000    0.000000    0.000000
    0.010000    0.010071    0.010115    0.010193    0.010251    0.010386
    0.010586    0.010676    0.010716    0.011122    0.011481    0.011739
 Highest eigenvalues
    2.200216    2.333199    2.337499    2.386927    2.655939    2.659223


........................................................................
.............................. CYCLE   21 ..............................
........................................................................
   1   -140.7087058 -0.140709E+03  0.778E-02    1.57       0.0  T
   2   -140.7087455 -0.397475E-04  0.460E-02    1.56       1.0  T
   3   -140.7087379  0.759353E-05  0.209E-02    1.56       1.0  T
   4   -140.7087502 -0.122918E-04  0.629E-03    1.56       1.8  T
   5   -140.7087537 -0.345612E-05  0.184E-03    1.56       6.2  T
   6   -140.7087538 -0.146414E-06  0.953E-04    1.56      12.0  T
   7   -140.7087538 -0.163175E-08  0.525E-04    1.56      21.8  T
     SCC iter.                  ...        0 min,  0.192 sec
     gradient                   ...        0 min,  0.143 sec
 * total energy  :  -138.7143930 Eh     change       -0.7630554E-04 Eh
   gradient norm :     0.0097238 Eh/α   predicted     0.0000000E+00 (-100.00%)
   displ. norm   :     0.0679497 α      lambda       -0.1741903E-03
   maximum displ.:     0.0296944 α      in ANC's #13, #11, #4, ...

........................................................................
.............................. CYCLE   22 ..............................
........................................................................
   1   -140.7130900 -0.140713E+03  0.205E-02    1.57       0.0  T
   2   -140.7130928 -0.282357E-05  0.124E-02    1.57       1.0  T
   3   -140.7130924  0.399712E-06  0.608E-03    1.57       1.9  T
   4   -140.7130936 -0.113781E-05  0.121E-03    1.57       9.5  T
   5   -140.7130937 -0.102371E-06  0.471E-04    1.57      24.4  T
   6   -140.7130937 -0.500660E-08  0.252E-04    1.57      45.5  T
     SCC iter.                  ...        0 min,  0.167 sec
     gradient                   ...        0 min,  0.131 sec
 * total energy  :  -138.7145209 Eh     change       -0.1279578E-03 Eh
   gradient norm :     0.0031866 Eh/α   predicted    -0.8754713E-04 ( -31.58%)
   displ. norm   :     0.1487603 α      lambda       -0.1688467E-03
   maximum displ.:     0.0683524 α      in ANC's #13, #4, #11, ...

........................................................................
.............................. CYCLE   23 ..............................
........................................................................
   1   -140.7165363 -0.140717E+03  0.396E-02    1.57       0.0  T
   2   -140.7165400 -0.367521E-05  0.233E-02    1.57       1.0  T
   3   -140.7165372  0.282098E-05  0.828E-03    1.57       1.4  T
   4   -140.7165409 -0.373940E-05  0.159E-03    1.57       7.2  T
   5   -140.7165411 -0.172648E-06  0.685E-04    1.57      16.7  T
   6   -140.7165411 -0.102233E-07  0.372E-04    1.57      30.9  T
     SCC iter.                  ...        0 min,  0.163 sec
     gradient                   ...        0 min,  0.139 sec
 * total energy  :  -138.7146355 Eh     change       -0.1145105E-03 Eh
   gradient norm :     0.0054998 Eh/α   predicted    -0.8635430E-04 ( -24.59%)
   displ. norm   :     0.2541776 α      lambda       -0.1994188E-03
   maximum displ.:     0.1200543 α      in ANC's #13, #4, #11, ...

........................................................................
.............................. CYCLE   24 ..............................
........................................................................
   1   -140.7177607 -0.140718E+03  0.650E-02    1.56       0.0  T
   2   -140.7177660 -0.525170E-05  0.380E-02    1.57       1.0  T
   3   -140.7177610  0.497259E-05  0.949E-03    1.57       1.2  T
   4   -140.7177672 -0.618297E-05  0.216E-03    1.57       5.3  T
   5   -140.7177675 -0.292052E-06  0.970E-04    1.57      11.8  T
   6   -140.7177675 -0.136241E-07  0.511E-04    1.57      22.5  T
     SCC iter.                  ...        0 min,  0.163 sec
     gradient                   ...        0 min,  0.123 sec
 * total energy  :  -138.7147561 Eh     change       -0.1205963E-03 Eh
   gradient norm :     0.0085099 Eh/α   predicted    -0.1061511E-03 ( -11.98%)
   displ. norm   :     0.3079877 α      lambda       -0.2079995E-03
   maximum displ.:     0.1474594 α      in ANC's #13, #4, #7, ...

........................................................................
.............................. CYCLE   25 ..............................
........................................................................
   1   -140.7158407 -0.140716E+03  0.754E-02    1.56       0.0  T
   2   -140.7158455 -0.474726E-05  0.443E-02    1.56       1.0  T
   3   -140.7158410  0.445557E-05  0.831E-03    1.56       1.4  T
   4   -140.7158468 -0.573272E-05  0.227E-03    1.56       5.1  T
   5   -140.7158470 -0.252506E-06  0.113E-03    1.56      10.1  T
   6   -140.7158470 -0.140826E-07  0.492E-04    1.56      23.3  T
   7   -140.7158470 -0.485781E-08  0.177E-04    1.56      64.8  T
     SCC iter.                  ...        0 min,  0.193 sec
     gradient                   ...        0 min,  0.156 sec
 * total energy  :  -138.7149181 Eh     change       -0.1620028E-03 Eh
   gradient norm :     0.0066280 Eh/α   predicted    -0.1138695E-03 ( -29.71%)
   displ. norm   :     0.3878843 α      lambda       -0.2320932E-03
   maximum displ.:     0.1860371 α      in ANC's #13, #4, #7, ...

........................................................................
.............................. CYCLE   26 ..............................
........................................................................
   1   -140.7119029 -0.140712E+03  0.890E-02    1.55       0.0  T
   2   -140.7119121 -0.916044E-05  0.525E-02    1.55       1.0  T
   3   -140.7119028  0.925500E-05  0.128E-02    1.56       1.0  T
   4   -140.7119146 -0.118147E-04  0.295E-03    1.56       3.9  T
   5   -140.7119150 -0.418845E-06  0.147E-03    1.56       7.8  T
   6   -140.7119151 -0.201156E-07  0.702E-04    1.56      16.3  T
   7   -140.7119151 -0.113484E-07  0.278E-04    1.56      41.3  T
     SCC iter.                  ...        0 min,  0.183 sec
     gradient                   ...        0 min,  0.125 sec
 * total energy  :  -138.7150781 Eh     change       -0.1600383E-03 Eh
   gradient norm :     0.0060864 Eh/α   predicted    -0.1335065E-03 ( -16.58%)
   displ. norm   :     0.2430482 α      lambda       -0.1366671E-03
   maximum displ.:     0.1096834 α      in ANC's #13, #4, #7, ...

........................................................................
.............................. CYCLE   27 ..............................
........................................................................
   1   -140.7110679 -0.140711E+03  0.485E-02    1.55       0.0  T
   2   -140.7110724 -0.451884E-05  0.286E-02    1.55       1.0  T
   3   -140.7110683  0.406268E-05  0.936E-03    1.55       1.2  T
   4   -140.7110735 -0.522495E-05  0.199E-03    1.55       5.8  T
   5   -140.7110738 -0.234044E-06  0.885E-04    1.55      13.0  T
   6   -140.7110738 -0.111035E-07  0.493E-04    1.55      23.3  T
     SCC iter.                  ...        0 min,  0.170 sec
     gradient                   ...        0 min,  0.156 sec
 * total energy  :  -138.7151829 Eh     change       -0.1048271E-03 Eh
   gradient norm :     0.0064513 Eh/α   predicted    -0.7237142E-04 ( -30.96%)
   displ. norm   :     0.2694283 α      lambda       -0.1609155E-03
   maximum displ.:     0.1212288 α      in ANC's #4, #13, #7, ...

........................................................................
.............................. CYCLE   28 ..............................
........................................................................
   1   -140.7125910 -0.140713E+03  0.491E-02    1.55       0.0  T
   2   -140.7125947 -0.372124E-05  0.287E-02    1.55       1.0  T
   3   -140.7125906  0.412608E-05  0.871E-03    1.55       1.3  T
   4   -140.7125957 -0.513189E-05  0.190E-03    1.55       6.0  T
   5   -140.7125959 -0.202993E-06  0.853E-04    1.55      13.4  T
   6   -140.7125959 -0.842107E-08  0.486E-04    1.55      23.6  T
     SCC iter.                  ...        0 min,  0.166 sec
     gradient                   ...        0 min,  0.126 sec
 * total energy  :  -138.7152987 Eh     change       -0.1157732E-03 Eh
   gradient norm :     0.0055092 Eh/α   predicted    -0.8630141E-04 ( -25.46%)
   displ. norm   :     0.3335842 α      lambda       -0.1387450E-03
   maximum displ.:     0.1548625 α      in ANC's #4, #7, #13, ...

........................................................................
.............................. CYCLE   29 ..............................
........................................................................
   1   -140.7137629 -0.140714E+03  0.614E-02    1.55       0.0  T
   2   -140.7137654 -0.258118E-05  0.359E-02    1.55       1.0  T
   3   -140.7137613  0.409115E-05  0.821E-03    1.55       1.4  T
   4   -140.7137666 -0.523374E-05  0.175E-03    1.55       6.6  T
   5   -140.7137667 -0.860354E-07  0.980E-04    1.55      11.7  T
   6   -140.7137667 -0.588471E-08  0.411E-04    1.55      27.9  T
     SCC iter.                  ...        0 min,  0.164 sec
     gradient                   ...        0 min,  0.148 sec
 * total energy  :  -138.7153896 Eh     change       -0.9087039E-04 Eh
   gradient norm :     0.0056304 Eh/α   predicted    -0.7709764E-04 ( -15.16%)
   displ. norm   :     0.3368651 α      lambda       -0.1336221E-03
   maximum displ.:     0.1614804 α      in ANC's #4, #7, #6, ...

........................................................................
.............................. CYCLE   30 ..............................
........................................................................
   1   -140.7146199 -0.140715E+03  0.623E-02    1.55       0.0  T
   2   -140.7146229 -0.301894E-05  0.364E-02    1.55       1.0  T
   3   -140.7146191  0.381008E-05  0.854E-03    1.55       1.3  T
   4   -140.7146240 -0.488493E-05  0.166E-03    1.55       6.9  T
   5   -140.7146241 -0.108542E-06  0.879E-04    1.55      13.0  T
   6   -140.7146241 -0.898359E-08  0.383E-04    1.55      30.0  T
     SCC iter.                  ...        0 min,  0.165 sec
     gradient                   ...        0 min,  0.141 sec
 * total energy  :  -138.7154742 Eh     change       -0.8466274E-04 Eh
   gradient norm :     0.0038021 Eh/α   predicted    -0.7439331E-04 ( -12.13%)
   displ. norm   :     0.2376869 α      lambda       -0.8430843E-04
   maximum displ.:     0.1198804 α      in ANC's #4, #6, #7, ...

........................................................................
.............................. CYCLE   31 ..............................
........................................................................
   1   -140.7158865 -0.140716E+03  0.431E-02    1.55       0.0  T
   2   -140.7158884 -0.189078E-05  0.252E-02    1.55       1.0  T
   3   -140.7158867  0.161654E-05  0.547E-03    1.55       2.1  T
   4   -140.7158888 -0.205493E-05  0.141E-03    1.55       8.1  T
   5   -140.7158889 -0.106248E-06  0.654E-04    1.55      17.5  T
   6   -140.7158889 -0.529462E-08  0.352E-04    1.55      32.6  T
     SCC iter.                  ...        0 min,  0.165 sec
     gradient                   ...        0 min,  0.126 sec
 * total energy  :  -138.7155426 Eh     change       -0.6834178E-04 Eh
   gradient norm :     0.0024521 Eh/α   predicted    -0.4453937E-04 ( -34.83%)
   displ. norm   :     0.3327810 α      lambda       -0.1080407E-03
   maximum displ.:     0.1676757 α      in ANC's #4, #6, #7, ...

........................................................................
.............................. CYCLE   32 ..............................
........................................................................
   1   -140.7156172 -0.140716E+03  0.641E-02    1.54       0.0  T
   2   -140.7156195 -0.223948E-05  0.375E-02    1.55       1.0  T
   3   -140.7156161  0.337744E-05  0.706E-03    1.54       1.6  T
   4   -140.7156203 -0.424477E-05  0.164E-03    1.54       7.0  T
   5   -140.7156204 -0.920078E-07  0.873E-04    1.54      13.1  T
   6   -140.7156204 -0.697673E-08  0.478E-04    1.54      24.0  T
     SCC iter.                  ...        0 min,  0.165 sec
     gradient                   ...        0 min,  0.150 sec
 * total energy  :  -138.7156288 Eh     change       -0.8622051E-04 Eh
   gradient norm :     0.0030078 Eh/α   predicted    -0.6000354E-04 ( -30.41%)
   displ. norm   :     0.3564860 α      lambda       -0.1167957E-03
   maximum displ.:     0.1851237 α      in ANC's #6, #4, #7, ...

........................................................................
.............................. CYCLE   33 ..............................
........................................................................
   1   -140.7168322 -0.140717E+03  0.628E-02    1.54       0.0  T
   2   -140.7168347 -0.244973E-05  0.367E-02    1.54       1.0  T
   3   -140.7168303  0.441146E-05  0.836E-03    1.54       1.4  T
   4   -140.7168359 -0.563768E-05  0.170E-03    1.54       6.7  T
   5   -140.7168360 -0.591502E-07  0.102E-03    1.54      11.3  T
   6   -140.7168360 -0.119661E-07  0.456E-04    1.54      25.1  T
   7   -140.7168360 -0.736691E-08  0.152E-04    1.54      75.3  T
     SCC iter.                  ...        0 min,  0.192 sec
     gradient                   ...        0 min,  0.138 sec
 * total energy  :  -138.7157192 Eh     change       -0.9039563E-04 Eh
   gradient norm :     0.0048536 Eh/α   predicted    -0.6582060E-04 ( -27.19%)
   displ. norm   :     0.4558241 α      lambda       -0.1241160E-03
   maximum displ.:     0.2328278 α      in ANC's #4, #6, #7, ...

........................................................................
.............................. CYCLE   34 ..............................
........................................................................
   1   -140.7143298 -0.140714E+03  0.826E-02    1.53       0.0  T
   2   -140.7143329 -0.316145E-05  0.484E-02    1.53       1.0  T
   3   -140.7143266  0.637711E-05  0.971E-03    1.52       1.2  T
   4   -140.7143348 -0.822487E-05  0.205E-03    1.52       5.6  T
   5   -140.7143348 -0.412337E-07  0.125E-03    1.52       9.2  T
   6   -140.7143348 -0.253462E-07  0.466E-04    1.52      24.6  T
   7   -140.7143349 -0.867550E-08  0.188E-04    1.52      61.2  T
     SCC iter.                  ...        0 min,  0.189 sec
     gradient                   ...        0 min,  0.155 sec
 * total energy  :  -138.7158161 Eh     change       -0.9694061E-04 Eh
   gradient norm :     0.0048848 Eh/α   predicted    -0.7495336E-04 ( -22.68%)
   displ. norm   :     0.4315267 α      lambda       -0.1459763E-03
   maximum displ.:     0.2346415 α      in ANC's #6, #4, #7, ...

........................................................................
.............................. CYCLE   35 ..............................
........................................................................
   1   -140.7148827 -0.140715E+03  0.711E-02    1.51       0.0  T
   2   -140.7148862 -0.350937E-05  0.416E-02    1.51       1.0  T
   3   -140.7148793  0.694044E-05  0.106E-02    1.51       1.1  T
   4   -140.7148884 -0.909420E-05  0.216E-03    1.51       5.3  T
   5   -140.7148884 -0.387867E-07  0.134E-03    1.51       8.6  T
   6   -140.7148885 -0.332100E-07  0.451E-04    1.51      25.4  T
   7   -140.7148885 -0.880289E-08  0.171E-04    1.51      67.1  T
     SCC iter.                  ...        0 min,  0.193 sec
     gradient                   ...        0 min,  0.145 sec
 * total energy  :  -138.7159321 Eh     change       -0.1159320E-03 Eh
   gradient norm :     0.0041280 Eh/α   predicted    -0.8658722E-04 ( -25.31%)
   displ. norm   :     0.4802195 α      lambda       -0.1624901E-03
   maximum displ.:     0.2596954 α      in ANC's #6, #4, #7, ...

........................................................................
.............................. CYCLE   36 ..............................
........................................................................
   1   -140.7140502 -0.140714E+03  0.777E-02    1.50       0.0  T
   2   -140.7140554 -0.520525E-05  0.456E-02    1.50       1.0  T
   3   -140.7140433  0.120671E-04  0.137E-02    1.50       1.0  T
   4   -140.7140588 -0.155033E-04  0.256E-03    1.50       4.5  T
   5   -140.7140588 -0.549817E-07  0.153E-03    1.50       7.5  T
   6   -140.7140589 -0.352559E-07  0.538E-04    1.50      21.3  T
   7   -140.7140589 -0.121357E-07  0.201E-04    1.50      57.1  T
     SCC iter.                  ...        0 min,  0.196 sec
     gradient                   ...        0 min,  0.140 sec
 * total energy  :  -138.7160564 Eh     change       -0.1243738E-03 Eh
   gradient norm :     0.0050172 Eh/α   predicted    -0.9998215E-04 ( -19.61%)
   displ. norm   :     0.4017464 α      lambda       -0.1719535E-03
   maximum displ.:     0.2096322 α      in ANC's #6, #4, #7, ...

........................................................................
.............................. CYCLE   37 ..............................
........................................................................
   1   -140.7160605 -0.140716E+03  0.655E-02    1.49       0.0  T
   2   -140.7160658 -0.533533E-05  0.385E-02    1.49       1.0  T
   3   -140.7160590  0.686474E-05  0.114E-02    1.49       1.0  T
   4   -140.7160685 -0.951611E-05  0.266E-03    1.49       4.3  T
   5   -140.7160686 -0.142210E-06  0.161E-03    1.49       7.1  T
   6   -140.7160687 -0.371751E-07  0.564E-04    1.49      20.3  T
   7   -140.7160687 -0.130593E-07  0.205E-04    1.49      56.1  T
     SCC iter.                  ...        0 min,  0.195 sec
     gradient                   ...        0 min,  0.138 sec
 * total energy  :  -138.7161644 Eh     change       -0.1079925E-03 Eh
   gradient norm :     0.0049844 Eh/α   predicted    -0.9985803E-04 (  -7.53%)
   displ. norm   :     0.4656901 α      lambda       -0.1372061E-03
   maximum displ.:     0.2487264 α      in ANC's #6, #4, #7, ...

........................................................................
.............................. CYCLE   38 ..............................
........................................................................
   1   -140.7127770 -0.140713E+03  0.751E-02    1.48       0.0  T
   2   -140.7127852 -0.818391E-05  0.443E-02    1.48       1.0  T
   3   -140.7127703  0.148912E-04  0.166E-02    1.48       1.0  T
   4   -140.7127899 -0.195450E-04  0.299E-03    1.48       3.8  T
   5   -140.7127901 -0.272503E-06  0.172E-03    1.48       6.7  T
   6   -140.7127902 -0.308149E-07  0.485E-04    1.48      23.6  T
   7   -140.7127902 -0.908793E-08  0.224E-04    1.48      51.1  T
     SCC iter.                  ...        0 min,  0.198 sec
     gradient                   ...        0 min,  0.145 sec
 * total energy  :  -138.7162514 Eh     change       -0.8701900E-04 Eh
   gradient norm :     0.0066957 Eh/α   predicted    -0.8348349E-04 (  -4.06%)
   displ. norm   :     0.2427697 α      lambda       -0.1676318E-03
   maximum displ.:     0.0958909 α      in ANC's #6, #4, #2, ...

........................................................................
.............................. CYCLE   39 ..............................
........................................................................
   1   -140.7152320 -0.140715E+03  0.440E-02    1.49       0.0  T
   2   -140.7152360 -0.399526E-05  0.258E-02    1.49       1.0  T
   3   -140.7152347  0.134441E-05  0.647E-03    1.49       1.8  T
   4   -140.7152368 -0.214885E-05  0.200E-03    1.49       5.7  T
   5   -140.7152370 -0.197864E-06  0.104E-03    1.49      11.0  T
   6   -140.7152370 -0.225396E-07  0.559E-04    1.49      20.5  T
   7   -140.7152370 -0.454213E-08  0.178E-04    1.49      64.6  T
     SCC iter.                  ...        0 min,  0.189 sec
     gradient                   ...        0 min,  0.122 sec
 * total energy  :  -138.7163614 Eh     change       -0.1099242E-03 Eh
   gradient norm :     0.0067595 Eh/α   predicted    -0.8875656E-04 ( -19.26%)
   displ. norm   :     0.4653024 α      lambda       -0.2170496E-03
   maximum displ.:     0.2375286 α      in ANC's #6, #4, #7, ...

........................................................................
.............................. CYCLE   40 ..............................
........................................................................
   1   -140.7149240 -0.140715E+03  0.752E-02    1.48       0.0  T
   2   -140.7149398 -0.158003E-04  0.447E-02    1.48       1.0  T
   3   -140.7149278  0.120864E-04  0.202E-02    1.48       1.0  T
   4   -140.7149473 -0.195211E-04  0.399E-03    1.48       2.9  T
   5   -140.7149480 -0.731486E-06  0.213E-03    1.48       5.4  T
   6   -140.7149481 -0.577495E-07  0.667E-04    1.48      17.2  T
   7   -140.7149481 -0.856213E-08  0.287E-04    1.48      39.9  T
     SCC iter.                  ...        0 min,  0.187 sec
     gradient                   ...        0 min,  0.157 sec
 * total energy  :  -138.7165153 Eh     change       -0.1539074E-03 Eh
   gradient norm :     0.0065820 Eh/α   predicted    -0.1320238E-03 ( -14.22%)
   displ. norm   :     0.3603284 α      lambda       -0.1912379E-03
   maximum displ.:     0.1600208 α      in ANC's #6, #4, #2, ...

........................................................................
.............................. CYCLE   41 ..............................
........................................................................
   1   -140.7152619 -0.140715E+03  0.606E-02    1.49       0.0  T
   2   -140.7152658 -0.391557E-05  0.355E-02    1.49       1.0  T
   3   -140.7152624  0.335013E-05  0.796E-03    1.49       1.4  T
   4   -140.7152673 -0.486850E-05  0.221E-03    1.49       5.2  T
   5   -140.7152674 -0.132783E-06  0.119E-03    1.49       9.6  T
   6   -140.7152675 -0.197437E-07  0.487E-04    1.49      23.6  T
   7   -140.7152675 -0.384978E-08  0.178E-04    1.49      64.4  T
     SCC iter.                  ...        0 min,  0.192 sec
     gradient                   ...        0 min,  0.145 sec
 * total energy  :  -138.7166519 Eh     change       -0.1365843E-03 Eh
   gradient norm :     0.0066361 Eh/α   predicted    -0.1080355E-03 ( -20.90%)
   displ. norm   :     0.5192237 α      lambda       -0.2072320E-03
   maximum displ.:     0.2447271 α      in ANC's #6, #4, #7, ...

........................................................................
.............................. CYCLE   42 ..............................
........................................................................
   1   -140.7133893 -0.140713E+03  0.832E-02    1.46       0.0  T
   2   -140.7134038 -0.145232E-04  0.492E-02    1.47       1.0  T
   3   -140.7133859  0.178876E-04  0.202E-02    1.47       1.0  T
   4   -140.7134109 -0.250307E-04  0.401E-03    1.47       2.9  T
   5   -140.7134115 -0.587766E-06  0.219E-03    1.47       5.2  T
   6   -140.7134116 -0.816638E-07  0.868E-04    1.47      13.2  T
   7   -140.7134116 -0.812932E-08  0.330E-04    1.47      34.7  T
     SCC iter.                  ...        0 min,  0.189 sec
     gradient                   ...        0 min,  0.133 sec
 * total energy  :  -138.7167855 Eh     change       -0.1336253E-03 Eh
   gradient norm :     0.0096107 Eh/α   predicted    -0.1315525E-03 (  -1.55%)
   displ. norm   :     0.3108721 α      lambda       -0.2662520E-03
   maximum displ.:     0.1377018 α      in ANC's #11, #4, #2, ...
 * RMSD in coord.:     0.7068703 α      energy gain  -0.2468802E-02 Eh

generating ANC from model Hessian ...
Using Lindh-Hessian (1995)
 Shifting diagonal of input Hessian by    9.8693925638756574E-003
 Lowest  eigenvalues of input Hessian
    0.000000    0.000000    0.000000    0.000000    0.000000    0.000000
    0.010000    0.010076    0.010107    0.010212    0.010253    0.010389
    0.010639    0.010700    0.010747    0.011134    0.011427    0.011659
 Highest eigenvalues
    2.201611    2.336117    2.350729    2.397170    2.656333    2.662772


........................................................................
.............................. CYCLE   43 ..............................
........................................................................
   1   -140.7157900 -0.140716E+03  0.599E-02    1.49       0.0  T
   2   -140.7158075 -0.174912E-04  0.357E-02    1.48       1.0  T
   3   -140.7158050  0.244545E-05  0.169E-02    1.48       1.0  T
   4   -140.7158121 -0.705101E-05  0.322E-03    1.48       3.6  T
   5   -140.7158127 -0.653929E-06  0.139E-03    1.48       8.3  T
   6   -140.7158128 -0.591072E-07  0.704E-04    1.48      16.3  T
   7   -140.7158128  0.524807E-09  0.361E-04    1.48      31.8  T
     SCC iter.                  ...        0 min,  0.186 sec
     gradient                   ...        0 min,  0.135 sec
 * total energy  :  -138.7169194 Eh     change       -0.1339268E-03 Eh
   gradient norm :     0.0064636 Eh/α   predicted     0.0000000E+00 (-100.00%)
   displ. norm   :     0.0585800 α      lambda       -0.1219853E-03
   maximum displ.:     0.0200116 α      in ANC's #7, #22, #6, ...

........................................................................
.............................. CYCLE   44 ..............................
........................................................................
   1   -140.7166597 -0.140717E+03  0.199E-02    1.48       0.0  T
   2   -140.7166608 -0.105900E-05  0.118E-02    1.48       1.0  T
   3   -140.7166598  0.959852E-06  0.537E-03    1.48       2.1  T
   4   -140.7166612 -0.136347E-05  0.991E-04    1.48      11.6  T
   5   -140.7166612 -0.723322E-07  0.392E-04    1.48      29.2  T
   6   -140.7166613 -0.283165E-08  0.209E-04    1.48      55.0  T
     SCC iter.                  ...        0 min,  0.172 sec
     gradient                   ...        0 min,  0.133 sec
 * total energy  :  -138.7170056 Eh     change       -0.8614217E-04 Eh
   gradient norm :     0.0031133 Eh/α   predicted    -0.6122636E-04 ( -28.92%)
   displ. norm   :     0.1440103 α      lambda       -0.1649063E-03
   maximum displ.:     0.0524712 α      in ANC's #7, #22, #6, ...

........................................................................
.............................. CYCLE   45 ..............................
........................................................................
   1   -140.7175557 -0.140718E+03  0.416E-02    1.47       0.0  T
   2   -140.7175583 -0.256389E-05  0.245E-02    1.47       1.0  T
   3   -140.7175552  0.313145E-05  0.854E-03    1.47       1.3  T
   4   -140.7175593 -0.410275E-05  0.168E-03    1.47       6.8  T
   5   -140.7175594 -0.144307E-06  0.850E-04    1.47      13.5  T
   6   -140.7175594 -0.115466E-07  0.401E-04    1.47      28.6  T
     SCC iter.                  ...        0 min,  0.169 sec
     gradient                   ...        0 min,  0.143 sec
 * total energy  :  -138.7170707 Eh     change       -0.6514997E-04 Eh
   gradient norm :     0.0049454 Eh/α   predicted    -0.8416410E-04 (  29.19%)
   displ. norm   :     0.0733107 α      lambda       -0.7144597E-04
   maximum displ.:     0.0314515 α      in ANC's #7, #6, #5, ...

........................................................................
.............................. CYCLE   46 ..............................
........................................................................
   1   -140.7172655 -0.140717E+03  0.176E-02    1.47       0.0  T
   2   -140.7172659 -0.346969E-06  0.103E-02    1.47       1.1  T
   3   -140.7172657  0.159245E-06  0.207E-03    1.47       5.5  T
   4   -140.7172660 -0.268710E-06  0.643E-04    1.47      17.8  T
   5   -140.7172660 -0.115176E-07  0.374E-04    1.47      30.7  T
     SCC iter.                  ...        0 min,  0.142 sec
     gradient                   ...        0 min,  0.128 sec
 * total energy  :  -138.7171213 Eh     change       -0.5055628E-04 Eh
   gradient norm :     0.0032237 Eh/α   predicted    -0.3591828E-04 ( -28.95%)
   displ. norm   :     0.1314087 α      lambda       -0.7337653E-04
   maximum displ.:     0.0583252 α      in ANC's #7, #6, #5, ...

........................................................................
.............................. CYCLE   47 ..............................
........................................................................
   1   -140.7167798 -0.140717E+03  0.283E-02    1.46       0.0  T
   2   -140.7167807 -0.831789E-06  0.167E-02    1.46       1.0  T
   3   -140.7167802  0.439810E-06  0.340E-03    1.46       3.4  T
   4   -140.7167810 -0.745579E-06  0.110E-03    1.46      10.5  T
   5   -140.7167810 -0.262607E-07  0.652E-04    1.46      17.6  T
   6   -140.7167810 -0.593207E-08  0.255E-04    1.46      44.9  T
     SCC iter.                  ...        0 min,  0.172 sec
     gradient                   ...        0 min,  0.131 sec
 * total energy  :  -138.7171805 Eh     change       -0.5922042E-04 Eh
   gradient norm :     0.0026686 Eh/α   predicted    -0.3732350E-04 ( -36.98%)
   displ. norm   :     0.2742406 α      lambda       -0.1174863E-03
   maximum displ.:     0.1224910 α      in ANC's #7, #6, #5, ...

........................................................................
.............................. CYCLE   48 ..............................
........................................................................
   1   -140.7157413 -0.140716E+03  0.561E-02    1.45       0.0  T
   2   -140.7157440 -0.269377E-05  0.329E-02    1.46       1.0  T
   3   -140.7157424  0.160464E-05  0.643E-03    1.46       1.8  T
   4   -140.7157452 -0.283003E-05  0.211E-03    1.46       5.4  T
   5   -140.7157453 -0.626953E-07  0.124E-03    1.46       9.2  T
   6   -140.7157453 -0.237211E-07  0.443E-04    1.46      25.9  T
   7   -140.7157453 -0.728630E-08  0.167E-04    1.46      68.8  T
     SCC iter.                  ...        0 min,  0.197 sec
     gradient                   ...        0 min,  0.141 sec
 * total energy  :  -138.7172723 Eh     change       -0.9184104E-04 Eh
   gradient norm :     0.0045312 Eh/α   predicted    -0.6316312E-04 ( -31.23%)
   displ. norm   :     0.3456767 α      lambda       -0.1243471E-03
   maximum displ.:     0.1564403 α      in ANC's #7, #6, #5, ...

........................................................................
.............................. CYCLE   49 ..............................
........................................................................
   1   -140.7146387 -0.140715E+03  0.675E-02    1.45       0.0  T
   2   -140.7146425 -0.374926E-05  0.396E-02    1.45       1.0  T
   3   -140.7146391  0.337148E-05  0.852E-03    1.45       1.3  T
   4   -140.7146444 -0.530278E-05  0.246E-03    1.45       4.7  T
   5   -140.7146445 -0.653855E-07  0.142E-03    1.45       8.1  T
   6   -140.7146445 -0.421880E-07  0.427E-04    1.45      26.9  T
   7   -140.7146445 -0.550156E-08  0.196E-04    1.45      58.6  T
     SCC iter.                  ...        0 min,  0.196 sec
     gradient                   ...        0 min,  0.138 sec
 * total energy  :  -138.7173714 Eh     change       -0.9906104E-04 Eh
   gradient norm :     0.0060096 Eh/α   predicted    -0.6960881E-04 ( -29.73%)
   displ. norm   :     0.3804433 α      lambda       -0.1457758E-03
   maximum displ.:     0.1732582 α      in ANC's #7, #6, #5, ...

........................................................................
.............................. CYCLE   50 ..............................
........................................................................
   1   -140.7144585 -0.140714E+03  0.699E-02    1.45       0.0  T
   2   -140.7144624 -0.393691E-05  0.410E-02    1.45       1.0  T
   3   -140.7144576  0.480019E-05  0.950E-03    1.45       1.2  T
   4   -140.7144645 -0.693128E-05  0.246E-03    1.45       4.7  T
   5   -140.7144646 -0.658425E-07  0.143E-03    1.45       8.0  T
   6   -140.7144647 -0.487561E-07  0.368E-04    1.45      31.1  T
   7   -140.7144647 -0.489376E-08  0.186E-04    1.45      61.7  T
     SCC iter.                  ...        0 min,  0.190 sec
     gradient                   ...        0 min,  0.128 sec
 * total energy  :  -138.7174889 Eh     change       -0.1175471E-03 Eh
   gradient norm :     0.0053782 Eh/α   predicted    -0.8343877E-04 ( -29.02%)
   displ. norm   :     0.4407710 α      lambda       -0.1872167E-03
   maximum displ.:     0.1988236 α      in ANC's #7, #6, #5, ...

........................................................................
.............................. CYCLE   51 ..............................
........................................................................
   1   -140.7153543 -0.140715E+03  0.773E-02    1.45       0.0  T
   2   -140.7153606 -0.626475E-05  0.453E-02    1.45       1.0  T
   3   -140.7153518  0.883054E-05  0.128E-02    1.45       1.0  T
   4   -140.7153635 -0.117361E-04  0.274E-03    1.45       4.2  T
   5   -140.7153637 -0.207704E-06  0.161E-03    1.45       7.1  T
   6   -140.7153638 -0.448194E-07  0.574E-04    1.45      20.0  T
   7   -140.7153638 -0.782182E-08  0.269E-04    1.45      42.6  T
     SCC iter.                  ...        0 min,  0.191 sec
     gradient                   ...        0 min,  0.133 sec
 * total energy  :  -138.7176240 Eh     change       -0.1351154E-03 Eh
   gradient norm :     0.0041226 Eh/α   predicted    -0.1117988E-03 ( -17.26%)
   displ. norm   :     0.4697315 α      lambda       -0.1967215E-03
   maximum displ.:     0.2081315 α      in ANC's #7, #6, #5, ...

........................................................................
.............................. CYCLE   52 ..............................
........................................................................
   1   -140.7160572 -0.140716E+03  0.809E-02    1.45       0.0  T
   2   -140.7160645 -0.733592E-05  0.475E-02    1.45       1.0  T
   3   -140.7160525  0.120618E-04  0.150E-02    1.45       1.0  T
   4   -140.7160682 -0.156938E-04  0.305E-03    1.45       3.8  T
   5   -140.7160685 -0.325957E-06  0.178E-03    1.45       6.4  T
   6   -140.7160685 -0.415011E-07  0.618E-04    1.45      18.6  T
   7   -140.7160685 -0.154423E-07  0.253E-04    1.45      45.4  T
     SCC iter.                  ...        0 min,  0.191 sec
     gradient                   ...        0 min,  0.136 sec
 * total energy  :  -138.7177626 Eh     change       -0.1385402E-03 Eh
   gradient norm :     0.0054177 Eh/α   predicted    -0.1200665E-03 ( -13.33%)
   displ. norm   :     0.4354469 α      lambda       -0.1744907E-03
   maximum displ.:     0.1985953 α      in ANC's #5, #6, #7, ...

........................................................................
.............................. CYCLE   53 ..............................
........................................................................
   1   -140.7167366 -0.140717E+03  0.723E-02    1.45       0.0  T
   2   -140.7167424 -0.574757E-05  0.424E-02    1.45       1.0  T
   3   -140.7167321  0.102661E-04  0.136E-02    1.45       1.0  T
   4   -140.7167453 -0.131582E-04  0.269E-03    1.45       4.3  T
   5   -140.7167455 -0.277145E-06  0.154E-03    1.45       7.4  T
   6   -140.7167456 -0.292628E-07  0.561E-04    1.45      20.4  T
   7   -140.7167456 -0.122866E-07  0.231E-04    1.45      49.7  T
     SCC iter.                  ...        0 min,  0.191 sec
     gradient                   ...        0 min,  0.121 sec
 * total energy  :  -138.7179176 Eh     change       -0.1549993E-03 Eh
   gradient norm :     0.0061083 Eh/α   predicted    -0.1037898E-03 ( -33.04%)
   displ. norm   :     0.5305849 α      lambda       -0.3021643E-03
   maximum displ.:     0.2532916 α      in ANC's #5, #6, #2, ...

........................................................................
.............................. CYCLE   54 ..............................
........................................................................
   1   -140.7199532 -0.140720E+03  0.844E-02    1.45       0.0  T
   2   -140.7199600 -0.670707E-05  0.494E-02    1.45       1.0  T
   3   -140.7199515  0.840596E-05  0.121E-02    1.45       1.0  T
   4   -140.7199626 -0.110941E-04  0.307E-03    1.45       3.7  T
   5   -140.7199629 -0.298962E-06  0.173E-03    1.45       6.6  T
   6   -140.7199630 -0.451908E-07  0.813E-04    1.45      14.1  T
   7   -140.7199630 -0.158861E-07  0.319E-04    1.45      36.0  T
     SCC iter.                  ...        0 min,  0.200 sec
     gradient                   ...        0 min,  0.149 sec
 * total energy  :  -138.7181554 Eh     change       -0.2377966E-03 Eh
   gradient norm :     0.0062532 Eh/α   predicted    -0.1936195E-03 ( -18.58%)
   displ. norm   :     0.7572446 α      lambda       -0.3541624E-03
   maximum displ.:     0.3559429 α      in ANC's #5, #6, #7, ...

........................................................................
.............................. CYCLE   55 ..............................
........................................................................
   1   -140.7126248 -0.140713E+03  0.131E-01    1.37       0.0  T
   2   -140.7126770 -0.521696E-04  0.774E-02    1.38       1.0  T
   3   -140.7126387  0.382723E-04  0.349E-02    1.39       1.0  T
   4   -140.7126964 -0.577107E-04  0.708E-03    1.39       1.6  T
   5   -140.7126996 -0.312256E-05  0.333E-03    1.39       3.4  T
   6   -140.7126998 -0.244237E-06  0.160E-03    1.39       7.2  T
   7   -140.7126998 -0.915992E-08  0.827E-04    1.39      13.9  T
   8   -140.7126999 -0.395896E-07  0.211E-04    1.39      54.5  T
     SCC iter.                  ...        0 min,  0.218 sec
     gradient                   ...        0 min,  0.158 sec
 * total energy  :  -138.7183261 Eh     change       -0.1707591E-03 Eh
   gradient norm :     0.0130289 Eh/α   predicted    -0.2786282E-03 (  63.17%)
   displ. norm   :     0.2910770 α      lambda       -0.2929422E-03
   maximum displ.:     0.1463599 α      in ANC's #5, #10, #2, ...

........................................................................
.............................. CYCLE   56 ..............................
........................................................................
   1   -140.7155742 -0.140716E+03  0.463E-02    1.41       0.0  T
   2   -140.7155818 -0.757154E-05  0.270E-02    1.41       1.0  T
   3   -140.7155800  0.172395E-05  0.943E-03    1.41       1.2  T
   4   -140.7155831 -0.307791E-05  0.239E-03    1.41       4.8  T
   5   -140.7155833 -0.236559E-06  0.121E-03    1.41       9.5  T
   6   -140.7155834 -0.429685E-07  0.652E-04    1.41      17.6  T
   7   -140.7155834 -0.462333E-08  0.210E-04    1.41      54.7  T
     SCC iter.                  ...        0 min,  0.184 sec
     gradient                   ...        0 min,  0.134 sec
 * total energy  :  -138.7185468 Eh     change       -0.2206184E-03 Eh
   gradient norm :     0.0055929 Eh/α   predicted    -0.1588837E-03 ( -27.98%)
   displ. norm   :     0.5673427 α      lambda       -0.2829620E-03
   maximum displ.:     0.2908084 α      in ANC's #5, #6, #2, ...

........................................................................
.............................. CYCLE   57 ..............................
........................................................................
   1   -140.7165742 -0.140717E+03  0.878E-02    1.41       0.0  T
   2   -140.7165817 -0.757215E-05  0.514E-02    1.41       1.0  T
   3   -140.7165695  0.122361E-04  0.140E-02    1.41       1.0  T
   4   -140.7165854 -0.159592E-04  0.313E-03    1.41       3.7  T
   5   -140.7165857 -0.221774E-06  0.182E-03    1.41       6.3  T
   6   -140.7165857 -0.512781E-07  0.695E-04    1.41      16.5  T
   7   -140.7165857 -0.169643E-07  0.287E-04    1.41      40.0  T
     SCC iter.                  ...        0 min,  0.188 sec
     gradient                   ...        0 min,  0.124 sec
 * total energy  :  -138.7187886 Eh     change       -0.2418589E-03 Eh
   gradient norm :     0.0054349 Eh/α   predicted    -0.1870226E-03 ( -22.67%)
   displ. norm   :     0.6253331 α      lambda       -0.3390942E-03
   maximum displ.:     0.3264334 α      in ANC's #5, #2, #6, ...

........................................................................
.............................. CYCLE   58 ..............................
........................................................................
   1   -140.7182768 -0.140718E+03  0.981E-02    1.39       0.0  T
   2   -140.7182880 -0.111328E-04  0.574E-02    1.39       1.0  T
   3   -140.7182738  0.141790E-04  0.165E-02    1.40       1.0  T
   4   -140.7182927 -0.188587E-04  0.349E-03    1.40       3.3  T
   5   -140.7182930 -0.351227E-06  0.201E-03    1.40       5.7  T
   6   -140.7182931 -0.674148E-07  0.755E-04    1.40      15.2  T
   7   -140.7182931 -0.103994E-07  0.329E-04    1.40      34.9  T
     SCC iter.                  ...        0 min,  0.195 sec
     gradient                   ...        0 min,  0.146 sec
 * total energy  :  -138.7190768 Eh     change       -0.2881483E-03 Eh
   gradient norm :     0.0059717 Eh/α   predicted    -0.2358566E-03 ( -18.15%)
   displ. norm   :     0.7602610 α      lambda       -0.3592009E-03
   maximum displ.:     0.3988397 α      in ANC's #5, #2, #6, ...

........................................................................
.............................. CYCLE   59 ..............................
........................................................................
   1   -140.7151504 -0.140715E+03  0.122E-01    1.38       0.0  T
   2   -140.7151825 -0.320616E-04  0.717E-02    1.38       1.0  T
   3   -140.7151483  0.341496E-04  0.287E-02    1.38       1.0  T
   4   -140.7151954 -0.470642E-04  0.541E-03    1.38       2.1  T
   5   -140.7151971 -0.175080E-05  0.265E-03    1.38       4.3  T
   6   -140.7151972 -0.588037E-07  0.110E-03    1.38      10.4  T
   7   -140.7151972 -0.435831E-07  0.430E-04    1.38      26.7  T
   8   -140.7151972 -0.797203E-08  0.181E-04    1.38      63.2  T
     SCC iter.                  ...        0 min,  0.219 sec
     gradient                   ...        0 min,  0.148 sec
 * total energy  :  -138.7193501 Eh     change       -0.2733527E-03 Eh
   gradient norm :     0.0097968 Eh/α   predicted    -0.2834164E-03 (   3.68%)
   displ. norm   :     0.5389806 α      lambda       -0.4121864E-03
   maximum displ.:     0.2699819 α      in ANC's #5, #4, #2, ...

........................................................................
.............................. CYCLE   60 ..............................
........................................................................
   1   -140.7228359 -0.140723E+03  0.849E-02    1.35       0.0  T
   2   -140.7228743 -0.384719E-04  0.498E-02    1.35       1.0  T
   3   -140.7228704  0.394139E-05  0.230E-02    1.35       1.0  T
   4   -140.7228841 -0.137223E-04  0.413E-03    1.35       2.8  T
   5   -140.7228849 -0.793402E-06  0.197E-03    1.35       5.8  T
   6   -140.7228850 -0.895978E-07  0.984E-04    1.35      11.7  T
   7   -140.7228850 -0.683798E-08  0.431E-04    1.35      26.6  T
     SCC iter.                  ...        0 min,  0.188 sec
     gradient                   ...        0 min,  0.140 sec
 * total energy  :  -138.7195519 Eh     change       -0.2018183E-03 Eh
   gradient norm :     0.0086490 Eh/α   predicted    -0.2659661E-03 (  31.78%)
   displ. norm   :     0.5465979 α      lambda       -0.3604086E-03
   maximum displ.:     0.2953630 α      in ANC's #5, #2, #4, ...

........................................................................
.............................. CYCLE   61 ..............................
........................................................................
   1   -140.7148844 -0.140715E+03  0.927E-02    1.34       0.0  T
   2   -140.7148995 -0.151063E-04  0.546E-02    1.33       1.0  T
   3   -140.7148819  0.175564E-04  0.188E-02    1.34       1.0  T
   4   -140.7149049 -0.229879E-04  0.358E-03    1.34       3.2  T
   5   -140.7149056 -0.654300E-06  0.188E-03    1.34       6.1  T
   6   -140.7149056 -0.666976E-07  0.875E-04    1.34      13.1  T
   7   -140.7149056 -0.135871E-07  0.386E-04    1.34      29.7  T
     SCC iter.                  ...        0 min,  0.194 sec
     gradient                   ...        0 min,  0.169 sec
 * total energy  :  -138.7197551 Eh     change       -0.2032094E-03 Eh
   gradient norm :     0.0081105 Eh/α   predicted    -0.2340626E-03 (  15.18%)
   displ. norm   :     0.2664409 α      lambda       -0.2277829E-03
   maximum displ.:     0.1402913 α      in ANC's #5, #4, #2, ...

........................................................................
.............................. CYCLE   62 ..............................
........................................................................
   1   -140.7161393 -0.140716E+03  0.427E-02    1.34       0.0  T
   2   -140.7161438 -0.447625E-05  0.249E-02    1.34       1.0  T
   3   -140.7161413  0.245530E-05  0.797E-03    1.34       1.4  T
   4   -140.7161449 -0.362136E-05  0.188E-03    1.34       6.1  T
   5   -140.7161451 -0.145642E-06  0.977E-04    1.34      11.7  T
   6   -140.7161451 -0.170445E-07  0.486E-04    1.34      23.6  T
     SCC iter.                  ...        0 min,  0.167 sec
[...]
       124                         -0.3341751              -9.0934 (LUMO)
       125                         -0.3176965              -8.6450
       126                         -0.2877588              -7.8303
       127                         -0.2830762              -7.7029
       128                         -0.2745932              -7.4721
       129                         -0.2728248              -7.4239
       130                         -0.2663942              -7.2490
       131                         -0.2594027              -7.0587
       132                         -0.2471547              -6.7254
       133                         -0.2450974              -6.6694
       134                         -0.2359016              -6.4192
       ...                                ...                  ...
       226                          0.6917230              18.8227
      -------------------------------------------------------------
                  HL-Gap            0.0502453 Eh            1.3672 eV
             Fermi-level           -0.3592977 Eh           -9.7770 eV

     #   Z          covCN         q      C6AA      α(0)
     1   6 C        2.919    -0.033    28.818     8.803
     2   6 C        2.917    -0.032    28.801     8.800
     3   6 C        2.987     0.015    27.672     8.629
     4   6 C        2.918    -0.033    28.824     8.804
     5   6 C        2.916    -0.027    28.677     8.781
     6   6 C        2.916    -0.027    28.671     8.781
     7   6 C        2.918    -0.032    28.807     8.801
     8   6 C        2.987     0.015    27.669     8.629
     9   6 C        2.922    -0.043    29.058     8.840
    10   6 C        2.968    -0.002    28.065     8.690
    11   6 C        3.827     0.037    19.938     6.354
    12   6 C        3.835     0.036    19.947     6.354
    13   6 C        2.967     0.000    28.016     8.682
    14   6 C        2.922    -0.042    29.042     8.837
    15   6 C        2.987     0.013    27.722     8.637
    16   6 C        2.918    -0.036    28.885     8.813
    17   6 C        2.916    -0.029    28.714     8.787
    18   6 C        2.916    -0.029    28.721     8.788
    19   6 C        2.918    -0.034    28.851     8.808
    20   6 C        2.987     0.012    27.737     8.639
    21   6 C        2.917    -0.033    28.824     8.804
    22   6 C        2.920    -0.038    28.947     8.823
    23   7 N        2.772    -0.106    23.322     7.173
    24   6 C        2.760     0.274    22.372     7.746
    25   6 C        2.975    -0.010    28.260     8.720
    26   6 C        2.921    -0.011    28.284     8.721
    27   6 C        2.921    -0.018    28.453     8.747
    28   6 C        2.918    -0.013    28.340     8.730
    29   6 C        2.917     0.015    27.679     8.627
    30   7 N        2.760     0.565    13.316     5.420
    31   8 O        0.930    -0.367    21.004     6.146
    32   8 O        0.930    -0.395    21.551     6.226
    33   6 C        2.924    -0.027    28.678     8.782
    34   8 O        0.859    -0.402    21.718     6.248
    35   6 C        3.769     0.080    19.279     6.258
    36   6 C        2.687     0.350    21.052     7.509
    37   8 O        1.659    -0.355    20.001     6.037
    38   8 O        0.856    -0.388    21.449     6.209
    39   7 N        2.766    -0.111    23.431     7.189
    40   6 C        2.762     0.273    22.392     7.749
    41   6 C        2.976    -0.009    28.249     8.718
    42   6 C        2.920    -0.027    28.674     8.781
    43   6 C        2.918     0.008    27.852     8.654
    44   7 N        2.760     0.552    13.459     5.449
    45   8 O        0.930    -0.405    21.748     6.254
    46   8 O        0.930    -0.365    20.961     6.140
    47   6 C        2.918    -0.019    28.485     8.752
    48   6 C        2.920    -0.021    28.523     8.758
    49   6 C        2.925    -0.012    28.314     8.726
    50   8 O        0.859    -0.406    21.800     6.260
    51   1 H        0.926     0.051     2.303     2.373
    52   1 H        0.926     0.041     2.440     2.443
    53   1 H        0.926     0.035     2.515     2.480
    54   1 H        0.926     0.034     2.524     2.484
    55   1 H        0.926     0.035     2.513     2.479
    56   1 H        0.926     0.034     2.531     2.488
    57   1 H        0.926     0.030     2.591     2.517
    58   1 H        0.924     0.074     2.041     2.234
    59   1 H        0.924     0.088     1.902     2.157
    60   1 H        0.926     0.033     2.541     2.493
    61   1 H        0.926     0.037     2.493     2.469
    62   1 H        0.926     0.035     2.516     2.480
    63   1 H        0.926     0.035     2.519     2.482
    64   1 H        0.926     0.036     2.508     2.476
    65   1 H        0.926     0.041     2.440     2.443
    66   1 H        0.926     0.036     2.499     2.472
    67   1 H        0.926     0.065     2.144     2.290
    68   1 H        0.926     0.064     2.149     2.292
    69   1 H        0.926     0.089     1.891     2.150
    70   1 H        0.925     0.073     2.052     2.240
    71   1 H        0.924     0.079     1.994     2.209
    72   1 H        0.804     0.346     0.597     1.213
    73   1 H        0.926     0.083     1.952     2.185
    74   1 H        0.926     0.084     1.939     2.177
    75   1 H        0.926     0.065     2.146     2.291
    76   1 H        0.926     0.071     2.069     2.250

 Mol. C6AA /au·bohr⁶  :      84014.497469
 Mol. C8AA /au·bohr⁸  :    2078754.805443
 Mol. α(0) /au        :        456.883646


Wiberg/Mayer (AO) data.
largest (>0.10) Wiberg bond orders for each atom

 ---------------------------------------------------------------------------
     #   Z sym  total        # sym  WBO       # sym  WBO       # sym  WBO
 ---------------------------------------------------------------------------
     1   6 C    3.989 --     2 C    1.560    10 C    1.297    51 H    0.966
     2   6 C    3.991 --     1 C    1.560     3 C    1.279    52 H    0.967
                             9 C    0.115
     3   6 C    3.990 --     4 C    1.280     2 C    1.279     8 C    1.250
     4   6 C    3.992 --     5 C    1.558     3 C    1.280    53 H    0.968
                             7 C    0.118
     5   6 C    3.990 --     4 C    1.558     6 C    1.320    54 H    0.971
     6   6 C    3.992 --     7 C    1.559     5 C    1.320    55 H    0.971
     7   6 C    3.990 --     6 C    1.559     8 C    1.278    56 H    0.968
                             4 C    0.118
     8   6 C    3.991 --     9 C    1.283     7 C    1.278     3 C    1.250
     9   6 C    3.991 --    10 C    1.526     8 C    1.283    57 H    0.961
                             2 C    0.115
    10   6 C    3.983 --     9 C    1.526     1 C    1.297    11 C    0.984
    11   6 C    3.953 --    10 C    0.984    12 C    0.963    58 H    0.950
                            39 N    0.942
    12   6 C    3.956 --    13 C    0.987    11 C    0.963    23 N    0.960
                            59 H    0.940
    13   6 C    3.985 --    14 C    1.531    22 C    1.289    12 C    0.987
    14   6 C    3.991 --    13 C    1.531    15 C    1.277    60 H    0.963
                            21 C    0.113
    15   6 C    3.990 --    16 C    1.280    14 C    1.277    20 C    1.253
    16   6 C    3.990 --    17 C    1.556    15 C    1.280    61 H    0.968
                            19 C    0.118
    17   6 C    3.992 --    16 C    1.556    18 C    1.322    62 H    0.971
    18   6 C    3.990 --    19 C    1.555    17 C    1.322    63 H    0.971
    19   6 C    3.991 --    18 C    1.555    20 C    1.282    64 H    0.968
                            16 C    0.118
    20   6 C    3.990 --    19 C    1.282    21 C    1.274    15 C    1.253
    21   6 C    3.991 --    22 C    1.567    20 C    1.274    65 H    0.967
                            14 C    0.113
    22   6 C    3.991 --    21 C    1.567    13 C    1.289    66 H    0.967
    23   7 N    3.469 --    24 C    1.197    35 C    0.990    12 C    0.960
                            34 O    0.190
    24   6 C    3.947 --    34 O    1.708    23 N    1.197    25 C    0.958
    25   6 C    3.988 --    33 C    1.407    26 C    1.404    24 C    0.958
                            28 C    0.104
    26   6 C    3.987 --    27 C    1.434    25 C    1.404    67 H    0.967
    27   6 C    3.989 --    28 C    1.448    26 C    1.434    68 H    0.967
                            33 C    0.107
    28   6 C    3.983 --    27 C    1.448    29 C    1.385    69 H    0.960
                            25 C    0.104
    29   6 C    3.967 --    33 C    1.393    28 C    1.385    30 N    0.954
    30   7 N    3.919 --    31 O    1.474    32 O    1.446    29 C    0.954
    31   8 O    1.954 --    30 N    1.474    32 O    0.364
    32   8 O    1.926 --    30 N    1.446    31 O    0.364
    33   6 C    3.987 --    25 C    1.407    29 C    1.393    70 H    0.957
                            27 C    0.107
    34   8 O    2.039 --    24 C    1.708    23 N    0.190
    35   6 C    3.972 --    23 N    0.990    39 N    0.988    71 H    0.925
                            36 C    0.906
    36   6 C    3.919 --    38 O    1.775    37 O    1.164    35 C    0.906
    37   8 O    2.229 --    36 C    1.164    72 H    0.853    38 O    0.184
    38   8 O    2.057 --    36 C    1.775    37 O    0.184
    39   7 N    3.467 --    40 C    1.215    35 C    0.988    11 C    0.942
                            50 O    0.194
    40   6 C    3.953 --    50 O    1.696    39 N    1.215    41 C    0.961
    41   6 C    3.987 --    42 C    1.415    49 C    1.397    40 C    0.961
                            47 C    0.103
    42   6 C    3.986 --    41 C    1.415    43 C    1.388    73 H    0.955
                            48 C    0.106
    43   6 C    3.964 --    42 C    1.388    47 C    1.381    44 N    0.960
    44   7 N    3.913 --    46 O    1.472    45 O    1.435    43 C    0.960
    45   8 O    1.917 --    44 N    1.435    46 O    0.362
    46   8 O    1.955 --    44 N    1.472    45 O    0.362
    47   6 C    3.984 --    48 C    1.447    43 C    1.381    74 H    0.961
                            41 C    0.103
    48   6 C    3.989 --    47 C    1.447    49 C    1.437    75 H    0.967
                            42 C    0.106
    49   6 C    3.986 --    48 C    1.437    41 C    1.397    76 H    0.966
    50   8 O    2.028 --    40 C    1.696    39 N    0.194
    51   1 H    0.997 --     1 C    0.966
    52   1 H    0.997 --     2 C    0.967
    53   1 H    0.998 --     4 C    0.968
    54   1 H    0.998 --     5 C    0.971
    55   1 H    0.998 --     6 C    0.971
    56   1 H    0.998 --     7 C    0.968
    57   1 H    0.999 --     9 C    0.961
    58   1 H    0.993 --    11 C    0.950
    59   1 H    0.990 --    12 C    0.940
    60   1 H    0.998 --    14 C    0.963
    61   1 H    0.998 --    16 C    0.968
    62   1 H    0.998 --    17 C    0.971
    63   1 H    0.998 --    18 C    0.971
    64   1 H    0.998 --    19 C    0.968
    65   1 H    0.997 --    21 C    0.967
    66   1 H    0.998 --    22 C    0.967
    67   1 H    0.996 --    26 C    0.967
    68   1 H    0.995 --    27 C    0.967
    69   1 H    0.992 --    28 C    0.960
    70   1 H    0.995 --    33 C    0.957
    71   1 H    0.994 --    35 C    0.925
    72   1 H    0.880 --    37 O    0.853
    73   1 H    0.993 --    42 C    0.955
    74   1 H    0.992 --    47 C    0.961
    75   1 H    0.995 --    48 C    0.967
    76   1 H    0.995 --    49 C    0.966
 ---------------------------------------------------------------------------

Topologies differ in total number of bonds
Writing topology from bond orders to xtbtopo.mol

molecular dipole:
                 x           y           z       tot (Debye)
 q only:        0.432       3.111       0.886
   full:        0.485       3.221       0.515       8.382
molecular quadrupole (traceless):
                xx          xy          yy          xz          yz          zz
 q only:        3.525      -7.279       2.112     -11.986     -30.799      -5.637
  q+dip:        0.633      -4.773       9.458     -19.377     -32.064     -10.091
   full:        1.480      -4.338       5.883     -13.100     -34.015      -7.363

           -------------------------------------------------
          |                Geometry Summary                 |
           -------------------------------------------------

      molecular mass/u    :      666.6364759
   center of mass at/Å    :       -0.0394018      -0.2170688      -0.2970477
  moments of inertia/u·Å² :        0.6852249E+04   0.9410767E+04   0.1164347E+05
rotational constants/cm⁻¹ :        0.2460160E-02   0.1791313E-02   0.1447818E-02

 * 75 selected distances

     #   Z          #   Z                                           value/Å
     1   6 C        2   6 C                                       1.3654909
     2   6 C        3   6 C                                       1.4101918
     3   6 C        4   6 C                                       1.4101256
     4   6 C        5   6 C                                       1.3667604
     5   6 C        6   6 C                                       1.4041996
     6   6 C        7   6 C                                       1.3663343
     3   6 C        8   6 C                                       1.4187958
     7   6 C        8   6 C                                       1.4106052
     8   6 C        9   6 C                                       1.4089192
     1   6 C       10   6 C                                       1.4085378
     9   6 C       10   6 C                                       1.3712753
    11   6 C       12   6 C                                       1.5440355 (max)
    13   6 C       14   6 C                                       1.3693108
    14   6 C       15   6 C                                       1.4102156
    15   6 C       16   6 C                                       1.4103586
    16   6 C       17   6 C                                       1.3669465
    17   6 C       18   6 C                                       1.4039195
    18   6 C       19   6 C                                       1.3671034
    15   6 C       20   6 C                                       1.4185098
    19   6 C       20   6 C                                       1.4098430
    20   6 C       21   6 C                                       1.4107549
    13   6 C       22   6 C                                       1.4098750
    21   6 C       22   6 C                                       1.3648233
    12   6 C       23   7 N                                       1.4558185
    23   7 N       24   6 C                                       1.3616850
    25   6 C       26   6 C                                       1.3896903
    26   6 C       27   6 C                                       1.3869167
    27   6 C       28   6 C                                       1.3834176
    28   6 C       29   6 C                                       1.3874883
    30   7 N       31   8 O                                       1.2065916
    30   7 N       32   8 O                                       1.2133865
    25   6 C       33   6 C                                       1.3895856
    29   6 C       33   6 C                                       1.3861496
    24   6 C       34   8 O                                       1.2102387
    23   7 N       35   6 C                                       1.4376219
    36   6 C       37   8 O                                       1.3262797
    36   6 C       38   8 O                                       1.1990389
    11   6 C       39   7 N                                       1.4686912
    35   6 C       39   7 N                                       1.4411914
    39   7 N       40   6 C                                       1.3563486
    41   6 C       42   6 C                                       1.3874614
    42   6 C       43   6 C                                       1.3882075
    44   7 N       45   8 O                                       1.2155286
    44   7 N       46   8 O                                       1.2074649
    43   6 C       47   6 C                                       1.3890226
    47   6 C       48   6 C                                       1.3827542
    41   6 C       49   6 C                                       1.3926231
    48   6 C       49   6 C                                       1.3855115
    40   6 C       50   8 O                                       1.2111942
     1   6 C       51   1 H                                       1.0789673
     2   6 C       52   1 H                                       1.0803283
     4   6 C       53   1 H                                       1.0806484
     5   6 C       54   1 H                                       1.0800948
     6   6 C       55   1 H                                       1.0799685
     7   6 C       56   1 H                                       1.0810103
     9   6 C       57   1 H                                       1.0805388
    11   6 C       58   1 H                                       1.0945915
    12   6 C       59   1 H                                       1.0959888
    14   6 C       60   1 H                                       1.0805106
    16   6 C       61   1 H                                       1.0806319
    17   6 C       62   1 H                                       1.0800046
    18   6 C       63   1 H                                       1.0799955
    19   6 C       64   1 H                                       1.0805308
    21   6 C       65   1 H                                       1.0803341
    22   6 C       66   1 H                                       1.0800205
    26   6 C       67   1 H                                       1.0788928
    27   6 C       68   1 H                                       1.0787609
    28   6 C       69   1 H                                       1.0786410
    33   6 C       70   1 H                                       1.0817567
    35   6 C       71   1 H                                       1.0950827
    37   8 O       72   1 H                                       0.9714143 (min)
    42   6 C       73   1 H                                       1.0806703
    47   6 C       74   1 H                                       1.0793060
    48   6 C       75   1 H                                       1.0788158
    49   6 C       76   1 H                                       1.0794967

 * 6 distinct bonds (by element types)

   Z      Z             #   av. dist./Å        max./Å        min./Å
   1 H    6 C          25     1.0818235     1.0959888     1.0786410
   6 C    6 C          35     1.3964503     1.5440355     1.3648233
   6 C    7 N           6     1.4202261     1.4686912     1.3563486
   1 H    8 O           1     0.9714143     0.9714143     0.9714143
   6 C    8 O           4     1.2366879     1.3262797     1.1990389
   7 N    8 O           4     1.2107429     1.2155286     1.2065916


optimized geometry written to: xtbopt.xyz


           -------------------------------------------------
          | TOTAL ENERGY             -138.721577396685 Eh   |
          | GRADIENT NORM               0.000832763771 Eh/α |
          | HOMO-LUMO GAP               1.367244015121 eV   |
           -------------------------------------------------

------------------------------------------------------------------------
 * finished run on 2022/03/17 at 01:56:02.244     
------------------------------------------------------------------------
 total:
 * wall-time:     0 d,  0 h,  0 min, 50.189 sec
 *  cpu-time:     0 d,  0 h, 16 min, 26.400 sec
 * ratio c/w:    19.654 speedup
 SCF:
 * wall-time:     0 d,  0 h,  0 min,  0.636 sec
 *  cpu-time:     0 d,  0 h,  0 min,  9.815 sec
 * ratio c/w:    15.429 speedup
 ANC optimizer:
 * wall-time:     0 d,  0 h,  0 min, 49.389 sec
 *  cpu-time:     0 d,  0 h, 16 min, 12.398 sec
 * ratio c/w:    19.689 speedup

