76
 energy: -138.674603777423 gnorm: 0.160922320370 xtb: 6.3.3 (4ae9cef)
C        -3.02685900000000   -0.71603600000000    2.15637600000000
C        -3.68424200000000   -1.87940700000000    2.57200300000000
C        -2.96968900000000   -3.05898400000000    2.80273700000000
C        -3.61549100000000   -4.24415100000000    3.19077100000000
C        -2.88179000000000   -5.41283600000000    3.40792400000000
C        -1.49775100000000   -5.41062900000000    3.24789900000000
C        -0.84311800000000   -4.23812800000000    2.86540100000000
C        -1.56657100000000   -3.05350500000000    2.63561600000000
C        -0.92476800000000   -1.86581900000000    2.23168200000000
C        -1.63587400000000   -0.68507000000000    1.95714800000000
C        -0.98611900000000    0.60498100000000    1.42140700000000
C         0.54806800000000    0.72017800000000    1.64220800000000
C         1.04076300000000    2.16839200000000    1.74460400000000
C         2.20779700000000    2.61155000000000    1.09957000000000
C         2.63891400000000    3.95079600000000    1.17004100000000
C         3.78209600000000    4.39583100000000    0.48058800000000
C         4.18637200000000    5.73057900000000    0.54545500000000
C         3.45458900000000    6.63922700000000    1.30291400000000
C         2.32371300000000    6.21136200000000    2.00432100000000
C         1.90623000000000    4.87190200000000    1.94704400000000
C         0.78289200000000    4.42403500000000    2.65143400000000
C         0.36986700000000    3.09103400000000    2.56265500000000
N         1.06343700000000   -0.00043800000000    0.46060600000000
C         2.17267500000000   -0.81324400000000    0.57085200000000
C         2.47467600000000   -1.76233200000000   -0.51278900000000
C         3.51752800000000   -1.48180300000000   -1.39941100000000
C         3.86119100000000   -2.41272600000000   -2.38245900000000
C         3.17682500000000   -3.62796300000000   -2.46347500000000
C         2.15127900000000   -3.91166400000000   -1.54820800000000
N         1.45286900000000   -5.20352400000000   -1.60253300000000
O         1.82952200000000   -6.02751900000000   -2.44987800000000
O         0.52506800000000   -5.38507300000000   -0.79755800000000
C         1.79098700000000   -2.97956100000000   -0.56715500000000
O         2.92720400000000   -0.81357200000000    1.53982900000000
C         0.08091300000000    0.02069700000000   -0.64393500000000
C         0.69883200000000    0.65252300000000   -1.92726100000000
O         1.83614000000000    1.35290600000000   -1.74838000000000
O         0.23691900000000    0.57405000000000   -3.05689300000000
N        -1.09331700000000    0.66885700000000   -0.04554300000000
C        -2.27063200000000    1.10760600000000   -0.61123500000000
C        -2.42204900000000    1.18042700000000   -2.06520700000000
C        -2.93213500000000    0.09654900000000   -2.78388200000000
C        -3.15093200000000    0.25956400000000   -4.15869800000000
N        -3.71029300000000   -0.85008200000000   -4.94566500000000
O        -3.97816300000000   -1.90663600000000   -4.35404900000000
O        -3.89466300000000   -0.66116900000000   -6.15763500000000
C        -2.87681800000000    1.48728000000000   -4.79622700000000
C        -2.38504100000000    2.56414300000000   -4.05286100000000
C        -2.16933000000000    2.41797000000000   -2.68344200000000
O        -3.21814600000000    1.54775100000000    0.03518400000000
H        -3.62896200000000    0.17733800000000    1.98028000000000
H        -4.76230800000000   -1.85415200000000    2.70020300000000
H        -4.69512300000000   -4.26706500000000    3.32688600000000
H        -3.39258700000000   -6.32391600000000    3.70595300000000
H        -0.92797900000000   -6.32138700000000    3.41923000000000
H         0.24058800000000   -4.26338300000000    2.74357000000000
H         0.15668200000000   -1.89216700000000    2.13688800000000
H        -1.53728800000000    1.43995300000000    1.86586300000000
H         0.87963700000000    0.22998200000000    2.56458400000000
H         2.81066800000000    1.90844500000000    0.53168100000000
H         4.36730100000000    3.70035500000000   -0.11553800000000
H         5.07646200000000    6.05859900000000    0.00574300000000
H         3.76875000000000    7.67844900000000    1.35475700000000
H         1.76411200000000    6.93360200000000    2.59548500000000
H         0.21483900000000    5.10607700000000    3.28004000000000
H        -0.48747100000000    2.79248600000000    3.16048900000000
H         4.06778900000000   -0.54846100000000   -1.31570500000000
H         4.67803100000000   -2.20035300000000   -3.06916900000000
H         3.46960400000000   -4.35023200000000   -3.22406900000000
H         1.01228000000000   -3.20017200000000    0.15933300000000
H        -0.19059800000000   -1.01419600000000   -0.88799600000000
H         2.05650700000000    1.68943300000000   -2.64530300000000
H        -3.18166100000000   -0.83262400000000   -2.27278300000000
H        -3.04805000000000    1.61757400000000   -5.86341800000000
H        -2.18918100000000    3.52071500000000   -4.53293800000000
H        -1.82562300000000    3.26678300000000   -2.09595500000000
76
 energy: -138.698322134372 gnorm: 0.061780019834 xtb: 6.3.3 (4ae9cef)
C        -3.02029267722101   -0.71992934844838    2.15405648508982
C        -3.67342800578114   -1.86417068148128    2.56305395618519
C        -2.96813306983610   -3.05571849892411    2.79940692267038
C        -3.60948554251122   -4.24624289056117    3.19203269935493
C        -2.88227764216160   -5.39663083124940    3.40654809709853
C        -1.49474375537388   -5.39295991104205    3.24355281495155
C        -0.84199561525081   -4.23940798309492    2.86584453942466
C        -1.55815879360048   -3.04941592874397    2.63145434835473
C        -0.91925899222142   -1.86085706531280    2.21896944720601
C        -1.62611130650501   -0.69842061828021    1.95755463603396
C        -0.97887380331925    0.58905240026953    1.42974903806171
C         0.54591988809677    0.73390127689755    1.63788042163288
C         1.04350369810682    2.17774655581383    1.73305008071639
C         2.19497919305842    2.60429328122212    1.09277236376453
C         2.63796445005813    3.94171785763580    1.16736206992642
C         3.78286089291652    4.39340235983818    0.48133518642653
C         4.17684102942731    5.71288078898402    0.55015309744252
C         3.44470537770208    6.62738586025592    1.31033877964962
C         2.32676573423498    6.21296547245522    2.00114871283414
C         1.90202343954626    4.87186552966664    1.94595197018035
C         0.77743585154257    4.41057790034700    2.65037096655408
C         0.36821931450732    3.09770170812123    2.55369585655169
N         1.05677443292137    0.00524946321747    0.46979272129741
C         2.15483852659204   -0.80061544293822    0.57632077408034
C         2.45303585689115   -1.75227775879012   -0.53107081217783
C         3.50311147244394   -1.48786388172594   -1.40762292543634
C         3.85386577202228   -2.42158248820381   -2.37401107368050
C         3.17654088710393   -3.62967085502074   -2.45570651711051
C         2.15590793741422   -3.90570439429223   -1.54939483988591
N         1.46150554454808   -5.18497255342835   -1.60419002078478
O         1.83431482203700   -5.99777590348218   -2.43217408741987
O         0.55165955588244   -5.36523929080609   -0.81151991852289
C         1.78799732716351   -2.97390506659929   -0.58277808360587
O         2.89065768240708   -0.78646664727918    1.54512995154034
C         0.08569778918206    0.01403424576262   -0.62829055802094
C         0.66052519785124    0.67644680728221   -1.90429269896441
O         1.80956909759203    1.34044753304953   -1.72957127724983
O         0.20502187539912    0.54693258892965   -3.01361166575433
N        -1.08278439099066    0.66355065107146   -0.03671751178829
C        -2.24482862701378    1.11166355108247   -0.60066514722797
C        -2.39293437242920    1.17312093016872   -2.07599946044168
C        -2.92044463190652    0.10662906701978   -2.79521543505547
C        -3.15318640344082    0.27077287677518   -4.15856775754211
N        -3.70709200928728   -0.83001037218539   -4.93435797429511
O        -3.95789225571735   -1.87100143332514   -4.35038743393083
O        -3.88282808034910   -0.65110797636883   -6.12820270577034
C        -2.87802886256138    1.48081453568388   -4.79391017828689
C        -2.39465386605660    2.54941396817701   -4.05382112445171
C        -2.16444801204440    2.40312887295474   -2.69503001370496
O        -3.17375358031060    1.53289603029780    0.06682349429768
H        -3.60812852881881    0.17234376672337    1.97340983870372
H        -4.74671139126915   -1.84175276301271    2.69719504463403
H        -4.68403553187987   -4.26291572328840    3.32312262511651
H        -3.38845992000161   -6.30711389825138    3.70123486452547
H        -0.93075154464735   -6.30145143885302    3.41290384290940
H         0.23426416106550   -4.25862484419222    2.74419798427970
H         0.15848398604619   -1.88513221401725    2.12568727545713
H        -1.53203467927641    1.43442368385539    1.84887181504088
H         0.87771131823020    0.22245157133971    2.54836638213797
H         2.78822145417552    1.90385697937012    0.52200906297362
H         4.36148607440776    3.69799167537620   -0.11231131562989
H         5.05889553400679    6.04306822358337    0.01274836723695
H         3.75874489743091    7.66256729355873    1.35832535475436
H         1.76832719676025    6.92799334975486    2.59166054564515
H         0.21966306499776    5.09206800727570    3.27921237042733
H        -0.48451978432051    2.78933093567658    3.14529226285738
H         4.05195469663731   -0.55945461836823   -1.32103567832965
H         4.66208536297045   -2.20871594496993   -3.06113595392095
H         3.45312654254315   -4.35380794788717   -3.21071127768787
H         1.01251185009177   -3.20630490558438    0.13625290344465
H        -0.17819861052504   -1.02031825035897   -0.90667754231628
H         2.06476357293809    1.67657583700951   -2.61292465188194
H        -3.16535469327098   -0.82330080803024   -2.29709121898616
H        -3.05310842919688    1.59605837325208   -5.85510774029326
H        -2.19683911426805    3.49902727753529   -4.53347040879582
H        -1.81871183558605    3.24449409110728   -2.10726396251950
76
 energy: -138.704509705641 gnorm: 0.021051259424 xtb: 6.3.3 (4ae9cef)
C        -3.00771565064741   -0.71325368357992    2.14999863797489
C        -3.65755591074542   -1.84496119135545    2.55311630203311
C        -2.95888691307801   -3.04534769147463    2.79318249712689
C        -3.59997191480064   -4.23817565964912    3.18899872965549
C        -2.87947927791064   -5.37868541263384    3.40270879541778
C        -1.48707952173924   -5.37576510089959    3.23842986352376
C        -0.83540900726631   -4.23537132828442    2.86187924850238
C        -1.54679976956547   -3.04074805301476    2.62367084358045
C        -0.90599880782632   -1.85182926121210    2.20787005020262
C        -1.60856513865901   -0.70002935017768    1.95931367313153
C        -0.97383922558983    0.58667108153449    1.43803482914872
C         0.54259479711915    0.73622983767850    1.63744993728592
C         1.03707373531178    2.17649125202691    1.72159666583533
C         2.17504569433851    2.59301144239836    1.08050999263915
C         2.62749988239437    3.92917745175434    1.16170825539256
C         3.77667926942627    4.38332263007451    0.47965742083017
C         4.16734031617984    5.69140311795221    0.55261424770125
C         3.43444756252179    6.61159260992740    1.31600430998481
C         2.32519074493415    6.20499496588019    2.00086563476815
C         1.89400975105121    4.86296885944195    1.94408104448052
C         0.76633864353753    4.39434808140216    2.64738714090315
C         0.35631346243544    3.09565408190872    2.54533021684781
N         1.04756193890907    0.00375779741556    0.47693211457621
C         2.14152049058052   -0.79021852853415    0.58455439835117
C         2.43479279458466   -1.74117237936252   -0.54179431619846
C         3.48677624244675   -1.48634554952803   -1.41594889505726
C         3.84260219386518   -2.42088298062792   -2.37444066387729
C         3.17257591020348   -3.62742937771911   -2.45487747042047
C         2.15366350849001   -3.89515306242964   -1.55273963925927
N         1.47297959925958   -5.17230636811275   -1.59768970790995
O         1.83926690789381   -5.97210381678529   -2.42344893373122
O         0.56589757415554   -5.34673470511592   -0.81937258455011
C         1.77793007763129   -2.96285692258142   -0.59596326417856
O         2.86055698047045   -0.76534358137224    1.55900326813478
C         0.08669837139261    0.00055473401530   -0.61175203414175
C         0.65125878406029    0.64444797499198   -1.89198303723763
O         1.77077538926037    1.33662216194032   -1.70050768504388
O         0.15875393302647    0.52516047357644   -2.97730632039973
N        -1.07629886512183    0.65283800012148   -0.02925659064239
C        -2.22648579018394    1.10981397136669   -0.58916585070020
C        -2.36793617898876    1.16819167886644   -2.07931674341876
C        -2.90273753284645    0.11170934926714   -2.79927557044526
C        -3.14492793367028    0.27748532295056   -4.15615418499281
N        -3.68553970825668   -0.82189684457955   -4.92398187972875
O        -3.94499345987963   -1.84493540833391   -4.33633151675813
O        -3.88074655110891   -0.63857517067295   -6.10241669387107
C        -2.87794279135454    1.47855055872171   -4.79412120396997
C        -2.39070370762708    2.54045759937772   -4.05757336824112
C        -2.14896465258625    2.39215178135374   -2.70379835853431
O        -3.13125915024859    1.53710442884270    0.09735382478261
H        -3.57938553823231    0.18239225422385    1.96386688109772
H        -4.72873432726923   -1.82917017080609    2.69196016157603
H        -4.67264234226591   -4.24268071205342    3.31621074124103
H        -3.38082776555932   -6.28909486403114    3.69808297641486
H        -0.92981406181465   -6.28467391972478    3.40848280599184
H         0.23734455534293   -4.24526398094543    2.74040762431670
H         0.16928600909061   -1.88192150917981    2.10701987488083
H        -1.53387589507697    1.43761147658367    1.83541509991039
H         0.88211770395573    0.21499558576538    2.54047055498411
H         2.75990201434409    1.89749929970721    0.49987139704237
H         4.34944435310138    3.68241898501181   -0.10953811671787
H         5.04566537980492    6.02506408887450    0.01961303322750
H         3.75287704591145    7.64307385032406    1.36147656221319
H         1.76317062665190    6.91245444981680    2.59254551930818
H         0.22296954467717    5.08044054614758    3.27999838027344
H        -0.49500768954388    2.77559247568933    3.12760917993180
H         4.03128115723087   -0.55865930687421   -1.33041350256442
H         4.65395411057695   -2.21292771508363   -3.05373480407523
H         3.44180262212234   -4.36385342935220   -3.19574173909511
H         0.99848691825090   -3.20788230963966    0.11099814578918
H        -0.16949383121475   -1.03309340143022   -0.91257088769787
H         2.05824682774479    1.69451318781003   -2.56202320841886
H        -3.13970903875632   -0.82475115983425   -2.31715276065474
H        -3.06317402833547    1.57677104910685   -5.85224930566994
H        -2.20352511097945    3.48865408499380   -4.53621999217895
H        -1.79667233553667    3.22790332814948   -2.11741905062907
76
 energy: -138.705732273451 gnorm: 0.020628875886 xtb: 6.3.3 (4ae9cef)
C        -2.99777106201581   -0.70247518932533    2.14958518864916
C        -3.64739078341586   -1.83274483787072    2.54822298343327
C        -2.94792264258858   -3.03415923432887    2.78718177917079
C        -3.59088135634006   -4.22551412549782    3.18403021205053
C        -2.87246675143232   -5.36595045048452    3.39892528822865
C        -1.47809000956146   -5.36527006951309    3.23382631399956
C        -0.82573584554697   -4.22771724757170    2.85482841605986
C        -1.53729621672014   -3.03272236005577    2.61596466372533
C        -0.89372542738496   -1.84553296094286    2.20007031907307
C        -1.59736182726557   -0.69485711967857    1.96113381426814
C        -0.97181811484508    0.58875514939404    1.44168535021405
C         0.53945368068449    0.73145233328068    1.64144262938032
C         1.02725365739053    2.16946888981646    1.71703908899039
C         2.15905292080216    2.58398890270320    1.06904177171526
C         2.61347528279808    3.91880824385558    1.15452271942661
C         3.76577328148154    4.36953060589590    0.47471738803132
C         4.16090834769870    5.67430129340114    0.55299435878569
C         3.42880879591794    6.59614298265495    1.31903717260741
C         2.31895638978812    6.19151826496421    2.00240761292224
C         1.88445570312819    4.85042921374447    1.94143863715938
C         0.75515920993604    4.38320212492553    2.64535929000046
C         0.34267196093830    3.08740693261823    2.54166064437477
N         1.04099438102487   -0.00228587222700    0.48281279858354
C         2.13836316230562   -0.78685846542007    0.59173515719232
C         2.42708130231856   -1.73306934902163   -0.54297727449188
C         3.47504803446747   -1.47777418534237   -1.42170347454496
C         3.83552729293535   -2.41335155770399   -2.37775270957379
C         3.17018242066361   -3.62243438879903   -2.45533065959310
C         2.14442527375552   -3.88278104139795   -1.55873687122748
N         1.45867599433957   -5.15533513199076   -1.60988968476925
O         1.85137508258255   -5.96768831259717   -2.41277379604003
O         0.57207079606243   -5.34158393484037   -0.80992569805908
C         1.76631145835255   -2.95136598943522   -0.60266338460203
O         2.85340009748065   -0.75861985821002    1.56930145661310
C         0.08173725306235   -0.01634369384786   -0.60029463120527
C         0.62471070224287    0.64907770704917   -1.87811728402720
O         1.74554897740916    1.33166049514968   -1.67992113078504
O         0.13866064605218    0.49515713113532   -2.96380531844428
N        -1.07602549134403    0.64131613502754   -0.02584679475045
C        -2.21718021757489    1.11620257259156   -0.58434649495317
C        -2.35404488637070    1.17087689669264   -2.07754288851691
C        -2.88442394692672    0.11273450609630   -2.79614524661920
C        -3.13710209925032    0.28020710571194   -4.15084351674407
N        -3.70376578820847   -0.81160629195173   -4.90703821733807
O        -3.91379857701639   -1.84945479307040   -4.32244052645341
O        -3.86406274396119   -0.64476092022196   -6.09395582769604
C        -2.87516911633820    1.47961261736140   -4.79450873024327
C        -2.38105962366804    2.54040567794812   -4.06119141215223
C        -2.13183425912897    2.39131928325379   -2.70834539216844
O        -3.11048345684513    1.55694500158735    0.10857626683971
H        -3.55901867207070    0.19839713530127    1.96006293314601
H        -4.71867194079571   -1.82146282996441    2.68709613039004
H        -4.66390710832712   -4.22112374851152    3.31018026182413
H        -3.37177175324603   -6.27622962862851    3.69642544023551
H        -0.92443553308728   -6.27550545517666    3.40621807305534
H         0.24729385353341   -4.23180044640270    2.73251143851828
H         0.18109567093354   -1.88056092776507    2.09169150693582
H        -1.53525834306836    1.44122307031584    1.82897122909743
H         0.88427394074016    0.21220940808274    2.54368389245457
H         2.73758400727203    1.89159982128133    0.47808995597612
H         4.33468783215759    3.66290337898830   -0.11214432319422
H         5.04064518950914    6.00926038748795    0.02411269104469
H         3.75244930648992    7.62554395248962    1.36505705284846
H         1.75530646524490    6.89476761325394    2.59800734745286
H         0.21936881533930    5.07332250682403    3.28057097538534
H        -0.50974525642583    2.76037781500463    3.11762144464596
H         4.01601277655218   -0.54809783690136   -1.33900104017551
H         4.64922582209123   -2.20668330861936   -3.05420285048511
H         3.43793804878897   -4.36824358386468   -3.18741711581493
H         0.97863511128378   -3.20146224356833    0.09348494312541
H        -0.16833219846082   -1.05254183477967   -0.90261135134713
H         2.06112722884074    1.69300804081046   -2.52931940752040
H        -3.11493987651574   -0.82925111503400   -2.32207353655023
H        -3.07513032960652    1.56955675517055   -5.85106541696527
H        -2.19851304280678    3.48836942599289   -4.54123761963329
H        -1.76659787623558    3.22416296270056   -2.12615601094632
76
 energy: -138.706661743126 gnorm: 0.013525262257 xtb: 6.3.3 (4ae9cef)
C        -2.99136859861539   -0.69265895448386    2.15130144249141
C        -3.64104275730739   -1.82442164770928    2.54573815463616
C        -2.93773584171020   -3.02423640361678    2.78173338562314
C        -3.58196050238795   -4.21360162055377    3.17937712933400
C        -2.86357315229307   -5.35539577468038    3.39549609339111
C        -1.46849327818309   -5.35668255560466    3.22916991879278
C        -0.81563877418981   -4.21940101355400    2.84675264682396
C        -1.52926271110859   -3.02559344921596    2.60848025256207
C        -0.88412669501003   -1.84026977993535    2.19290706231766
C        -1.59124669265229   -0.68915254622400    1.96288573300415
C        -0.97225169687630    0.59074531888919    1.44398781668526
C         0.53524481031452    0.72686984231015    1.64484007536058
C         1.01786502938931    2.16237819986429    1.71474998886365
C         2.14529411418971    2.57650003413335    1.05852412757178
C         2.59918813650624    3.90992705496049    1.14660392981776
C         3.75362701367135    4.35568567304406    0.46798252942628
C         4.15512411239448    5.65890380953230    0.55245991247881
C         3.42472852351369    6.58080108331779    1.32142142421094
C         2.31206965032373    6.17734108354259    2.00403305591673
C         1.87463327586252    4.83794864241027    1.93815974462758
C         0.74452391373667    4.37433907503295    2.64366196361644
C         0.33079077032139    3.07841738265977    2.54033025225856
N         1.03431185753673   -0.01047912621790    0.48808179887328
C         2.13688799202902   -0.78706415084320    0.59829770948802
C         2.42193176568699   -1.72657488135278   -0.54211047724729
C         3.46445397774076   -1.46795921650530   -1.42660067810418
C         3.82782599392217   -2.40350985840685   -2.38258167828401
C         3.16670598226962   -3.61589392586843   -2.45667213999904
C         2.13746712890240   -3.87316031706173   -1.56145328281234
N         1.46703314309181   -5.15500587196580   -1.59773839464905
O         1.84883532811971   -5.95960377527058   -2.41706509342923
O         0.56101703434034   -5.33136219950709   -0.81375661877750
C         1.75447752272904   -2.94067405273985   -0.60771367013376
O         2.85234940340391   -0.75628508421860    1.57649126915717
C         0.07480078907097   -0.03421511594331   -0.59158718402664
C         0.60989347760284    0.63866391780452   -1.87026546673095
O         1.72155274616056    1.32985770138120   -1.66323317445189
O         0.13071924401910    0.46149444110534   -2.95760709723503
N        -1.07766673062126    0.63151054545713   -0.02372020454630
C        -2.20920044949374    1.13002832947703   -0.58184701862361
C        -2.34401336989835    1.17837291195124   -2.07458114450316
C        -2.86760311609559    0.11488181237367   -2.78988318712646
C        -3.12035981082755    0.27864267125593   -4.14548988626746
N        -3.66407756150176   -0.82566725197718   -4.90061048617695
O        -3.90739226773398   -1.84951642134049   -4.30129928602430
O        -3.87563614656920   -0.64532646918292   -6.08044653178364
C        -2.87308837607151    1.48096517407363   -4.79378251069606
C        -2.37177510876054    2.54270592639894   -4.06507635984948
C        -2.11620333914371    2.39511140493446   -2.71255305844510
O        -3.09365230860478    1.58835111628265    0.11287557737044
H        -3.54400145707715    0.21383100455955    1.96105066861948
H        -4.71270161063642   -1.81702565126632    2.68363261685127
H        -4.65544481788694   -4.20264895007937    3.30563407223252
H        -3.36132819147833   -6.26559738262230    3.69532994075254
H        -0.91699160166831   -6.26796957157054    3.40399374927129
H         0.25813535646372   -4.21904043606901    2.72231547783828
H         0.19054926285079   -1.87797350945146    2.07868909216706
H        -1.53712252980420    1.44397704982474    1.82470974307174
H         0.88242556647000    0.21177605672865    2.54829642811013
H         2.71858734282239    1.88577119768297    0.45989416271159
H         4.31826916413520    3.64406831524715   -0.11831640945162
H         5.03780831893714    5.99405956318838    0.02798142882817
H         3.75392252386825    7.60830539390125    1.36967275131468
H         1.74850891156978    6.87748426017908    2.60445773476935
H         0.21265032949111    5.06774572813971    3.27946656332418
H        -0.52226666024211    2.74582874064561    3.11223406199694
H         4.00136618816723   -0.53512784997717   -1.34786487532012
H         4.64183126966881   -2.19573843334435   -3.05899999135032
H         3.43696783512769   -4.37025308242398   -3.17990994571869
H         0.96105484456226   -3.19484941898114    0.08112722662550
H        -0.17342125173047   -1.07277652804681   -0.88695946324661
H         2.05398848431688    1.70272575089576   -2.50003607850506
H        -3.08709361365895   -0.83304646607943   -2.32120040604617
H        -3.08335434950267    1.56330068546909   -5.84969407911321
H        -2.18894105427039    3.48929909566936   -4.54844356658223
H        -1.73938771168885    3.22714474956813   -2.13572826792724
76
 energy: -138.707221201188 gnorm: 0.007401379510 xtb: 6.3.3 (4ae9cef)
C        -2.99337487790241   -0.69041494463715    2.15426553762917
C        -3.64209553567472   -1.82424078303727    2.54703002070261
C        -2.93431665987284   -3.02155240425029    2.77991453801571
C        -3.57707930054082   -4.21065142593549    3.17831345997563
C        -2.85658122892958   -5.35214278255140    3.39420998615133
C        -1.46225395472785   -5.35315558703501    3.22607947072452
C        -0.81056385592575   -4.21497314745649    2.84145086388895
C        -1.52693499699746   -3.02289038263829    2.60499450461222
C        -0.88355525424277   -1.83755139181095    2.18996395290961
C        -1.59451321742921   -0.68690246685860    1.96395566706440
C        -0.97571542894143    0.59120932341292    1.44486991577028
C         0.53139987251395    0.72550274021194    1.64586219574528
C         1.01419301880957    2.15940284571191    1.71530668641867
C         2.13960459154981    2.57353229542848    1.05441613705083
C         2.59188228184526    3.90634260554283    1.14166773272392
C         3.74609819475961    4.34912204092497    0.46215551713159
C         4.15178028003038    5.65158533793665    0.55085891169501
C         3.42376654130580    6.57221558578370    1.32249638155774
C         2.30912760317299    6.17003566511098    2.00450027325627
C         1.86919703591473    4.83227715450869    1.93553201038894
C         0.73935846155114    4.37134545120267    2.64257589706460
C         0.32752306446957    3.07397022357573    2.54195260938447
N         1.03029238259741   -0.01722907025743    0.49136651865960
C         2.13657816104939   -0.79034265588232    0.60140825001894
C         2.42110791854448   -1.72528252617344   -0.54025433396217
C         3.46020927133658   -1.46304605718199   -1.42750050040659
C         3.82207794321280   -2.39634795275705   -2.38627088960887
C         3.16325061717994   -3.61037387752991   -2.45849031317354
C         2.13246486662200   -3.86848454097860   -1.56435248254482
N         1.46095162658017   -5.15044249310264   -1.60113684862236
O         1.84621132575076   -5.95831364229945   -2.41707210010571
O         0.55687740522862   -5.32864377884007   -0.81383010438142
C         1.74996869680212   -2.93739542895164   -0.60871366782610
O         2.85518725027074   -0.75775220818519    1.57702840502243
C         0.06988513109051   -0.04481653866664   -0.58861084600543
C         0.62172457162226    0.60158546812248   -1.87485671869038
O         1.70501981482654    1.33417827529101   -1.65794168685068
O         0.13823621841470    0.43571456352039   -2.95948394476481
N        -1.07942974506118    0.62927618686678   -0.02296889529083
C        -2.20269571330748    1.14684190835610   -0.58284726956409
C        -2.33698607831840    1.18778057917824   -2.07351825417305
C        -2.85678819460807    0.11893591446663   -2.78417925689663
C        -3.11245782520894    0.27822260543084   -4.14020464537321
N        -3.65967474168119   -0.82900998306113   -4.89014062620102
O        -3.88719318883801   -1.85730467492697   -4.28980372754568
O        -3.86708536522326   -0.65626014751076   -6.07254890456239
C        -2.86909351453606    1.48012732462949   -4.79256764322826
C        -2.36293448561002    2.54387149275169   -4.06944530379682
C        -2.10581035909915    2.40124020789405   -2.71689076337657
O        -3.08190122173770    1.62162375986925    0.10816999051397
H        -3.54327371969335    0.21873247577229    1.96747135646593
H        -4.71368804115678   -1.81871873813708    2.68478579488908
H        -4.65027318893768   -4.19954381946593    3.30596582860212
H        -3.35315398008710   -6.26249172861289    3.69558287430339
H        -0.91007074259717   -6.26408684648759    3.40165059731498
H         0.26319210040907   -4.21309518657514    2.71418636104737
H         0.19083712324236   -1.87327849392273    2.07445067833016
H        -1.53974194133685    1.44516503463344    1.82372247607893
H         0.87590300826205    0.21268898019681    2.55144535908875
H         2.71131185456014    1.88178323302162    0.45619266544133
H         4.30692020953915    3.63629896427217   -0.12649909411039