72
 energy: -125.851222432457 gnorm: 0.138911316736 xtb: 6.3.3 (4ae9cef)
C        -4.58361100000000   -3.35448100000000   -1.13666800000000
C        -4.84494200000000   -3.56567100000000    0.21336000000000
C        -3.97890600000000   -3.05098000000000    1.16540400000000
C        -2.85657900000000   -2.31914900000000    0.76582500000000
C        -2.56080100000000   -2.07123800000000   -0.59929500000000
C        -3.46239000000000   -2.61729800000000   -1.55253900000000
C        -3.24138800000000   -2.42685600000000   -2.92193400000000
C        -2.15189500000000   -1.69537700000000   -3.37150500000000
C        -1.26422800000000   -1.14257000000000   -2.45462900000000
C        -1.43034500000000   -1.32213700000000   -1.06769200000000
C        -0.43604100000000   -0.69604900000000   -0.09829200000000
C         1.03938000000000   -0.38655600000000   -0.50378600000000
C         1.95385200000000   -1.60977200000000   -0.42808700000000
C         2.19653900000000   -2.19212800000000    0.83716800000000
C         2.97167300000000   -3.33678200000000    0.97362900000000
C         3.52837000000000   -3.92892100000000   -0.15169400000000
C         3.33568300000000   -3.37568400000000   -1.42321900000000
C         2.55587900000000   -2.19702100000000   -1.58487200000000
C         2.44860700000000   -1.68544400000000   -2.90073900000000
C         3.05285400000000   -2.31051900000000   -3.99607800000000
C         3.79020900000000   -3.46977900000000   -3.81454200000000
C         3.93321100000000   -3.99499600000000   -2.53417800000000
N         1.43034800000000    0.65434900000000    0.46814600000000
C         2.51876700000000    1.46361700000000    0.17902000000000
C         2.80605500000000    2.60522400000000    1.06442100000000
C         3.33411600000000    2.39016800000000    2.33938300000000
C         3.59978700000000    3.48145800000000    3.16707200000000
C         3.35879800000000    4.77720000000000    2.70569500000000
C         2.84938700000000    4.98028900000000    1.42064300000000
Cl        2.53558900000000    6.58114000000000    0.87160600000000
C         2.57548300000000    3.89865400000000    0.58837200000000
O         3.23443000000000    1.32405100000000   -0.80600100000000
C         0.28144100000000    1.07741500000000    1.25909600000000
C         0.28269200000000    0.52096200000000    2.71429500000000
O        -0.94197000000000    0.06979000000000    3.10383000000000
O         1.23671400000000    0.51573000000000    3.47702500000000
N        -0.90205900000000    0.56041500000000    0.54732500000000
C        -1.43831600000000    1.55611400000000   -0.28910800000000
C        -2.36601700000000    2.50564200000000    0.37416600000000
C        -3.34956600000000    2.04557000000000    1.25387200000000
C        -4.17869800000000    2.96957600000000    1.88861600000000
Cl       -5.38658200000000    2.41385000000000    2.98047600000000
C        -4.03900100000000    4.33745100000000    1.64485000000000
C        -3.07209500000000    4.78898700000000    0.74415600000000
C        -2.23404000000000    3.87427200000000    0.10641600000000
O        -1.13099500000000    1.71850900000000   -1.46225000000000
H        -5.26858800000000   -3.77360700000000   -1.87091100000000
H        -5.71820000000000   -4.13768000000000    0.51626500000000
H        -4.16688300000000   -3.22661100000000    2.22170400000000
H        -2.21095900000000   -1.96047100000000    1.56050300000000
H        -3.92448500000000   -2.84799800000000   -3.65641300000000
H        -1.99564800000000   -1.54381600000000   -4.43679700000000
H        -0.45652200000000   -0.53701600000000   -2.85332200000000
H        -0.36398100000000   -1.40884200000000    0.73217600000000
H         1.07837600000000    0.10292100000000   -1.47764700000000
H         1.78444400000000   -1.75578200000000    1.74298900000000
H         3.14645000000000   -3.76403900000000    1.95658400000000
H         4.13156600000000   -4.82635500000000   -0.02251500000000
H         1.91303100000000   -0.76554200000000   -3.11025900000000
H         2.95169300000000   -1.87711900000000   -4.98733400000000
H         4.26842500000000   -3.95335800000000   -4.66337800000000
H         4.53238400000000   -4.89525300000000   -2.40662700000000
H         3.54108300000000    1.38063800000000    2.68947200000000
H         3.99165000000000    3.32277700000000    4.17062800000000
H         3.57410900000000    5.62433500000000    3.35415800000000
H         2.18336300000000    4.05455400000000   -0.41445000000000
H         0.23379800000000    2.16823400000000    1.34328500000000
H        -1.57828800000000    0.14126700000000    2.36132800000000
H        -3.50114300000000    0.98118900000000    1.41464600000000
H        -4.69068000000000    5.05534200000000    2.13991400000000
H        -2.97474800000000    5.85409400000000    0.53582100000000
H        -1.47964600000000    4.22711300000000   -0.59658000000000
72
 energy: -125.867256904218 gnorm: 0.053391883996 xtb: 6.3.3 (4ae9cef)
C        -4.57704550912005   -3.34935385778195   -1.13018015630814
C        -4.82995225061818   -3.55628252868465    0.20414575502199
C        -3.95312448688720   -3.03529900106852    1.15340074540897
C        -2.84486921577826   -2.30867675787889    0.76454314428977
C        -2.54904667794160   -2.05905690699645   -0.59630627589071
C        -3.45433524431055   -2.61183866427623   -1.55305653818248
C        -3.22968058673390   -2.41936032978355   -2.92567694497252
C        -2.15037955887877   -1.69095543625127   -3.35718665312227
C        -1.26595265852607   -1.13203291322970   -2.43234608756852
C        -1.42616453600801   -1.30247329404281   -1.06651231249035
C        -0.43103400042608   -0.70890017838214   -0.08138640253211
C         1.03511115989231   -0.39961035714359   -0.50766974269038
C         1.94607982275078   -1.61271301240369   -0.43326874094361
C         2.18639633811398   -2.17917504541358    0.81204381778157
C         2.96985816902552   -3.32382513366463    0.96020159183539
C         3.52525470058432   -3.92295112202889   -0.14350982352631
C         3.33530201022868   -3.37565819766695   -1.42226819927581
C         2.54889733018259   -2.19494757640408   -1.58671289476821
C         2.44230181910187   -1.68203136746784   -2.89783599813802
C         3.04434598372116   -2.30008947488813   -3.97430817282270
C         3.78756742515819   -3.46583940529023   -3.80009707123756
C         3.93290800684050   -3.99029824458642   -2.53871316949687
N         1.42257561941110    0.64606541055996    0.46187195269691
C         2.49130322133883    1.45834327024628    0.16197457351897
C         2.77221308787616    2.59848351865171    1.07758928129972
C         3.31288580124343    2.39229350679662    2.34335301602173
C         3.59957626627640    3.48114728631737    3.15462211522564
C         3.35758275249401    4.77047335147500    2.70527370781111
C         2.84920372607128    4.96882568596791    1.42852556754468
Cl        2.54285439562510    6.57130012243343    0.87269583803915
C         2.56291239770834    3.89106770923188    0.60407317409949
O         3.20872915925002    1.27206139973447   -0.80257980500372
C         0.27920951645642    1.06154439934502    1.25727962179196
C         0.27528997259146    0.50929830048040    2.70671993116025
O        -0.93109567478776    0.07181151263615    3.10218412715987
O         1.22251467591750    0.50382799264438    3.43651490709056
N        -0.90115202688352    0.55908069108787    0.54078947458499
C        -1.42947375687324    1.56341494725223   -0.30490968309327
C        -2.35118046997892    2.50865846723096    0.38193188543122
C        -3.33215265701873    2.05242635495984    1.26066760431336
C        -4.17048068220652    2.97071408932692    1.87921266926613
Cl       -5.38034450849758    2.41358853239196    2.97063842610525
C        -4.03519596455940    4.33220461094670    1.63638743979458
C        -3.07237196019003    4.77721069225901    0.74262650291456
C        -2.23611945682566    3.87122813933653    0.10933773054708
O        -1.15173376916811    1.68491411785109   -1.47652205492551
H        -5.25362539918364   -3.76314165610191   -1.86713063199552
H        -5.69889721094003   -4.12498452964696    0.51123472628298
H        -4.14184981960241   -3.20611205974560    2.20559602659280
H        -2.19898388175300   -1.94596966226628    1.55170355461545
H        -3.91568056697889   -2.84173284933367   -3.64925100234129
H        -1.98815825743020   -1.54131527837216   -4.41639687045502
H        -0.44940268456518   -0.54335874889184   -2.82094521069243
H        -0.35557444915848   -1.41758470875699    0.75446039189291
H         1.07685454661863    0.07079020651090   -1.49260302475940
H         1.77449960759385   -1.73160112177391    1.70851172618906
H         3.13590762835067   -3.74424560233066    1.94346813604057
H         4.12313210179452   -4.81784477987554   -0.02210498853750
H         1.90711853689392   -0.76572792221020   -3.09590009166983
H         2.94237938760290   -1.87016072305625   -4.96218939337101
H         4.25823013712477   -3.94737464644096   -4.64833506004120
H         4.52504754362171   -4.88648821205633   -2.40245471053482
H         3.51750677099825    1.38937075025151    2.68940557732777
H         3.99478358024157    3.32497697768238    4.14918829567728
H         3.56948520899680    5.61701649747496    3.34470543384819
H         2.18240220919506    4.04935585292801   -0.39648676239599
H         0.24165300078115    2.15632769480590    1.34940096196651
H        -1.56881081730164    0.14440271167261    2.36225776026335
H        -3.48264682987977    0.99305718590625    1.42087695207940
H        -4.68287247924165    5.04138049358140    2.13441557493322
H        -2.97449439432657    5.83555570739352    0.54054434368070
H        -1.48599117509416    4.21679311882237   -0.58953058836199
72
 energy: -125.871693412068 gnorm: 0.013968355207 xtb: 6.3.3 (4ae9cef)
C        -4.56470834249107   -3.33974928732679   -1.12297486871636
C        -4.81105531203750   -3.54316270250992    0.20336700398667
C        -3.92708195188206   -3.01393245044014    1.15083956270100
C        -2.82919983178926   -2.29252050099730    0.76505060642384
C        -2.53579216677829   -2.04979994189891   -0.59558713369103
C        -3.44280074821885   -2.60066326182204   -1.55259129288202
C        -3.21525112722654   -2.40475669402353   -2.92833158498928
C        -2.14138872802931   -1.67895793468052   -3.34914277016655
C        -1.25163500919299   -1.12814465518400   -2.41800600194271
C        -1.41212953831774   -1.29997216241805   -1.06835497884699
C        -0.42990171657654   -0.71623230980742   -0.07417482256517
C         1.02582597853422   -0.40804691216220   -0.51016927668924
C         1.93619175480553   -1.61218436752605   -0.43408094052877
C         2.17458843732195   -2.16417862886738    0.80003426319220
C         2.96250366709735   -3.31027610318260    0.95797294109343
C         3.51679700982138   -3.91362582854821   -0.13273639261145
C         3.32897539523668   -3.37108367986927   -1.41821037649203
C         2.53966017257680   -2.19199292759498   -1.58604197009354
C         2.43223485437039   -1.67577664371334   -2.89486462839051
C         3.03195729891217   -2.28779462760887   -3.96032540176093
C         3.77985245886396   -3.45898805959604   -3.79024182282675
C         3.92735452691063   -3.98249514664336   -2.53930564575196
N         1.41094492245090    0.63920993102351    0.45651279138765
C         2.47670882695557    1.43989385657534    0.15427233338430
C         2.74231529937077    2.58692507921890    1.08329345155485
C         3.28845371873602    2.38586476749837    2.34471516416374
C         3.58605679338845    3.47432138257413    3.14672716295599
C         3.34950524317853    4.76292846416266    2.70384987221528
C         2.83398569525904    4.95637786349633    1.43304051328092
Cl        2.54812922969643    6.56181379017994    0.86440384361140
C         2.53910475373992    3.87994547050530    0.61326431041521
O         3.18452148876469    1.22402731589249   -0.80424239860971
C         0.26959671786810    1.04747762185697    1.25394604203488
C         0.27153300965389    0.48556552249344    2.69820023891463
O        -0.92670619805090    0.06792358771266    3.09603568895817
O         1.22966035437005    0.47282321885355    3.40406775733424
N        -0.90717500540844    0.55391225083097    0.53378647644586
C        -1.43613577784374    1.55491657807129   -0.32805265722640
C        -2.33220798415037    2.50820217935104    0.38685347293397
C        -3.30926057340950    2.05297794593153    1.26717032480380
C        -4.15267467429462    2.96763032342729    1.87734891432877
Cl       -5.37236838138493    2.40511367373773    2.95843933701670
C        -4.02593929493739    4.32701827313895    1.63247369804827
C        -3.06353476936037    4.76978429734898    0.74272311181052
C        -2.22545333089696    3.86870767943642    0.11258573433679
O        -1.18374079598325    1.64171303623010   -1.50077548989379
H        -5.23344380322234   -3.74696616500055   -1.86733793630314
H        -5.67515238156899   -4.10941397206954    0.51883134082944
H        -4.11459553675302   -3.18288843641365    2.20091504016251
H        -2.17889733644930   -1.92058592278550    1.54218764470021
H        -3.90416466112740   -2.83459700699282   -3.64079032610329
H        -1.97047834884709   -1.52638739242679   -4.40351624615675
H        -0.43289161839635   -0.54247833757754   -2.79744579061032
H        -0.34941502793631   -1.41959362546871    0.76529374416540
H         1.06616624098317    0.04796542448905   -1.50165189525777
H         1.76137695686091   -1.70607613906106    1.68816973127477
H         3.12430897148674   -3.71822591784513    1.94465972172110
H         4.11514547006611   -4.80600586255898   -0.02165040746426
H         1.89438936934089   -0.76107809487478   -3.07965631989239
H         2.93422350973772   -1.85954095328011   -4.94688705348194
H         4.24635661373148   -3.93493411607246   -4.64027690815644
H         4.51600330294557   -4.87603717112808   -2.39012297899227
H         3.48272654576632    1.38554175901297    2.69264461055766
H         4.00257784207301    3.31908212903109    4.12937258173098
H         3.57105495423968    5.61131240627434    3.33217306535278
H         2.16393544440294    4.04132110728022   -0.38549791574970
H         0.24428833561260    2.14441133225286    1.35952416380965
H        -1.56762701604044    0.14785806654170    2.35985527719178
H        -3.45128961459671    0.99624850351858    1.43518961075082
H        -4.68058538756326    5.02760155879130    2.12586501205521
H        -2.97199722542708    5.82442961431283    0.53831494006317
H        -1.48233194894161    4.20829792892370   -0.59092786885506
72
 energy: -125.872995512297 gnorm: 0.011534453420 xtb: 6.3.3 (4ae9cef)
C        -4.55279323974280   -3.32904852682225   -1.11833021168874
C        -4.79511445509462   -3.52987424396335    0.20862079013103
C        -3.90939951099677   -2.99616355256709    1.15516832910981
C        -2.81487125668183   -2.27600199793615    0.76582314093535
C        -2.52638034960657   -2.04204309148776   -0.59724205028422
C        -3.43112086547875   -2.59141699479165   -1.55272871155110
C        -3.20227381151035   -2.39463841521667   -2.93007478437274
C        -2.12779340064745   -1.67142752155187   -3.35040061007261
C        -1.23581480725859   -1.12462622398950   -2.41739780443435
C        -1.40172762127746   -1.29836057478597   -1.07037329893840
C        -0.42966668061708   -0.71907176057953   -0.07116413400784
C         1.01787487471016   -0.40819416083792   -0.51168745440232
C         1.92797245601580   -1.60865785516953   -0.43272863828458
C         2.16725997251221   -2.15289032190226    0.80289995165687
C         2.95709633370301   -3.29843944862723    0.96499018416549
C         3.50905817679425   -3.90406642737351   -0.12421326929360
C         3.32017047240950   -3.36480947742881   -1.41296377232404
C         2.53060778031287   -2.18910399293576   -1.58376700683513
C         2.42143730004226   -1.66941368324248   -2.89167603318505
C         3.02253117386061   -2.27824145379802   -3.95576805178002
C         3.77187800075520   -3.45105827878269   -3.78528973255906
C         3.91947275862756   -3.97524775082123   -2.53544505331685
N         1.40065152559161    0.63881118986665    0.45206216457226
C         2.47012220394543    1.42915181106155    0.14883124438706
C         2.72703590324389    2.57871631571985    1.07992343198681
C         3.26812904194995    2.37648117216241    2.34309215383056
C         3.57401576955387    3.46489856971861    3.14162054692193
C         3.34240569659301    4.75501655003432    2.69935668491645
C         2.81886791143492    4.94695837898707    1.43126828393626
Cl        2.54155072615534    6.55373315025573    0.85668051791211
C         2.52034017082665    3.87147348248030    0.61226475329302
O         3.18075377544060    1.19338393595730   -0.80275323691537
C         0.26128731015816    1.04084781105668    1.25324261337646
C         0.26742299506521    0.46201352731081    2.69243156254435
O        -0.92909504666969    0.05342681116037    3.09319720267880
O         1.24202300274707    0.42328812470044    3.38014235155797
N        -0.91149689380683    0.54968212887037    0.53164673301599
C        -1.44194694316455    1.54466733197498   -0.34034967885981
C        -2.31942996541901    2.50645355449607    0.38457637249561
C        -3.28745287635152    2.04970161597346    1.27339474821509
C        -4.13490047074842    2.96216802804623    1.87965098089505
Cl       -5.35882684601360    2.39433621370137    2.95512877689375
C        -4.01616143993519    4.32166947676332    1.63013727875174
C        -3.05358452002482    4.76614784807672    0.74075776047713
C        -2.21641712128341    3.86657237210621    0.10735341938004
O        -1.22154612060961    1.59870647893213   -1.52206667855508
H        -5.21859006318880   -3.73417215790660   -1.86645086466176
H        -5.65559533500566   -4.09607937882773    0.53151477481177
H        -4.09683419304512   -3.16140413132850    2.20560507812208
H        -2.16061174235907   -1.89511944982900    1.53555032292792
H        -3.89674196264940   -2.82388788748357   -3.63702252864316
H        -1.95310577061676   -1.51226111248450   -4.40286451680906
H        -0.41260151009769   -0.54397612929514   -2.79418373156053
H        -0.34603334690963   -1.42131836727140    0.76875114725577
H         1.05435928955873    0.04409474794786   -1.50408974561638
H         1.75325993708088   -1.68867090419526    1.68704081219966
H         3.11687466912078   -3.69807147059231    1.95493317101829
H         4.10888179462552   -4.79598587898888   -0.01851058780773
H         1.88233115224280   -0.75392856759526   -3.06859186447165
H         2.92788187788268   -1.85086834624980   -4.94286620769078
H         4.23658967276657   -3.92335927895857   -4.63769528960334
H         4.50805147221844   -4.86783759848237   -2.37900638218242
H         3.45286146674891    1.37538669324904    2.69419303868649
H         3.99955878723058    3.30844605880840    4.12024267876844
H         3.57280218109599    5.60474243077370    3.32223929229836
H         2.14019047615159    4.03451738554635   -0.38404746483144
H         0.23959883566868    2.13685739531252    1.36981975232131
H        -1.57573463983236    0.15076321482038    2.36315827932593
H        -3.42109347667262    0.99309031450602    1.44851706267664
H        -4.67814086515884    5.01791421473363    2.11921433312844
H        -2.96537695422098    5.82084846386400    0.53529020733693
H        -1.47493284214535    4.20476961512523   -0.59858353337588
72
 energy: -125.873774875739 gnorm: 0.010002879360 xtb: 6.3.3 (4ae9cef)
C        -4.54194593167246   -3.31747454519607   -1.11323450339239
C        -4.77942018369933   -3.51324557475905    0.21626281190616
C        -3.89423260592516   -2.97387512703948    1.16106790725841
C        -2.80124127352180   -2.25518681406494    0.76510082023123
C        -2.51771203460907   -2.03426424269378   -0.60183169840378
C        -3.42088581976886   -2.58247786703685   -1.55398266730115
C        -3.19249919339214   -2.38593512497727   -2.93233521165928
C        -2.11429411996656   -1.66908545752662   -3.35593334290842
C        -1.21718303120563   -1.12950609017045   -2.42415751827008
C        -1.39009077794700   -1.30049201395534   -1.07619733775668
C        -0.42722157001081   -0.72090375330247   -0.07492742034372
C         1.01344913283957   -0.40378298211342   -0.51280560693026
C         1.92414086008623   -1.60117053372724   -0.43030057888920
C         2.16350847159166   -2.14015794607807    0.80946742272448
C         2.95281982385773   -3.28533097985522    0.97422007910007
C         3.50152369859306   -3.89344280822692   -0.11590603588826
C         3.31106779459174   -3.35736637820267   -1.40667023320727
C         2.52369364178342   -2.18416750899336   -1.58026218429953
C         2.41140983084276   -1.66199478948304   -2.88773065105589
C         3.01250946597288   -2.27010525137903   -3.95254898060345
C         3.76177288103073   -3.44348141441067   -3.78003184001057
C         3.90979513568476   -3.96838856577775   -2.52970428315230
N         1.39102491380190    0.64286812569902    0.44807378918063
C         2.46862907640049    1.42052011727447    0.14812601743216
C         2.71574600253598    2.57299351658724    1.07484700373895
C         3.25037575427644    2.36785940031669    2.34025797006524
C         3.55901902057262    3.45590530421725    3.13790099839051
C         3.33300617611256    4.74724314142322    2.69332478587625
C         2.80190348701735    4.93903944628513    1.42751370151971
Cl        2.52256266493534    6.54604944386032    0.85143568286764
C         2.50018173601388    3.86437977217290    0.60887815283588
O         3.18331687024834    1.17007114928641   -0.79634814907655
C         0.25188360612405    1.03350406042478    1.25384457554373
C         0.26420813250684    0.42130451013809    2.68236187028927
O        -0.93712273335288    0.03905414443398    3.09204198900815
O         1.25055940290250    0.35336193342377    3.35446219475000
N        -0.91477428010317    0.54432193480754    0.52606622972333
C        -1.45279467830159    1.52983412662786   -0.35127579807042
C        -2.30444034861555    2.50543514049070    0.38218731590249
C        -3.26368522189071    2.04633339599663    1.27917748798286
C        -4.11406424689085    2.95669733581393    1.88367044637131
Cl       -5.33555878165883    2.38354489227950    2.96032747550866
C        -4.00235706649807    4.31630253600718    1.62896917628627
C        -3.04042285090352    4.76348686869049    0.73881365899277
C        -2.20279204384896    3.86521627799694    0.10297107061049
O        -1.26669941647670    1.55732844681167   -1.53894144858598
H        -5.20773124236488   -3.72303725537625   -1.86140896898616
H        -5.63651090198676   -4.07936703239493    0.54767827364049
H        -4.08093062820239   -3.13388324994387    2.21275188517031
H        -2.14330584646779   -1.86592393061512    1.52755101041472
H        -3.89281322021560   -2.81238352535956   -3.63540900932318
H        -1.93678063529537   -1.50471625729113   -4.40740939654520
H        -0.39023317244968   -0.55472597859546   -2.80147620783336
H        -0.34045892531265   -1.42321831919017    0.76431925772460
H         1.04593410994582    0.04833179092460   -1.50422387049573
H         1.75058733281362   -1.66997387910092    1.69072293941772
H         3.11233417446805   -3.67670047188535    1.96753761076078
H         4.10248129489476   -4.78538814336448   -0.01293640854444
H         1.87202447861285   -0.74554513086579   -3.05941769718685
H         2.92063290985502   -1.84341152862761   -4.94052314419587
H         4.22583304500394   -3.91240920813569   -4.63472529848410
H         4.49850337521507   -4.86068368139970   -2.36921315634785
H         3.42512909880304    1.36521538632369    2.69429000034441
H         3.98644592925928    3.29756918936040    4.11565386824148
H         3.57232620277244    5.59779729075616    3.31188385077577
H         2.11256207734582    4.02791113090061   -0.38504990598568
H         0.22798657242617    2.12687167837912    1.38746918939628
H        -1.58909812802226    0.15615555067476    2.36867093445974
H        -3.38883331268524    0.98933225305079    1.46044606807527
H        -4.67075043580981    5.00944714311979    2.11425298019599
H        -2.95570089451262    5.81884398407639    0.53181604743264
H        -1.46630262815377    4.20307294248370   -0.60949699641312
72
 energy: -125.874136490234 gnorm: 0.011029439637 xtb: 6.3.3 (4ae9cef)
C        -4.53867017645293   -3.30949550573137   -1.10954591503597
C        -4.77271131422608   -3.49914133020054    0.22201992423391
C        -3.88822996710695   -2.95542185087564    1.16436080174855
C        -2.79495167095474   -2.23945729582758    0.76260416234139
C        -2.51355714922101   -2.02904291096379   -0.60702095832333
C        -3.41768089435778   -2.57774387130550   -1.55583279321332
C        -3.19019380432346   -2.38428923851339   -2.93447388968675
C        -2.10700893238473   -1.67569950861922   -3.36204543274049
C        -1.20537782863067   -1.14051288117404   -2.43323479168284
C        -1.38262317124969   -1.30389327983363   -1.08341300983276
C        -0.42375293055141   -0.72190795162920   -0.08162387088088
C         1.01474026875673   -0.39860433816770   -0.51466155580128
C         1.92700863461899   -1.59382112052253   -0.42903130635233
C         2.16643321298428   -2.13044532059418    0.81337064114855
C         2.95376956237493   -3.27579805982837    0.97928489354881
C         3.49931403973474   -3.88678199024291   -0.11177601708204
C         3.30777228862082   -3.35299550905173   -1.40301243466719
C         2.52313222763531   -2.17970385854968   -1.57805968235822
C         2.40869914152980   -1.65725013439523   -2.88553182972999
C         3.00751050219987   -2.26731892095662   -3.95122817548704
C         3.75514633750180   -3.44101171410672   -3.77693303815866
C         3.90409157837730   -3.96599866561805   -2.52611064631290
N         1.38618381585347    0.64836853344800    0.44532008211917
C         2.46994804789129    1.41875520285407    0.15079869617946
C         2.71064230199746    2.57254987929116    1.07259766554572
C         3.24003978977943    2.36535316408508    2.33988018563160
C         3.54688688786347    3.45327317240926    3.13835836623730
C         3.32297791272607    4.74446964928101    2.69087751424629
C         2.78843428019632    4.93677927980889    1.42634145972065
Cl        2.50046826276572    6.54312139017644    0.85256604062905
C         2.48775836148542    3.86236883871809    0.60698027525427
O         3.19098261969026    1.16113414147816   -0.78687235776122
C         0.24600095643269    1.02781799985786    1.25471116704049
C         0.25894686212233    0.39748346500104    2.67675602231659
O        -0.94297779621544    0.01944402365451    3.08773218122923
O         1.25271370507042    0.29082335987987    3.33535505022207
N        -0.91548929478080    0.54109572633545    0.51918547035476
C        -1.46036691018299    1.52030262004950   -0.35670659631054
C        -2.29477589390399    2.50608192260371    0.38042870193553
C        -3.24804106885046    2.04619543873504    1.28371684590808
C        -4.09715081920210    2.95569656746409    1.89093409968961
Cl       -5.31236850432539    2.38033732721771    2.97362083744369
C        -3.98896278951260    4.31479668417503    1.63174420642377
C        -3.03024762594323    4.76290638414534    0.73798014158271
C        -2.19399516137804    3.86502498445744    0.09899122849040
O        -1.30494080858726    1.52998048609723   -1.54936845083182
H        -5.20649049708498   -3.71847579953568   -1.85411924255865
H        -5.62814068371286   -4.06475821312958    0.55906145255322
H        -4.07425642655945   -3.10936552884296    2.21733799225661
H        -2.13580157899528   -1.84564733092958    1.52112913668181
H        -3.89482674386266   -2.80599787060647   -3.63639325808412
H        -1.92882446747210   -1.51183690541433   -4.41375397233354
H        -0.37405327635869   -0.57387072052892   -2.81350868231202
H        -0.33551187986302   -1.42528500981480    0.75666345379507
H         1.04622401315538    0.05511903127339   -1.50513639630070
H         1.75541416257135   -1.65716593817767    1.69359313917432
H         3.11338554818435   -3.66351106039437    1.97417169310541
H         4.09914082016095   -4.77961745638822   -0.00769610688851
H         1.87080082569679   -0.73986804495339   -3.05647146718348
H         2.91521338235419   -1.84170194807051   -4.93983153187233
H         4.21802684601381   -3.90969690927975   -4.63266884897033
H         4.49199584003268   -4.85900582514367   -2.36621231257573
H         3.41134741748724    1.36171768963644    2.69375937748544
H         3.97058001218080    3.29422134909342    4.11777034021447
H         3.56583207240175    5.59509205724690    3.30791457294974
H         2.09522680820103    4.02484888861115   -0.38565068578048
H         0.21639661587426    2.11815649023728    1.40219195289022
H        -1.60054732212152    0.16067019926755    2.37297444278479
H        -3.37009505488669    0.98893822685568    1.46607971698175
H        -4.65912095009487    5.00742524353711    2.11560515406675
H        -2.94705616848842    5.81856058730773    0.53002802353473
H        -1.46038640068097    4.20322981362682   -0.61687285258622
72
 energy: -125.874502648234 gnorm: 0.007817395169 xtb: 6.3.3 (4ae9cef)
C        -4.54004208699055   -3.30044162375768   -1.10538028831072
C        -4.77097296447570   -3.48091975341684    0.22836877406406
C        -3.88658371964096   -2.93200494289900    1.16662110888296
C        -2.79161569901268   -2.22150209533326    0.75783642532607
C        -2.51085981317203   -2.02380327814877   -0.61430848341657
C        -3.41833359756528   -2.57407490983710   -1.55867572827682
C        -3.19180926237563   -2.38743884033873   -2.93759784193410
C        -2.10111797690154   -1.69175406353114   -3.37062815241842