      -----------------------------------------------------------      
     |                   =====================                   |     
     |                           x T B                           |     
     |                   =====================                   |     
     |                         S. Grimme                         |     
     |          Mulliken Center for Theoretical Chemistry        |     
     |                    University of Bonn                     |     
      -----------------------------------------------------------      

   * xtb version 6.3.3 (4ae9cef) compiled by 'conda@95abc7406d43' on 2020-10-14

   xtb is free software: you can redistribute it and/or modify it under
   the terms of the GNU Lesser General Public License as published by
   the Free Software Foundation, either version 3 of the License, or
   (at your option) any later version.
   
   xtb is distributed in the hope that it will be useful,
   but WITHOUT ANY WARRANTY; without even the implied warranty of
   MERCHANTABILITY or FITNESS FOR A PARTICULAR PURPOSE.  See the
   GNU Lesser General Public License for more details.
   
   Cite this work as:
   * C. Bannwarth, E. Caldeweyher, S. Ehlert, A. Hansen, P. Pracht,
     J. Seibert, S. Spicher, S. Grimme, WIREs Comput. Mol. Sci., 2020,
     e01493. DOI: 10.1002/wcms.1493
   
   for GFN2-xTB:
   * S. Grimme, C. Bannwarth, P. Shushkov, J. Chem. Theory Comput., 2017,
     13, 1989-2009. DOI: 10.1021/acs.jctc.7b00118
   for GFN1-xTB:
   * C. Bannwarth, S. Ehlert and S. Grimme., J. Chem. Theory Comput., 2019,
     15, 1652-1671. DOI: 10.1021/acs.jctc.8b01176
   for GFN0-xTB:
   * P. Pracht, E. Caldeweyher, S. Ehlert, S. Grimme, ChemRxiv, 2019, preprint.
     DOI: 10.26434/chemrxiv.8326202.v1
   for GFN-FF:
   * S. Spicher and S. Grimme, Angew. Chem. Int. Ed., 2020, 59, 15665-15673.
     DOI: 10.1002/anie.202004239
   
   for DFT-D4:
   * E. Caldeweyher, C. Bannwarth and S. Grimme, J. Chem. Phys., 2017,
     147, 034112. DOI: 10.1063/1.4993215
   * E. Caldeweyher, S. Ehlert, A. Hansen, H. Neugebauer, S. Spicher,
     C. Bannwarth and S. Grimme, J. Chem. Phys., 2019, 150, 154122.
     DOI: 10.1063/1.5090222
   * E. Caldeweyher, J.-M. Mewes, S. Ehlert and S. Grimme, Phys. Chem. Chem. Phys.
     2020, 22, 8499-8512. DOI: 10.1039/D0CP00502A
   
   for sTDA-xTB:
   * S. Grimme and C. Bannwarth, J. Chem. Phys., 2016, 145, 054103.
     DOI: 10.1063/1.4959605
   
   in the mass-spec context:
   * V. Asgeirsson, C. Bauer and S. Grimme, Chem. Sci., 2017, 8, 4879.
     DOI: 10.1039/c7sc00601b
   * J. Koopman and S. Grimme, ACS Omega 2019, 4, 12, 15120-15133.
     DOI: 10.1021/acsomega.9b02011
   
   for metadynamics refer to:
   * S. Grimme, J. Chem. Theory Comput., 2019, 155, 2847-2862
     DOI: 10.1021/acs.jctc.9b00143
   
   with help from (in alphabetical order)
   C. Bannwarth, F. Bohle, G. Brandenburg, E. Caldeweyher, M. Checinski,
   S. Dohm, S. Ehlert, S. Ehrlich, F. März, H. Neugebauer, J. Pisarek,
   P. Pracht, P. Shushkov, and S. Spicher.
   
 * started run on 2022/03/17 at 01:38:08.453     

           -------------------------------------------------
          |                Calculation Setup                |
           -------------------------------------------------

          program call               : xtb acid_476.xyz --opt --chrg 0 --uhf 0 --gfn 2
          coordinate file            : acid_476.xyz
          omp threads                :                    64
          number of atoms            :                    64
          number of electrons        :                   210
          charge                     :                     0
          spin                       :                   0.0
          first test random number   :      0.50742677648772

   ID    Z sym.   atoms
    1    6 C      1-14, 16-21, 25, 27, 28, 32-35, 39-41
    2    7 N      15, 22, 31, 36
    3    8 O      23, 24, 26, 29, 30, 37, 38, 42
    4    1 H      43-64

           -------------------------------------------------
          |                 G F N 2 - x T B                 |
           -------------------------------------------------

        Reference                      10.1021/acs.jctc.8b01176
      * Hamiltonian:
        H0-scaling (s, p, d)           1.850000    2.230000    2.230000
        zeta-weighting                 0.500000
      * Dispersion:
        s8                             2.700000
        a1                             0.520000
        a2                             5.000000
        s9                             5.000000
      * Repulsion:
        kExp                           1.500000    1.000000
        rExp                           1.000000
      * Coulomb:
        alpha                          2.000000
        third order                    shell-resolved
        anisotropic                    true
        a3                             3.000000
        a5                             4.000000
        cn-shift                       1.200000
        cn-exp                         4.000000
        max-rad                        5.000000


          ...................................................
          :                      SETUP                      :
          :.................................................:
          :  # basis functions                 190          :
          :  # atomic orbitals                 190          :
          :  # shells                          106          :
          :  # electrons                       210          :
          :  max. iterations                   250          :
          :  Hamiltonian                  GFN2-xTB          :
          :  restarted?                      false          :
          :  GBSA solvation                  false          :
          :  PC potential                    false          :
          :  electronic temp.          300.0000000     K    :
          :  accuracy                    1.0000000          :
          :  -> integral cutoff          0.2500000E+02      :
          :  -> integral neglect         0.1000000E-07      :
          :  -> SCF convergence          0.1000000E-05 Eh   :
          :  -> wf. convergence          0.1000000E-03 e    :
          :  Broyden damping             0.4000000          :
          ...................................................

 iter      E             dE          RMSdq      gap      omega  full diag
   1   -120.6121753 -0.120612E+03  0.517E+00    2.76       0.0  T
   2   -120.9787063 -0.366531E+00  0.268E+00    2.29       1.0  T
   3   -120.9874687 -0.876238E-02  0.143E+00    2.22       1.0  T
   4   -120.9896074 -0.213873E-02  0.443E-01    2.10       1.0  T
   5   -120.9981958 -0.858841E-02  0.110E-01    2.09       1.0  T
   6   -120.9987663 -0.570481E-03  0.553E-02    2.12       1.0  T
   7   -120.9988256 -0.592428E-04  0.213E-02    2.13       1.0  T
   8   -120.9988325 -0.695175E-05  0.938E-03    2.13       1.3  T
   9   -120.9988344 -0.187269E-05  0.455E-03    2.13       2.7  T
  10   -120.9988351 -0.738170E-06  0.140E-03    2.13       8.9  T
  11   -120.9988352 -0.383657E-07  0.659E-04    2.13      19.0  T
  12   -120.9988352 -0.801674E-08  0.278E-04    2.13      45.0  T

   *** convergence criteria satisfied after 12 iterations ***

         #    Occupation            Energy/Eh            Energy/eV
      -------------------------------------------------------------
         1        2.0000           -0.7867005             -21.4072
       ...           ...                  ...                  ...
        99        2.0000           -0.4319426             -11.7538
       100        2.0000           -0.4312641             -11.7353
       101        2.0000           -0.4266488             -11.6097
       102        2.0000           -0.4257315             -11.5847
       103        2.0000           -0.4214884             -11.4693
       104        2.0000           -0.4204307             -11.4405
       105        2.0000           -0.4185060             -11.3881 (HOMO)
       106                         -0.3402051              -9.2575 (LUMO)
       107                         -0.3336385              -9.0788
       108                         -0.2944651              -8.0128
       109                         -0.2830799              -7.7030
       110                         -0.2728327              -7.4242
       ...                                ...                  ...
       190                          0.6051981              16.4683
      -------------------------------------------------------------
                  HL-Gap            0.0783009 Eh            2.1307 eV
             Fermi-level           -0.3793555 Eh          -10.3228 eV

 SCC (total)                   0 d,  0 h,  0 min,  0.476 sec
 SCC setup                      ...        0 min,  0.018 sec (  3.680%)
 Dispersion                     ...        0 min,  0.022 sec (  4.632%)
 classical contributions        ...        0 min,  0.013 sec (  2.752%)
 integral evaluation            ...        0 min,  0.079 sec ( 16.644%)
 iterations                     ...        0 min,  0.206 sec ( 43.199%)
 molecular gradient             ...        0 min,  0.136 sec ( 28.576%)
 printout                       ...        0 min,  0.002 sec (  0.496%)

         :::::::::::::::::::::::::::::::::::::::::::::::::::::
         ::                     SUMMARY                     ::
         :::::::::::::::::::::::::::::::::::::::::::::::::::::
         :: total energy            -119.507608474395 Eh    ::
         :: gradient norm              0.121453419769 Eh/a0 ::
         :: HOMO-LUMO gap              2.130675017635 eV    ::
         ::.................................................::
         :: SCC energy              -120.998835160718 Eh    ::
         :: -> isotropic ES            0.214611855241 Eh    ::
         :: -> anisotropic ES          0.012712295006 Eh    ::
         :: -> anisotropic XC          0.036652209067 Eh    ::
         :: -> dispersion             -0.089654001708 Eh    ::
         :: repulsion energy           1.488572753044 Eh    ::
         :: add. restraining           0.000000000000 Eh    ::
         :: total charge               0.000000000000 e     ::
         :::::::::::::::::::::::::::::::::::::::::::::::::::::

      ----------------------------------------------------------- 
     |                   =====================                   |
     |                        A N C O P T                        |
     |                   =====================                   |
     |               Approximate Normal Coordinate               |
     |                Rational Function Optimizer                |
      ----------------------------------------------------------- 

          ...................................................
          :                      SETUP                      :
          :.................................................:
          :   optimization level            normal          :
          :   max. optcycles                   200          :
          :   ANC micro-cycles                  20          :
          :   degrees of freedom               186          :
          :.................................................:
          :   RF solver                   davidson          :
          :   write xtbopt.log                true          :
          :   linear?                        false          :
          :   energy convergence         0.5000000E-05 Eh   :
          :   grad. convergence          0.1000000E-02 Eh/α :
          :   maximium RF displ.         1.0000000          :
          :   Hlow (freq-cutoff)         0.1000000E-01      :
          :   Hmax (freq-cutoff)         5.0000000          :
          :   S6 in model hess.         20.0000000          :
          ...................................................

generating ANC from model Hessian ...
Using Lindh-Hessian (1995)
 Shifting diagonal of input Hessian by    9.8375682496496253E-003
 Lowest  eigenvalues of input Hessian
    0.000000    0.000000    0.000000    0.000000    0.000000    0.000000
    0.010000    0.010050    0.010259    0.010378    0.010403    0.010528
    0.010679    0.010885    0.011098    0.011282    0.011492    0.011852
 Highest eigenvalues
    2.050541    2.199545    2.248907    2.256923    2.450716    2.452394


........................................................................
.............................. CYCLE    1 ..............................
........................................................................
   1   -120.9988352 -0.120999E+03  0.120E-04    2.13       0.0  T
   2   -120.9988352 -0.262020E-09  0.816E-05    2.13     153.1  T
   3   -120.9988352 -0.303146E-09  0.433E-05    2.13     288.5  T
     SCC iter.                  ...        0 min,  0.053 sec
     gradient                   ...        0 min,  0.149 sec
 * total energy  :  -119.5076085 Eh     change       -0.1835446E-08 Eh
   gradient norm :     0.1214553 Eh/α   predicted     0.0000000E+00 (-100.00%)
   displ. norm   :     0.3571557 α      lambda       -0.2491852E-01
   maximum displ.:     0.1496299 α      in ANC's #58, #60, #21, ...

........................................................................
.............................. CYCLE    2 ..............................
........................................................................
   1   -121.0990825 -0.121099E+03  0.201E-01    2.31       0.0  T
   2   -121.0996211 -0.538597E-03  0.116E-01    2.28       1.0  T
   3   -121.0996282 -0.715345E-05  0.564E-02    2.28       1.0  T
   4   -121.0996376 -0.933683E-05  0.234E-02    2.27       1.0  T
   5   -121.0996633 -0.257341E-04  0.604E-03    2.28       2.1  T
   6   -121.0996648 -0.152924E-05  0.322E-03    2.28       3.9  T
   7   -121.0996649 -0.733788E-07  0.981E-04    2.28      12.7  T
   8   -121.0996649 -0.407942E-07  0.460E-04    2.28      27.2  T
     SCC iter.                  ...        0 min,  0.139 sec
     gradient                   ...        0 min,  0.130 sec
 * total energy  :  -119.5246694 Eh     change       -0.1706089E-01 Eh
   gradient norm :     0.0413957 Eh/α   predicted    -0.1404861E-01 ( -17.66%)
   displ. norm   :     0.3574650 α      lambda       -0.7340579E-02
   maximum displ.:     0.1553221 α      in ANC's #21, #58, #19, ...

........................................................................
.............................. CYCLE    3 ..............................
........................................................................
   1   -121.1465471 -0.121147E+03  0.135E-01    2.35       0.0  T
   2   -121.1467209 -0.173794E-03  0.794E-02    2.34       1.0  T
   3   -121.1467181  0.272982E-05  0.358E-02    2.34       1.0  T
   4   -121.1467330 -0.148270E-04  0.128E-02    2.34       1.0  T
   5   -121.1467403 -0.737138E-05  0.353E-03    2.34       3.5  T
   6   -121.1467408 -0.435536E-06  0.188E-03    2.34       6.7  T
   7   -121.1467408 -0.214365E-07  0.512E-04    2.34      24.4  T
   8   -121.1467408 -0.726989E-08  0.238E-04    2.34      52.5  T
     SCC iter.                  ...        0 min,  0.143 sec
     gradient                   ...        0 min,  0.115 sec
 * total energy  :  -119.5288078 Eh     change       -0.4138451E-02 Eh
   gradient norm :     0.0187037 Eh/α   predicted    -0.4139285E-02 (   0.02%)
   displ. norm   :     0.3067859 α      lambda       -0.2622837E-02
   maximum displ.:     0.1425925 α      in ANC's #21, #18, #17, ...

........................................................................
.............................. CYCLE    4 ..............................
........................................................................
   1   -121.1553616 -0.121155E+03  0.973E-02    2.32       0.0  T
   2   -121.1553825 -0.209550E-04  0.580E-02    2.32       1.0  T
   3   -121.1553710  0.115176E-04  0.191E-02    2.32       1.0  T
   4   -121.1553872 -0.162513E-04  0.402E-03    2.32       3.1  T
   5   -121.1553880 -0.790349E-06  0.173E-03    2.32       7.2  T
   6   -121.1553881 -0.372831E-07  0.815E-04    2.32      15.3  T
   7   -121.1553881 -0.731681E-08  0.264E-04    2.32      47.3  T
     SCC iter.                  ...        0 min,  0.124 sec
     gradient                   ...        0 min,  0.136 sec
 * total energy  :  -119.5293139 Eh     change       -0.5060823E-03 Eh
   gradient norm :     0.0242380 Eh/α   predicted    -0.1434909E-02 ( 183.53%)
   displ. norm   :     0.1782002 α      lambda       -0.1873203E-02
   maximum displ.:     0.0759298 α      in ANC's #21, #19, #15, ...

........................................................................
.............................. CYCLE    5 ..............................
........................................................................
   1   -121.1501175 -0.121150E+03  0.613E-02    2.31       0.0  T
   2   -121.1501276 -0.100665E-04  0.363E-02    2.31       1.0  T
   3   -121.1501226  0.503536E-05  0.120E-02    2.31       1.0  T
   4   -121.1501292 -0.659039E-05  0.355E-03    2.32       3.5  T
   5   -121.1501298 -0.675453E-06  0.149E-03    2.32       8.4  T
   6   -121.1501299 -0.640806E-07  0.783E-04    2.32      16.0  T
   7   -121.1501299 -0.557772E-08  0.223E-04    2.32      56.0  T
     SCC iter.                  ...        0 min,  0.121 sec
     gradient                   ...        0 min,  0.137 sec
 * total energy  :  -119.5304253 Eh     change       -0.1111366E-02 Eh
   gradient norm :     0.0075964 Eh/α   predicted    -0.9663441E-03 ( -13.05%)
   displ. norm   :     0.1853820 α      lambda       -0.4383872E-03
   maximum displ.:     0.0922520 α      in ANC's #5, #15, #7, ...

........................................................................
.............................. CYCLE    6 ..............................
........................................................................
   1   -121.1480915 -0.121148E+03  0.385E-02    2.30       0.0  T
   2   -121.1480953 -0.384537E-05  0.227E-02    2.30       1.0  T
   3   -121.1480947  0.693093E-06  0.549E-03    2.30       2.3  T
   4   -121.1480957 -0.104257E-05  0.200E-03    2.30       6.3  T
   5   -121.1480959 -0.205593E-06  0.806E-04    2.30      15.5  T
   6   -121.1480959 -0.848293E-08  0.422E-04    2.30      29.6  T
     SCC iter.                  ...        0 min,  0.104 sec
     gradient                   ...        0 min,  0.132 sec
 * total energy  :  -119.5307267 Eh     change       -0.3013900E-03 Eh
   gradient norm :     0.0045323 Eh/α   predicted    -0.2267286E-03 ( -24.77%)
   displ. norm   :     0.2677735 α      lambda       -0.3548180E-03
   maximum displ.:     0.1491741 α      in ANC's #5, #7, #15, ...

........................................................................
.............................. CYCLE    7 ..............................
........................................................................
   1   -121.1473836 -0.121147E+03  0.432E-02    2.30       0.0  T
   2   -121.1473863 -0.268004E-05  0.254E-02    2.30       1.0  T
   3   -121.1473847  0.152656E-05  0.669E-03    2.30       1.9  T
   4   -121.1473871 -0.233277E-05  0.174E-03    2.30       7.2  T
   5   -121.1473871 -0.672284E-07  0.975E-04    2.30      12.8  T
   6   -121.1473872 -0.128016E-07  0.406E-04    2.30      30.8  T
     SCC iter.                  ...        0 min,  0.104 sec
     gradient                   ...        0 min,  0.137 sec
 * total energy  :  -119.5309793 Eh     change       -0.2526845E-03 Eh
   gradient norm :     0.0054674 Eh/α   predicted    -0.1901369E-03 ( -24.75%)
   displ. norm   :     0.2642130 α      lambda       -0.2608347E-03
   maximum displ.:     0.1612167 α      in ANC's #5, #7, #12, ...

........................................................................
.............................. CYCLE    8 ..............................
........................................................................
   1   -121.1488910 -0.121149E+03  0.419E-02    2.31       0.0  T
   2   -121.1488938 -0.283907E-05  0.245E-02    2.30       1.0  T
   3   -121.1488927  0.112590E-05  0.683E-03    2.30       1.8  T
   4   -121.1488947 -0.197544E-05  0.170E-03    2.30       7.3  T
   5   -121.1488947 -0.435220E-07  0.996E-04    2.30      12.6  T
   6   -121.1488947 -0.173553E-07  0.410E-04    2.30      30.5  T
     SCC iter.                  ...        0 min,  0.105 sec
     gradient                   ...        0 min,  0.133 sec
 * total energy  :  -119.5311786 Eh     change       -0.1992172E-03 Eh
   gradient norm :     0.0055540 Eh/α   predicted    -0.1395252E-03 ( -29.96%)
   displ. norm   :     0.3319490 α      lambda       -0.3179163E-03
   maximum displ.:     0.2039771 α      in ANC's #5, #7, #12, ...

........................................................................
.............................. CYCLE    9 ..............................
........................................................................
   1   -121.1509574 -0.121151E+03  0.600E-02    2.31       0.0  T
   2   -121.1509622 -0.485954E-05  0.349E-02    2.31       1.0  T
   3   -121.1509595  0.270144E-05  0.966E-03    2.31       1.3  T
   4   -121.1509637 -0.420170E-05  0.223E-03    2.31       5.6  T
   5   -121.1509639 -0.113344E-06  0.130E-03    2.31       9.6  T
   6   -121.1509639 -0.344299E-07  0.524E-04    2.31      23.9  T
   7   -121.1509639 -0.561788E-08  0.140E-04    2.31      89.5  T
     SCC iter.                  ...        0 min,  0.121 sec
     gradient                   ...        0 min,  0.121 sec
 * total energy  :  -119.5313808 Eh     change       -0.2022179E-03 Eh
   gradient norm :     0.0067554 Eh/α   predicted    -0.1764789E-03 ( -12.73%)
   displ. norm   :     0.3353177 α      lambda       -0.3284729E-03
   maximum displ.:     0.2084952 α      in ANC's #5, #7, #12, ...

........................................................................
.............................. CYCLE   10 ..............................
........................................................................
   1   -121.1520168 -0.121152E+03  0.689E-02    2.32       0.0  T
   2   -121.1520207 -0.387634E-05  0.404E-02    2.32       1.0  T
   3   -121.1520155  0.522391E-05  0.104E-02    2.32       1.2  T
   4   -121.1520224 -0.696046E-05  0.243E-03    2.32       5.1  T
   5   -121.1520226 -0.131644E-06  0.142E-03    2.32       8.8  T
   6   -121.1520226 -0.318239E-07  0.405E-04    2.32      30.9  T
   7   -121.1520226 -0.427745E-08  0.158E-04    2.32      79.2  T
     SCC iter.                  ...        0 min,  0.121 sec
     gradient                   ...        0 min,  0.137 sec
 * total energy  :  -119.5316315 Eh     change       -0.2507610E-03 Eh
   gradient norm :     0.0050760 Eh/α   predicted    -0.1827041E-03 ( -27.14%)
   displ. norm   :     0.3721184 α      lambda       -0.2805004E-03
   maximum displ.:     0.2347139 α      in ANC's #5, #7, #12, ...

........................................................................
.............................. CYCLE   11 ..............................
........................................................................
   1   -121.1515356 -0.121152E+03  0.770E-02    2.31       0.0  T
   2   -121.1515386 -0.297176E-05  0.451E-02    2.32       1.0  T
   3   -121.1515336  0.500009E-05  0.936E-03    2.31       1.3  T
   4   -121.1515403 -0.675589E-05  0.241E-03    2.32       5.2  T
   5   -121.1515404 -0.420469E-07  0.134E-03    2.32       9.3  T
   6   -121.1515404 -0.366646E-07  0.360E-04    2.32      34.8  T
   7   -121.1515404 -0.585428E-08  0.143E-04    2.32      87.3  T
     SCC iter.                  ...        0 min,  0.128 sec
     gradient                   ...        0 min,  0.126 sec
 * total energy  :  -119.5318551 Eh     change       -0.2235976E-03 Eh
   gradient norm :     0.0042859 Eh/α   predicted    -0.1596722E-03 ( -28.59%)
   displ. norm   :     0.3655317 α      lambda       -0.2269389E-03
   maximum displ.:     0.2370214 α      in ANC's #5, #7, #4, ...

........................................................................
.............................. CYCLE   12 ..............................
........................................................................
   1   -121.1505291 -0.121151E+03  0.753E-02    2.31       0.0  T
   2   -121.1505317 -0.259694E-05  0.440E-02    2.31       1.0  T
   3   -121.1505278  0.393758E-05  0.835E-03    2.31       1.5  T
   4   -121.1505332 -0.543759E-05  0.221E-03    2.31       5.7  T
   5   -121.1505332 -0.248629E-07  0.120E-03    2.31      10.4  T
   6   -121.1505333 -0.342040E-07  0.351E-04    2.31      35.6  T
   7   -121.1505333 -0.468093E-08  0.133E-04    2.31      93.9  T
     SCC iter.                  ...        0 min,  0.125 sec
     gradient                   ...        0 min,  0.138 sec
 * total energy  :  -119.5320259 Eh     change       -0.1707709E-03 Eh
   gradient norm :     0.0031334 Eh/α   predicted    -0.1286316E-03 ( -24.68%)
   displ. norm   :     0.2785651 α      lambda       -0.1259069E-03
   maximum displ.:     0.1863656 α      in ANC's #5, #7, #4, ...

........................................................................
.............................. CYCLE   13 ..............................
........................................................................
   1   -121.1502586 -0.121150E+03  0.550E-02    2.31       0.0  T
   2   -121.1502602 -0.161566E-05  0.321E-02    2.31       1.0  T
   3   -121.1502584  0.180088E-05  0.587E-03    2.31       2.1  T
   4   -121.1502609 -0.255503E-05  0.162E-03    2.31       7.7  T
   5   -121.1502610 -0.340826E-07  0.917E-04    2.31      13.6  T
   6   -121.1502610 -0.124933E-07  0.305E-04    2.31      41.0  T
     SCC iter.                  ...        0 min,  0.104 sec
     gradient                   ...        0 min,  0.133 sec
 * total energy  :  -119.5321200 Eh     change       -0.9407776E-04 Eh
   gradient norm :     0.0023182 Eh/α   predicted    -0.6784038E-04 ( -27.89%)
   displ. norm   :     0.1860177 α      lambda       -0.7158303E-04
   maximum displ.:     0.1271718 α      in ANC's #5, #7, #4, ...

........................................................................
.............................. CYCLE   14 ..............................
........................................................................
   1   -121.1507696 -0.121151E+03  0.374E-02    2.31       0.0  T
   2   -121.1507704 -0.859955E-06  0.219E-02    2.31       1.0  T
   3   -121.1507696  0.825712E-06  0.404E-03    2.31       3.1  T
   4   -121.1507707 -0.112113E-05  0.102E-03    2.31      12.2  T
   5   -121.1507708 -0.275704E-07  0.568E-04    2.31      22.0  T
   6   -121.1507708 -0.454260E-08  0.229E-04    2.31      54.5  T
     SCC iter.                  ...        0 min,  0.107 sec
     gradient                   ...        0 min,  0.126 sec
 * total energy  :  -119.5321754 Eh     change       -0.5538992E-04 Eh
   gradient norm :     0.0018651 Eh/α   predicted    -0.3703048E-04 ( -33.15%)
   displ. norm   :     0.2304654 α      lambda       -0.5409423E-04
   maximum displ.:     0.1534845 α      in ANC's #5, #7, #3, ...

........................................................................
.............................. CYCLE   15 ..............................
........................................................................
   1   -121.1513159 -0.121151E+03  0.505E-02    2.31       0.0  T
   2   -121.1513171 -0.121898E-05  0.296E-02    2.31       1.0  T
   3   -121.1513159  0.126906E-05  0.520E-03    2.31       2.4  T
   4   -121.1513176 -0.172321E-05  0.112E-03    2.31      11.2  T
   5   -121.1513176 -0.215484E-07  0.645E-04    2.31      19.4  T
   6   -121.1513176 -0.738616E-08  0.209E-04    2.31      59.7  T
     SCC iter.                  ...        0 min,  0.104 sec
     gradient                   ...        0 min,  0.143 sec
 * total energy  :  -119.5322313 Eh     change       -0.5590891E-04 Eh
   gradient norm :     0.0021530 Eh/α   predicted    -0.2768707E-04 ( -50.48%)
   displ. norm   :     0.0983833 α      lambda       -0.3311564E-04
   maximum displ.:     0.0589443 α      in ANC's #5, #12, #3, ...

........................................................................
.............................. CYCLE   16 ..............................
........................................................................
   1   -121.1515071 -0.121152E+03  0.243E-02    2.31       0.0  T
   2   -121.1515073 -0.214809E-06  0.143E-02    2.31       1.0  T
   3   -121.1515070  0.271366E-06  0.210E-03    2.31       5.9  T
   4   -121.1515073 -0.340822E-06  0.471E-04    2.31      26.6  T
   5   -121.1515073 -0.889092E-08  0.234E-04    2.31      53.4  T
     SCC iter.                  ...        0 min,  0.086 sec
     gradient                   ...        0 min,  0.132 sec
 * total energy  :  -119.5322608 Eh     change       -0.2948144E-04 Eh
   gradient norm :     0.0018683 Eh/α   predicted    -0.1672249E-04 ( -43.28%)
   displ. norm   :     0.3399450 α      lambda       -0.7614824E-04
   maximum displ.:     0.1820060 α      in ANC's #5, #12, #8, ...

........................................................................
.............................. CYCLE   17 ..............................
........................................................................
   1   -121.1507513 -0.121151E+03  0.872E-02    2.30       0.0  T
   2   -121.1507545 -0.319220E-05  0.511E-02    2.31       1.0  T
   3   -121.1507499  0.460743E-05  0.868E-03    2.30       1.4  T
   4   -121.1507556 -0.570269E-05  0.169E-03    2.31       7.4  T
   5   -121.1507557 -0.110878E-06  0.886E-04    2.31      14.1  T
   6   -121.1507557 -0.715347E-08  0.373E-04    2.31      33.5  T
     SCC iter.                  ...        0 min,  0.104 sec
     gradient                   ...        0 min,  0.116 sec
 * total energy  :  -119.5323331 Eh     change       -0.7238457E-04 Eh
   gradient norm :     0.0023036 Eh/α   predicted    -0.4003165E-04 ( -44.70%)
   displ. norm   :     0.1393223 α      lambda       -0.3386767E-04
   maximum displ.:     0.0653823 α      in ANC's #12, #5, #8, ...

........................................................................
.............................. CYCLE   18 ..............................
........................................................................
   1   -121.1513025 -0.121151E+03  0.371E-02    2.31       0.0  T
   2   -121.1513034 -0.904634E-06  0.217E-02    2.31       1.0  T
   3   -121.1513025  0.915606E-06  0.422E-03    2.31       3.0  T
   4   -121.1513037 -0.114308E-05  0.978E-04    2.31      12.8  T
   5   -121.1513037 -0.442190E-07  0.487E-04    2.31      25.7  T
   6   -121.1513037 -0.501043E-08  0.255E-04    2.31      49.1  T
     SCC iter.                  ...        0 min,  0.104 sec
     gradient                   ...        0 min,  0.142 sec
 * total energy  :  -119.5323580 Eh     change       -0.2484156E-04 Eh
   gradient norm :     0.0026167 Eh/α   predicted    -0.1726372E-04 ( -30.50%)
   displ. norm   :     0.1898946 α      lambda       -0.3950165E-04
   maximum displ.:     0.0835975 α      in ANC's #8, #5, #12, ...

........................................................................
.............................. CYCLE   19 ..............................
........................................................................
   1   -121.1510919 -0.121151E+03  0.497E-02    2.31       0.0  T
   2   -121.1510926 -0.690930E-06  0.291E-02    2.31       1.0  T
   3   -121.1510911  0.154433E-05  0.485E-03    2.31       2.6  T
   4   -121.1510930 -0.192257E-05  0.905E-04    2.31      13.8  T
   5   -121.1510930 -0.800085E-08  0.515E-04    2.31      24.3  T
   6   -121.1510930 -0.492247E-08  0.183E-04    2.31      68.4  T
     SCC iter.                  ...        0 min,  0.105 sec
     gradient                   ...        0 min,  0.126 sec
 * total energy  :  -119.5323877 Eh     change       -0.2970575E-04 Eh
   gradient norm :     0.0018855 Eh/α   predicted    -0.2046351E-04 ( -31.11%)
   displ. norm   :     0.2575950 α      lambda       -0.3350294E-04
   maximum displ.:     0.1222201 α      in ANC's #8, #3, #5, ...

........................................................................
.............................. CYCLE   20 ..............................
........................................................................
   1   -121.1506168 -0.121151E+03  0.679E-02    2.30       0.0  T
   2   -121.1506182 -0.137436E-05  0.398E-02    2.31       1.0  T
   3   -121.1506160  0.216697E-05  0.607E-03    2.31       2.1  T
   4   -121.1506189 -0.286698E-05  0.142E-03    2.31       8.8  T
   5   -121.1506189 -0.212628E-07  0.770E-04    2.31      16.2  T
   6   -121.1506189 -0.839886E-08  0.279E-04    2.31      44.9  T
     SCC iter.                  ...        0 min,  0.108 sec
     gradient                   ...        0 min,  0.134 sec
 * total energy  :  -119.5324215 Eh     change       -0.3378875E-04 Eh
   gradient norm :     0.0014208 Eh/α   predicted    -0.1724741E-04 ( -48.96%)
   displ. norm   :     0.1638358 α      lambda       -0.2617521E-04
   maximum displ.:     0.0766428 α      in ANC's #8, #3, #7, ...
 * RMSD in coord.:     0.4441900 α      energy gain  -0.2481300E-01 Eh

generating ANC from model Hessian ...
Using Lindh-Hessian (1995)
 Shifting diagonal of input Hessian by    9.8708460153651648E-003
 Lowest  eigenvalues of input Hessian
    0.000000    0.000000    0.000000    0.000000    0.000000    0.000000
    0.010000    0.010086    0.010353    0.010462    0.010656    0.010701
    0.011043    0.011251    0.011464    0.011639    0.011802    0.012178
 Highest eigenvalues
    2.207561    2.341075    2.349451    2.395949    2.654319    2.656580


........................................................................
.............................. CYCLE   21 ..............................
........................................................................
   1   -121.1507692 -0.121151E+03  0.432E-02    2.31       0.0  T
   2   -121.1507699 -0.695832E-06  0.253E-02    2.31       1.0  T
   3   -121.1507695  0.463159E-06  0.352E-03    2.31       3.6  T
   4   -121.1507702 -0.756396E-06  0.112E-03    2.31      11.2  T
   5   -121.1507703 -0.192270E-07  0.605E-04    2.31      20.7  T
   6   -121.1507703 -0.489044E-08  0.190E-04    2.31      65.6  T
     SCC iter.                  ...        0 min,  0.103 sec
     gradient                   ...        0 min,  0.134 sec
 * total energy  :  -119.5324538 Eh     change       -0.3228662E-04 Eh
   gradient norm :     0.0013593 Eh/α   predicted     0.0000000E+00 (-100.00%)
   displ. norm   :     0.0457643 α      lambda       -0.1495286E-04
   maximum displ.:     0.0311198 α      in ANC's #12, #15, #3, ...

........................................................................
.............................. CYCLE   22 ..............................
........................................................................
   1   -121.1510912 -0.121151E+03  0.125E-02    2.31       0.0  T
   2   -121.1510913 -0.781604E-07  0.735E-03    2.31       1.7  T
   3   -121.1510913  0.569104E-07  0.115E-03    2.31      10.9  T
   4   -121.1510913 -0.797048E-07  0.324E-04    2.31      38.6  T
   5   -121.1510914 -0.336340E-08  0.180E-04    2.31      69.4  T
     SCC iter.                  ...        0 min,  0.086 sec
     gradient                   ...        0 min,  0.139 sec
 * total energy  :  -119.5324718 Eh     change       -0.1802246E-04 Eh
   gradient norm :     0.0006699 Eh/α   predicted    -0.7490380E-05 ( -58.44%)
   displ. norm   :     0.1298909 α      lambda       -0.2985984E-04
   maximum displ.:     0.0833904 α      in ANC's #12, #3, #15, ...

........................................................................
.............................. CYCLE   23 ..............................
........................................................................
   1   -121.1514624 -0.121151E+03  0.339E-02    2.31       0.0  T
   2   -121.1514627 -0.383215E-06  0.199E-02    2.31       1.0  T
   3   -121.1514625  0.236761E-06  0.252E-03    2.31       5.0  T
   4   -121.1514629 -0.415775E-06  0.850E-04    2.31      14.7  T
   5   -121.1514629 -0.733704E-08  0.440E-04    2.31      28.4  T
     SCC iter.                  ...        0 min,  0.087 sec
     gradient                   ...        0 min,  0.163 sec
 * total energy  :  -119.5324884 Eh     change       -0.1661309E-04 Eh
   gradient norm :     0.0025745 Eh/α   predicted    -0.1506952E-04 (  -9.29%)
   displ. norm   :     0.0633166 α      lambda       -0.2684588E-04
   maximum displ.:     0.0380722 α      in ANC's #12, #3, #6, ...

........................................................................
.............................. CYCLE   24 ..............................
........................................................................
   1   -121.1514381 -0.121151E+03  0.167E-02    2.31       0.0  T
   2   -121.1514383 -0.127881E-06  0.977E-03    2.31       1.3  T
   3   -121.1514380  0.231387E-06  0.190E-03    2.31       6.6  T
   4   -121.1514383 -0.303191E-06  0.535E-04    2.31      23.4  T
   5   -121.1514383 -0.510455E-08  0.303E-04    2.31      41.2  T
     SCC iter.                  ...        0 min,  0.086 sec
     gradient                   ...        0 min,  0.133 sec
 * total energy  :  -119.5325044 Eh     change       -0.1596953E-04 Eh
   gradient norm :     0.0014488 Eh/α   predicted    -0.1347743E-04 ( -15.61%)
   displ. norm   :     0.0639892 α      lambda       -0.1051338E-04
   maximum displ.:     0.0316405 α      in ANC's #3, #12, #6, ...

........................................................................
.............................. CYCLE   25 ..............................
........................................................................
   1   -121.1514677 -0.121151E+03  0.177E-02    2.31       0.0  T
   2   -121.1514678 -0.147622E-06  0.104E-02    2.31       1.2  T
   3   -121.1514678  0.656726E-07  0.145E-03    2.31       8.6  T
   4   -121.1514679 -0.125560E-06  0.563E-04    2.31      22.2  T
   5   -121.1514679 -0.636888E-08  0.314E-04    2.31      39.9  T
     SCC iter.                  ...        0 min,  0.087 sec
     gradient                   ...        0 min,  0.139 sec
 * total energy  :  -119.5325159 Eh     change       -0.1149372E-04 Eh
   gradient norm :     0.0011282 Eh/α   predicted    -0.5269271E-05 ( -54.16%)
   displ. norm   :     0.1046247 α      lambda       -0.1361245E-04
   maximum displ.:     0.0535389 α      in ANC's #3, #12, #4, ...

........................................................................
.............................. CYCLE   26 ..............................
........................................................................
   1   -121.1513852 -0.121151E+03  0.282E-02    2.31       0.0  T
   2   -121.1513856 -0.363207E-06  0.165E-02    2.31       1.0  T
   3   -121.1513856 -0.468656E-08  0.195E-03    2.31       6.4  T
   4   -121.1513857 -0.152962E-06  0.869E-04    2.31      14.4  T
   5   -121.1513857 -0.583715E-08  0.447E-04    2.31      28.0  T
     SCC iter.                  ...        0 min,  0.119 sec
     gradient                   ...        0 min,  0.097 sec
 * total energy  :  -119.5325304 Eh     change       -0.1457879E-04 Eh
   gradient norm :     0.0009024 Eh/α   predicted    -0.6839720E-05 ( -53.08%)
   displ. norm   :     0.1088053 α      lambda       -0.8871150E-05
   maximum displ.:     0.0582962 α      in ANC's #3, #4, #6, ...

........................................................................
.............................. CYCLE   27 ..............................
........................................................................
   1   -121.1512535 -0.121151E+03  0.282E-02    2.31       0.0  T
   2   -121.1512538 -0.298673E-06  0.165E-02    2.31       1.0  T
   3   -121.1512539 -0.692244E-07  0.165E-03    2.31       7.6  T
   4   -121.1512540 -0.847390E-07  0.852E-04    2.31      14.7  T
   5   -121.1512540 -0.386125E-08  0.323E-04    2.31      38.8  T
     SCC iter.                  ...        0 min,  0.094 sec
     gradient                   ...        0 min,  0.150 sec
 * total energy  :  -119.5325393 Eh     change       -0.8818728E-05 Eh
   gradient norm :     0.0010849 Eh/α   predicted    -0.4460003E-05 ( -49.43%)
   displ. norm   :     0.1087724 α      lambda        0.1619441E-05
   maximum displ.:     0.0582966 α      in ANC's #3, #4, #6, ...

........................................................................
.............................. CYCLE   28 ..............................
........................................................................
   1   -121.1509641 -0.121151E+03  0.282E-02    2.31       0.0  T
   2   -121.1509644 -0.304917E-06  0.165E-02    2.31       1.0  T
   3   -121.1509645 -0.700897E-07  0.164E-03    2.31       7.6  T
   4   -121.1509646 -0.827622E-07  0.854E-04    2.31      14.6  T
   5   -121.1509646 -0.482463E-08  0.340E-04    2.31      36.7  T
     SCC iter.                  ...        0 min,  0.086 sec
     gradient                   ...        0 min,  0.121 sec
 * total energy  :  -119.5325393 Eh     change        0.6520835E-08 Eh
   gradient norm :     0.0019973 Eh/α   predicted     0.8138291E-06 (*******%)
   displ. norm   :     0.0808688 α      lambda       -0.1344104E-04
   maximum displ.:     0.0447878 α      in ANC's #3, #4, #6, ...

........................................................................
.............................. CYCLE   29 ..............................
........................................................................
   1   -121.1510604 -0.121151E+03  0.215E-02    2.31       0.0  T
   2   -121.1510607 -0.296184E-06  0.126E-02    2.31       1.0  T
   3   -121.1510604  0.257489E-06  0.275E-03    2.31       4.5  T
   4   -121.1510608 -0.400663E-06  0.738E-04    2.31      16.9  T
   5   -121.1510608 -0.241812E-08  0.427E-04    2.31      29.3  T
     SCC iter.                  ...        0 min,  0.091 sec
     gradient                   ...        0 min,  0.145 sec
 * total energy  :  -119.5325463 Eh     change       -0.7035014E-05 Eh
   gradient norm :     0.0017956 Eh/α   predicted    -0.6741026E-05 (  -4.18%)
   displ. norm   :     0.0293564 α      lambda       -0.9647695E-05
   maximum displ.:     0.0183586 α      in ANC's #12, #3, #11, ...

........................................................................
.............................. CYCLE   30 ..............................
........................................................................
   1   -121.1518180 -0.121152E+03  0.964E-03    2.31       0.0  T
   2   -121.1518182 -0.132620E-06  0.565E-03    2.31       2.2  T
   3   -121.1518181  0.700986E-07  0.148E-03    2.31       8.5  T
   4   -121.1518182 -0.906966E-07  0.301E-04    2.31      41.6  T
   5   -121.1518182 -0.493031E-08  0.125E-04    2.31      99.7  T
     SCC iter.                  ...        0 min,  0.091 sec
     gradient                   ...        0 min,  0.120 sec
 * total energy  :  -119.5325569 Eh     change       -0.1063148E-04 Eh
   gradient norm :     0.0007241 Eh/α   predicted    -0.4826096E-05 ( -54.61%)
   displ. norm   :     0.1071509 α      lambda       -0.1217425E-04
   maximum displ.:     0.0604248 α      in ANC's #3, #4, #7, ...

........................................................................
.............................. CYCLE   31 ..............................
........................................................................
   1   -121.1520497 -0.121152E+03  0.285E-02    2.31       0.0  T
   2   -121.1520499 -0.230269E-06  0.167E-02    2.31       1.0  T
   3   -121.1520498  0.901697E-07  0.179E-03    2.31       7.0  T
   4   -121.1520500 -0.195066E-06  0.668E-04    2.31      18.7  T
   5   -121.1520500 -0.433141E-08  0.353E-04    2.31      35.4  T
     SCC iter.                  ...        0 min,  0.087 sec
     gradient                   ...        0 min,  0.149 sec
 * total energy  :  -119.5325708 Eh     change       -0.1389596E-04 Eh
   gradient norm :     0.0008448 Eh/α   predicted    -0.6119253E-05 ( -55.96%)
   displ. norm   :     0.1876918 α      lambda       -0.1338827E-04
   maximum displ.:     0.1074364 α      in ANC's #3, #4, #7, ...

........................................................................
.............................. CYCLE   32 ..............................
........................................................................
   1   -121.1517932 -0.121152E+03  0.488E-02    2.31       0.0  T
   2   -121.1517939 -0.655281E-06  0.285E-02    2.31       1.0  T
   3   -121.1517935  0.339701E-06  0.329E-03    2.31       3.8  T
   4   -121.1517942 -0.703435E-06  0.122E-03    2.31      10.3  T
   5   -121.1517942 -0.492714E-08  0.465E-04    2.31      26.9  T
   6   -121.1517942 -0.624762E-08  0.131E-04    2.31      95.3  T
     SCC iter.                  ...        0 min,  0.109 sec
     gradient                   ...        0 min,  0.129 sec
 * total energy  :  -119.5325868 Eh     change       -0.1598388E-04 Eh
   gradient norm :     0.0012426 Eh/α   predicted    -0.6801722E-05 ( -57.45%)
   displ. norm   :     0.2385060 α      lambda       -0.1481723E-04
   maximum displ.:     0.1376472 α      in ANC's #3, #4, #7, ...

........................................................................
.............................. CYCLE   33 ..............................
........................................................................
   1   -121.1513364 -0.121151E+03  0.619E-02    2.31       0.0  T
   2   -121.1513374 -0.102034E-05  0.362E-02    2.31       1.0  T
   3   -121.1513369  0.520543E-06  0.416E-03    2.31       3.0  T
   4   -121.1513380 -0.109188E-05  0.153E-03    2.31       8.2  T
   5   -121.1513380 -0.456153E-08  0.573E-04    2.31      21.8  T
   6   -121.1513380 -0.122209E-07  0.167E-04    2.31      75.0  T
     SCC iter.                  ...        0 min,  0.107 sec
     gradient                   ...        0 min,  0.138 sec
 * total energy  :  -119.5326033 Eh     change       -0.1651075E-04 Eh
   gradient norm :     0.0012396 Eh/α   predicted    -0.7596886E-05 ( -53.99%)
   displ. norm   :     0.2094889 α      lambda       -0.1157904E-04
   maximum displ.:     0.1232002 α      in ANC's #3, #4, #7, ...

........................................................................
.............................. CYCLE   34 ..............................
........................................................................
   1   -121.1510713 -0.121151E+03  0.534E-02    2.31       0.0  T
   2   -121.1510720 -0.766651E-06  0.313E-02    2.31       1.0  T
   3   -121.1510714  0.646337E-06  0.398E-03    2.31       3.1  T
   4   -121.1510725 -0.107745E-05  0.127E-03    2.31       9.8  T
   5   -121.1510725 -0.181880E-08  0.567E-04    2.31      22.1  T
   6   -121.1510725 -0.108691E-07  0.148E-04    2.31      84.5  T
     SCC iter.                  ...        0 min,  0.105 sec
     gradient                   ...        0 min,  0.142 sec
 * total energy  :  -119.5326156 Eh     change       -0.1225760E-04 Eh
   gradient norm :     0.0007793 Eh/α   predicted    -0.5903363E-05 ( -51.84%)
   displ. norm   :     0.1467426 α      lambda       -0.7432624E-05
   maximum displ.:     0.0894042 α      in ANC's #3, #4, #7, ...

........................................................................
.............................. CYCLE   35 ..............................
........................................................................
   1   -121.1512467 -0.121151E+03  0.364E-02    2.31       0.0  T
   2   -121.1512471 -0.348699E-06  0.213E-02    2.31       1.0  T
   3   -121.1512468  0.233193E-06  0.245E-03    2.31       5.1  T
   4   -121.1512472 -0.406701E-06  0.823E-04    2.31      15.2  T
   5   -121.1512472 -0.449687E-08  0.397E-04    2.31      31.5  T
     SCC iter.                  ...        0 min,  0.087 sec
     gradient                   ...        0 min,  0.145 sec
 * total energy  :  -119.5326241 Eh     change       -0.8515450E-05 Eh
   gradient norm :     0.0004728 Eh/α   predicted    -0.3752827E-05 ( -55.93%)
   displ. norm   :     0.1472071 α      lambda       -0.6430309E-05
   maximum displ.:     0.0915897 α      in ANC's #3, #4, #2, ...

........................................................................
.............................. CYCLE   36 ..............................
........................................................................
   1   -121.1513756 -0.121151E+03  0.351E-02    2.31       0.0  T
   2   -121.1513759 -0.312168E-06  0.205E-02    2.31       1.0  T
   3   -121.1513757  0.260488E-06  0.241E-03    2.31       5.2  T
   4   -121.1513761 -0.410698E-06  0.738E-04    2.31      16.9  T
   5   -121.1513761 -0.433158E-08  0.373E-04    2.31      33.5  T
     SCC iter.                  ...        0 min,  0.087 sec
     gradient                   ...        0 min,  0.119 sec
 * total energy  :  -119.5326323 Eh     change       -0.8233923E-05 Eh
   gradient norm :     0.0005399 Eh/α   predicted    -0.3248633E-05 ( -60.55%)
   displ. norm   :     0.1485502 α      lambda       -0.6688716E-05
   maximum displ.:     0.0927476 α      in ANC's #3, #4, #2, ...

........................................................................
.............................. CYCLE   37 ..............................
........................................................................
   1   -121.1514751 -0.121151E+03  0.338E-02    2.31       0.0  T
   2   -121.1514753 -0.270747E-06  0.198E-02    2.31       1.0  T
   3   -121.1514750  0.285608E-06  0.240E-03    2.31       5.2  T
   4   -121.1514755 -0.418995E-06  0.667E-04    2.31      18.7  T
   5   -121.1514755 -0.306247E-08  0.340E-04    2.31      36.7  T
     SCC iter.                  ...        0 min,  0.089 sec
     gradient                   ...        0 min,  0.140 sec
 * total energy  :  -119.5326409 Eh     change       -0.8620578E-05 Eh
   gradient norm :     0.0006660 Eh/α   predicted    -0.3379409E-05 ( -60.80%)
   displ. norm   :     0.1523285 α      lambda       -0.7379893E-05
   maximum displ.:     0.0946706 α      in ANC's #3, #4, #2, ...

........................................................................
.............................. CYCLE   38 ..............................
........................................................................
   1   -121.1516677 -0.121152E+03  0.335E-02    2.31       0.0  T
   2   -121.1516680 -0.241413E-06  0.196E-02    2.31       1.0  T
   3   -121.1516677  0.266719E-06  0.230E-03    2.31       5.4  T
   4   -121.1516681 -0.385817E-06  0.612E-04    2.31      20.4  T
   5   -121.1516681 -0.227219E-08  0.303E-04    2.31      41.3  T
     SCC iter.                  ...        0 min,  0.091 sec
     gradient                   ...        0 min,  0.133 sec
 * total energy  :  -119.5326499 Eh     change       -0.9000362E-05 Eh
   gradient norm :     0.0007116 Eh/α   predicted    -0.3730373E-05 ( -58.55%)
   displ. norm   :     0.1573673 α      lambda       -0.7403376E-05
   maximum displ.:     0.0974821 α      in ANC's #3, #4, #2, ...

........................................................................
.............................. CYCLE   39 ..............................
........................................................................
   1   -121.1516864 -0.121152E+03  0.335E-02    2.31       0.0  T
   2   -121.1516866 -0.249877E-06  0.196E-02    2.31       1.0  T
   3   -121.1516863  0.325023E-06  0.250E-03    2.31       5.0  T
   4   -121.1516868 -0.454094E-06  0.621E-04    2.31      20.1  T
   5   -121.1516868 -0.149807E-08  0.309E-04    2.31      40.5  T
     SCC iter.                  ...        0 min,  0.088 sec
     gradient                   ...        0 min,  0.123 sec
 * total energy  :  -119.5326583 Eh     change       -0.8382371E-05 Eh
   gradient norm :     0.0005470 Eh/α   predicted    -0.3745221E-05 ( -55.32%)
   displ. norm   :     0.1572701 α      lambda       -0.5640036E-05
   maximum displ.:     0.0975952 α      in ANC's #3, #4, #2, ...

........................................................................
.............................. CYCLE   40 ..............................
........................................................................
   1   -121.1517175 -0.121152E+03  0.329E-02    2.31       0.0  T
   2   -121.1517177 -0.241229E-06  0.192E-02    2.31       1.0  T
   3   -121.1517174  0.326414E-06  0.249E-03    2.31       5.0  T
   4   -121.1517179 -0.453912E-06  0.605E-04    2.31      20.7  T
   5   -121.1517179 -0.105341E-08  0.280E-04    2.31      44.7  T
     SCC iter.                  ...        0 min,  0.087 sec
     gradient                   ...        0 min,  0.123 sec
 * total energy  :  -119.5326647 Eh     change       -0.6394186E-05 Eh
   gradient norm :     0.0004641 Eh/α   predicted    -0.2854225E-05 ( -55.36%)
   displ. norm   :     0.1249964 α      lambda       -0.3742565E-05
   maximum displ.:     0.0774992 α      in ANC's #3, #4, #2, ...

........................................................................
.............................. CYCLE   41 ..............................
........................................................................
   1   -121.1517777 -0.121152E+03  0.255E-02    2.31       0.0  T
   2   -121.1517779 -0.161801E-06  0.149E-02    2.31       1.0  T
   3   -121.1517776  0.239822E-06  0.212E-03    2.31       5.9  T
   4   -121.1517780 -0.324360E-06  0.487E-04    2.31      25.7  T
   5   -121.1517780 -0.860567E-09  0.248E-04    2.31      50.5  T
     SCC iter.                  ...        0 min,  0.085 sec
     gradient                   ...        0 min,  0.132 sec
 * total energy  :  -119.5326690 Eh     change       -0.4287593E-05 Eh
   gradient norm :     0.0004035 Eh/α   predicted    -0.1885231E-05 ( -56.03%)
   displ. norm   :     0.1273200 α      lambda       -0.3767495E-05
   maximum displ.:     0.0781736 α      in ANC's #3, #4, #2, ...

   *** GEOMETRY OPTIMIZATION CONVERGED AFTER 41 ITERATIONS ***

------------------------------------------------------------------------
 total energy gain   :        -0.0250605 Eh      -15.7257 kcal/mol
 total RMSD          :         0.6319972 a0        0.3344 Å
 total power (kW/mol):        -1.6047906 (step)   -4.1599 (real)
------------------------------------------------------------------------

 ANCopt (total)                0 d,  0 h,  0 min, 15.817 sec
 optimizer setup                ...        0 min,  0.000 sec (  0.002%)
 model hessian                  ...        0 min,  0.101 sec (  0.636%)
 ANC generation                 ...        0 min,  0.024 sec (  0.153%)
 coordinate transformation      ...        0 min,  0.003 sec (  0.021%)
 single point calculation       ...        0 min, 15.131 sec ( 95.667%)
 optimization log               ...        0 min,  0.042 sec (  0.264%)
 hessian update                 ...        0 min,  0.494 sec (  3.123%)
 rational function              ...        0 min,  0.011 sec (  0.067%)

================
 final structure:
================
64
 xtb: 6.3.3 (4ae9cef)
C        -2.48522534717056   -1.99347518345043   -1.86270299401403
C        -2.89393173277302   -2.88503278192308   -2.84114481909241
C        -2.18745497069453   -4.05355601241935   -3.05998776214039
C        -1.07175532967649   -4.33516496597441   -2.28857194436503
C        -0.66342418200445   -3.44686864911868   -1.31177683007699
C        -1.36275958072644   -2.26398625577421   -1.09618238964059
C        -0.86234499023375   -1.32546990217437   -0.02008889193568
C         0.56653195174934   -0.80181485279977   -0.32909055429821
C         1.53063073912428   -1.06730822912427    0.79978430067661
C         1.36362736066670   -0.43238746772372    2.02510115202215
C         2.25729368624212   -0.65769774846083    3.05600739016660
C         3.32169302953697   -1.52531247319023    2.87397459239240
C         3.48359905478318   -2.17344553674104    1.66133164109062
C         2.59006383244962   -1.94737233460249    0.62866707825319
N         0.36624325401763    0.62260631038302   -0.55210650637369
C         1.31007834973200    1.56850189212069   -0.77849679680773
C         2.71514868925714    1.04602526523156   -0.75556941854473
C         3.23260183588281    0.37363641470553   -1.85690626301075
C         4.52470841847195   -0.12825487207475   -1.82847206357526
C         5.29891745677951    0.01379653667380   -0.69258840526461
C         4.77671641830741    0.69714560896918    0.39842510657344
N         5.56324084594552    0.81353020843348    1.60424958347696
O         5.06627261555818    1.38900902990928    2.54596169418992
O         6.66454697331324    0.30893694924522    1.60423390747407
C         3.50086673572414    1.24024382023204    0.36931189121378
O         1.02200477231501    2.72925889523883   -0.97054369665249
C        -1.02933673608120    0.97554625966357   -0.56294296737060
C        -1.58924395152692    1.10808818797061   -1.99701068902891
O        -0.72501958528333    0.70427184330045   -2.91867207481488
O        -2.69384576587137    1.50845428875070   -2.23398415969801
N        -1.65491388726579   -0.11835949725455    0.12803346795367
C        -2.80272566000968   -0.10503578661453    0.85515149371345
C        -3.48266400218292    1.22955705168828    0.93171548504053
C        -3.00759408524895    2.20439850042756    1.79518073454005
C        -3.68232457323374    3.41452835959827    1.88454173897829
N        -3.18784893626430    4.42758494768060    2.78882579928820
O        -2.15886873504737    4.19156535479939    3.38350208552410
O        -3.83239854661971    5.44698833146421    2.89568615043142
C        -4.81716481599127    3.66732218992655    1.12497251125759
C        -5.28630004342303    2.68496012084757    0.27279876497776
C        -4.62860960975135    1.46889810862191    0.18069281575717
O        -3.23118221186277   -1.09913005629420    1.39536563530448
H        -3.05807991945407   -1.09415368727655   -1.69420669403388
H        -3.77166029126146   -2.66359349651505   -3.42971425431987
H        -2.50890778813987   -4.74726962263710   -3.82199476766111
H        -0.52222927390686   -5.25139674117856   -2.44491033507429
H         0.19897044151288   -3.67187097418639   -0.70054613380574
H        -0.88601543128760   -1.85913345274185    0.93825554843958
H         0.93905064488785   -1.27139815302441   -1.24867449117857
H         0.53693774220857    0.24864888265995    2.16590162171861
H         2.12896357188278   -0.15138018853065    3.99977444174323
H         4.02485038445742   -1.69224534569603    3.67517495040466
H         4.31053468187818   -2.85215818829595    1.51582270881803
H         2.72370553179894   -2.44715844397605   -0.32032065795123
H         2.62015699793261    0.24833087549298   -2.73766281323279
H         4.92203393252164   -0.64235456328061   -2.68986255301142
H         6.29702176533222   -0.39194260419129   -0.63241517579001
H         3.13090718809884    1.78253162062165    1.22563803105952
H        -1.19295370448475    1.94151560209123   -0.06572541604090
H        -1.09482765561135    0.81211003341482   -3.81078828263071
H        -2.13576042001712    2.04049451201450    2.41158201986829
H        -5.31117630979489    4.62237027241215    1.21743128333914
H        -6.16800827009486    2.86465810333632   -0.32165653131907
H        -5.00136055935569    0.70021168931612   -0.47777929294226

 Bond Distances (Angstroems)
 ---------------------------
C1-C2=1.3854         C1-C6=1.3859         C1-H43=1.0795        C2-C1=1.3854         C2-C3=1.3829         C2-H44=1.0797        
C3-C2=1.3829         C3-C4=1.3853         C3-H45=1.0795        C4-C3=1.3853         C4-C5=1.3820         C4-H46=1.0798        
C5-C4=1.3820         C5-C6=1.3910         C5-H47=1.0807        C6-C1=1.3859         C6-C5=1.3910         C6-C7=1.5130         
C7-C6=1.5130         C7-C8=1.5529         C7-N31=1.4516        C7-H48=1.0972        C8-C7=1.5529         C8-C9=1.5081         
C8-N15=1.4556        C8-H49=1.0977        C9-C8=1.5081         C9-C10=1.3901        C9-C14=1.3879        C10-C9=1.3901        
C10-C11=1.3828       C10-H50=1.0803       C11-C10=1.3828       C11-C12=1.3852       C11-H51=1.0787       C12-C11=1.3852       
C12-C13=1.3845       C12-H52=1.0790       C13-C12=1.3845       C13-C14=1.3842       C13-H53=1.0797       C14-C9=1.3879        
C14-C13=1.3842       C14-H54=1.0808       N15-C8=1.4556        N15-C16=1.3553       N15-C27=1.4396       C16-N15=1.3553       
C16-C17=1.4992       C16-O26=1.2113       C17-C16=1.4992       C17-C18=1.3903       C17-C25=1.3858       C18-C17=1.3903       
C18-C19=1.3864       C18-H55=1.0801       C19-C18=1.3864       C19-C20=1.3820       C19-H56=1.0790       C20-C19=1.3820       
C20-C21=1.3892       C20-H57=1.0791       C21-C20=1.3892       C21-N22=1.4444       C21-C25=1.3869       N22-C21=1.4444       
N22-O23=1.2104       N22-O24=1.2114       O23-N22=1.2104       O24-N22=1.2114       C25-C17=1.3858       C25-C21=1.3869       
C25-H58=1.0790       O26-C16=1.2113       C27-N15=1.4396       C27-C28=1.5452       C27-N31=1.4372       C27-H59=1.0987       
C28-C27=1.5452       C28-O29=1.3264       C28-O30=1.1986       O29-C28=1.3264       O29-H60=0.9717       O30-C28=1.1986       
N31-C7=1.4516        N31-C27=1.4372       N31-C32=1.3588       C32-N31=1.3588       C32-C33=1.4998       C32-O42=1.2098       
C33-C32=1.4998       C33-C34=1.3862       C33-C41=1.3909       C34-C33=1.3862       C34-C35=1.3884       C34-H61=1.0802       
C35-C34=1.3884       C35-N36=1.4452       C35-C39=1.3888       N36-C35=1.4452       N36-O37=1.2117       N36-O38=1.2108       
O37-N36=1.2117       O38-N36=1.2108       C39-C35=1.3888       C39-C40=1.3825       C39-H62=1.0792       C40-C39=1.3825       
C40-C41=1.3856       C40-H63=1.0785       C41-C33=1.3909       C41-C40=1.3856       C41-H64=1.0786       O42-C32=1.2098       
H43-C1=1.0795        H44-C2=1.0797        H45-C3=1.0795        H46-C4=1.0798        H47-C5=1.0807        H48-C7=1.0972        
H49-C8=1.0977        H50-C10=1.0803       H51-C11=1.0787       H52-C12=1.0790       H53-C13=1.0797       H54-C14=1.0808       
H55-C18=1.0801       H56-C19=1.0790       H57-C20=1.0791       H58-C25=1.0790       H59-C27=1.0987       H60-O29=0.9717       
H61-C34=1.0802       H62-C39=1.0792       H63-C40=1.0785       H64-C41=1.0786       
 C  H  Rav=1.0821 sigma=0.0064  Rmin=1.0785  Rmax=1.0987    21
 C  C  Rav=1.4129 sigma=0.0543  Rmin=1.3820  Rmax=1.5529    30
 N  C  Rav=1.4234 sigma=0.0387  Rmin=1.3553  Rmax=1.4556     8
 O  H  Rav=0.9717 sigma=0.0000  Rmin=0.9717  Rmax=0.9717     1
 O  C  Rav=1.2365 sigma=0.0521  Rmin=1.1986  Rmax=1.3264     4
 O  N  Rav=1.2111 sigma=0.0005  Rmin=1.2104  Rmax=1.2117     4

 selected bond angles (degree)
 --------------------
C6-C1-C2=120.26                H43-C1-C2=119.33               H43-C1-C6=120.40               C3-C2-C1=120.32                
H44-C2-C1=119.53               H44-C2-C3=120.15               C4-C3-C2=119.67                H45-C3-C2=120.17               
H45-C3-C4=120.15               C5-C4-C3=120.06                H46-C4-C3=120.12               H46-C4-C5=119.83               
C6-C5-C4=120.50                H47-C5-C4=120.11               H47-C5-C6=119.38               C5-C6-C1=119.17                
C7-C6-C1=122.70                C7-C6-C5=118.13                C8-C7-C6=111.84                N31-C7-C6=114.07               
N31-C7-C8=104.02               H48-C7-C6=108.20               H48-C7-C8=110.96               H48-C7-N31=107.67              
C9-C8-C7=112.33                N15-C8-C7=103.52               N15-C8-C9=112.02               H49-C8-C7=109.56               
H49-C8-C9=109.56               H49-C8-N15=109.69              C10-C9-C8=120.17               C14-C9-C8=120.49               
C14-C9-C10=119.34              C11-C10-C9=120.34              H50-C10-C9=119.65              H50-C10-C11=120.01             

 selected dihedral angles (degree)
 ---------------------------------
C3-C2-C1-C6=  0.12            C3-C2-C1-H43=181.02           H44-C2-C1-C6=179.84           H44-C2-C1-H43=  0.74          
C4-C3-C2-C1=  0.47            C4-C3-C2-H44=180.75           H45-C3-C2-C1=179.91           H45-C3-C2-H44=  0.19          
C5-C4-C3-C2=359.57            C5-C4-C3-H45=180.12           H46-C4-C3-C2=179.22           H46-C4-C3-H45=359.78          
C6-C5-C4-C3=359.81            C6-C5-C4-H46=180.16           H47-C5-C4-C3=179.18           H47-C5-C4-H46=359.52          
C5-C6-C1-C2=359.26            C5-C6-C1-H43=178.36           C7-C6-C1-C2=179.59            C7-C6-C1-H43=358.68           
C1-C6-C5-C4=  0.77            C1-C6-C5-H47=181.40           C7-C6-C5-C4=180.46            C7-C6-C5-H47=  1.09           
C8-C7-C6-C1=241.86            C8-C7-C6-C5= 62.18            N31-C7-C6-C1=359.56           N31-C7-C6-C5=179.88           
H48-C7-C6-C1=119.35           H48-C7-C6-C5=299.67           C9-C8-C7-C6=234.93            C9-C8-C7-N31=111.37           
C9-C8-C7-H48=355.86           N15-C8-C7-C6=113.89           N15-C8-C7-N31=350.33          N15-C8-C7-H48=234.81          
H49-C8-C7-C6=356.94           H49-C8-C7-N31=233.38          H49-C8-C7-H48=117.86          C10-C9-C8-C7=293.81           
C10-C9-C8-N15= 49.84          C10-C9-C8-H49=171.81          C14-C9-C8-C7=113.70           C14-C9-C8-N15=229.72          
C14-C9-C8-H49=351.69          C11-C10-C9-C8=180.99          C11-C10-C9-C14=  1.10         H50-C10-C9-C8=  0.29          
H50-C10-C9-C14=180.40         
           -------------------------------------------------
          |                Final Singlepoint                |
           -------------------------------------------------

          ...................................................
          :                      SETUP                      :
          :.................................................:
          :  # basis functions                 190          :
          :  # atomic orbitals                 190          :
          :  # shells                          106          :
          :  # electrons                       210          :
          :  max. iterations                   250          :
          :  Hamiltonian                  GFN2-xTB          :
          :  restarted?                      false          :
          :  GBSA solvation                  false          :
          :  PC potential                    false          :
          :  electronic temp.          300.0000000     K    :
          :  accuracy                    1.0000000          :
          :  -> integral cutoff          0.2500000E+02      :
          :  -> integral neglect         0.1000000E-07      :
          :  -> SCF convergence          0.1000000E-05 Eh   :
          :  -> wf. convergence          0.1000000E-03 e    :
          :  Broyden damping             0.4000000          :
          ...................................................

 iter      E             dE          RMSdq      gap      omega  full diag
   1   -121.1517780 -0.121152E+03  0.676E-05    2.31       0.0  T
   2   -121.1517780 -0.683826E-10  0.456E-05    2.31     273.9  T
   3   -121.1517780 -0.827924E-10  0.279E-05    2.31     447.7  T

   *** convergence criteria satisfied after 3 iterations ***

         #    Occupation            Energy/Eh            Energy/eV
      -------------------------------------------------------------
         1        2.0000           -0.7905310             -21.5114
       ...           ...                  ...                  ...
        99        2.0000           -0.4318800             -11.7521
       100        2.0000           -0.4306468             -11.7185
       101        2.0000           -0.4288646             -11.6700
       102        2.0000           -0.4268316             -11.6147
       103        2.0000           -0.4213792             -11.4663
       104        2.0000           -0.4193911             -11.4122
       105        2.0000           -0.4170777             -11.3493 (HOMO)
       106                         -0.3322121              -9.0400 (LUMO)
       107                         -0.3259588              -8.8698
       108                         -0.2809024              -7.6437
       109                         -0.2770538              -7.5390
       110                         -0.2708439              -7.3700
       ...                                ...                  ...
       190                          0.6416006              17.4588
      -------------------------------------------------------------
                  HL-Gap            0.0848656 Eh            2.3093 eV
             Fermi-level           -0.3746449 Eh          -10.1946 eV

 SCC (total)                   0 d,  0 h,  0 min,  0.335 sec
 SCC setup                      ...        0 min,  0.010 sec (  3.040%)
 Dispersion                     ...        0 min,  0.010 sec (  3.016%)
 classical contributions        ...        0 min,  0.019 sec (  5.664%)
 integral evaluation            ...        0 min,  0.093 sec ( 27.778%)
 iterations                     ...        0 min,  0.053 sec ( 15.764%)
 molecular gradient             ...        0 min,  0.147 sec ( 44.038%)
 printout                       ...        0 min,  0.002 sec (  0.672%)

         :::::::::::::::::::::::::::::::::::::::::::::::::::::
         ::                     SUMMARY                     ::
         :::::::::::::::::::::::::::::::::::::::::::::::::::::
         :: total energy            -119.532669006497 Eh    ::
         :: gradient norm              0.000406223387 Eh/a0 ::
         :: HOMO-LUMO gap              2.309311057002 eV    ::
         ::.................................................::
         :: SCC energy              -121.151777957784 Eh    ::
         :: -> isotropic ES            0.212824993685 Eh    ::
         :: -> anisotropic ES          0.016678282392 Eh    ::
         :: -> anisotropic XC          0.029714212567 Eh    ::
         :: -> dispersion             -0.095554462088 Eh    ::
         :: repulsion energy           1.616322288099 Eh    ::
         :: add. restraining           0.000000000000 Eh    ::
         :: total charge              -0.000000000000 e     ::
         :::::::::::::::::::::::::::::::::::::::::::::::::::::

           -------------------------------------------------
          |                Property Printout                |
           -------------------------------------------------

    * Orbital Energies and Occupations

         #    Occupation            Energy/Eh            Energy/eV
      -------------------------------------------------------------
         1        2.0000           -0.7905310             -21.5114
       ...           ...                  ...                  ...
        93        2.0000           -0.4493907             -12.2285
        94        2.0000           -0.4489350             -12.2161
        95        2.0000           -0.4484256             -12.2023
        96        2.0000           -0.4464319             -12.1480
        97        2.0000           -0.4434866             -12.0679
        98        2.0000           -0.4326386             -11.7727
        99        2.0000           -0.4318800             -11.7521
       100        2.0000           -0.4306468             -11.7185
       101        2.0000           -0.4288646             -11.6700
       102        2.0000           -0.4268316             -11.6147
       103        2.0000           -0.4213792             -11.4663
       104        2.0000           -0.4193911             -11.4122
       105        2.0000           -0.4170777             -11.3493 (HOMO)
       106                         -0.3322121              -9.0400 (LUMO)
       107                         -0.3259588              -8.8698
       108                         -0.2809024              -7.6437
       109                         -0.2770538              -7.5390
       110                         -0.2708439              -7.3700
       111                         -0.2581424              -7.0244
       112                         -0.2534479              -6.8967
       113                         -0.2499148              -6.8005
       114                         -0.2481282              -6.7519
       115                         -0.2472693              -6.7285
       116                         -0.2461543              -6.6982
       ...                                ...                  ...
       190                          0.6416006              17.4588
      -------------------------------------------------------------
                  HL-Gap            0.0848656 Eh            2.3093 eV
             Fermi-level           -0.3746449 Eh          -10.1946 eV

     #   Z          covCN         q      C6AA      α(0)
     1   6 C        2.922    -0.030    28.750     8.793
     2   6 C        2.920    -0.026    28.660     8.779
     3   6 C        2.920    -0.029    28.713     8.787
     4   6 C        2.919    -0.026    28.653     8.778
     5   6 C        2.926    -0.037    28.923     8.820
     6   6 C        2.971     0.003    27.949     8.672
     7   6 C        3.830     0.040    19.876     6.343
     8   6 C        3.817     0.033    20.011     6.367
     9   6 C        2.973    -0.007    28.187     8.709
    10   6 C        2.924    -0.032    28.810     8.802
    11   6 C        2.919    -0.022    28.562     8.764
    12   6 C        2.920    -0.026    28.658     8.779
    13   6 C        2.919    -0.030    28.752     8.793
    14   6 C        2.923    -0.040    28.990     8.830
    15   7 N        2.769    -0.104    23.284     7.167
    16   6 C        2.765     0.273    22.381     7.748
    17   6 C        2.979    -0.002    28.059     8.689
    18   6 C        2.922    -0.018    28.451     8.747
    19   6 C        2.920    -0.021    28.535     8.760
    20   6 C        2.919    -0.020    28.515     8.757
    21   6 C        2.918     0.006    27.890     8.660
    22   7 N        2.760     0.547    13.509     5.459
    23   8 O        0.930    -0.378    21.203     6.175
    24   8 O        0.930    -0.380    21.253     6.183
    25   6 C        2.922    -0.015    28.394     8.738
    26   8 O        0.859    -0.415    21.984     6.286
    27   6 C        3.770     0.091    19.107     6.229
    28   6 C        2.687     0.358    20.929     7.487
    29   8 O        1.659    -0.353    19.952     6.030
    30   8 O        0.856    -0.388    21.447     6.209
    31   7 N        2.767    -0.108    23.365     7.179
    32   6 C        2.761     0.274    22.373     7.746
    33   6 C        2.977    -0.006    28.175     8.707
    34   6 C        2.922    -0.023    28.585     8.768
    35   6 C        2.917     0.007    27.875     8.658
    36   7 N        2.759     0.548    13.499     5.457
    37   8 O        0.930    -0.382    21.290     6.188
    38   8 O        0.930    -0.378    21.214     6.177
    39   6 C        2.918    -0.018    28.461     8.748
    40   6 C        2.921    -0.016    28.407     8.740
    41   6 C        2.923    -0.004    28.129     8.697
    42   8 O        0.859    -0.403    21.735     6.251
    43   1 H        0.926     0.030     2.583     2.513
    44   1 H        0.926     0.041     2.441     2.443
    45   1 H        0.926     0.041     2.437     2.441
    46   1 H        0.926     0.041     2.439     2.442
    47   1 H        0.926     0.033     2.540     2.492
    48   1 H        0.924     0.083     1.952     2.185
    49   1 H        0.924     0.054     2.275     2.359
    50   1 H        0.926     0.037     2.487     2.466
    51   1 H        0.926     0.054     2.266     2.354
    52   1 H        0.926     0.051     2.312     2.378
    53   1 H        0.926     0.043     2.414     2.430
    54   1 H        0.926     0.028     2.620     2.531
    55   1 H        0.926     0.057     2.238     2.340
    56   1 H        0.926     0.062     2.176     2.307
    57   1 H        0.926     0.086     1.917     2.165
    58   1 H        0.926     0.087     1.910     2.161
    59   1 H        0.923     0.091     1.872     2.140
    60   1 H        0.804     0.346     0.597     1.214
    61   1 H        0.926     0.077     2.011     2.217
    62   1 H        0.926     0.086     1.914     2.163
    63   1 H        0.926     0.066     2.125     2.280
    64   1 H        0.926     0.066     2.132     2.284

 Mol. C6AA /au·bohr⁶  :      58011.801738
 Mol. C8AA /au·bohr⁸  :    1416971.555323
 Mol. α(0) /au        :        376.958869


Wiberg/Mayer (AO) data.
largest (>0.10) Wiberg bond orders for each atom

 ---------------------------------------------------------------------------
     #   Z sym  total        # sym  WBO       # sym  WBO       # sym  WBO
 ---------------------------------------------------------------------------
     1   6 C    3.991 --     2 C    1.433     6 C    1.425    43 H    0.966
                             4 C    0.110
     2   6 C    3.992 --     3 C    1.447     1 C    1.433    44 H    0.971
                             5 C    0.113
     3   6 C    3.991 --     2 C    1.447     4 C    1.431    45 H    0.971
                             6 C    0.110
     4   6 C    3.991 --     5 C    1.454     3 C    1.431    46 H    0.970
                             1 C    0.110
     5   6 C    3.991 --     4 C    1.454     6 C    1.402    47 H    0.969
                             2 C    0.113
     6   6 C    3.985 --     1 C    1.425     5 C    1.402     7 C    0.984
                             3 C    0.110
     7   6 C    3.960 --     6 C    0.984    31 N    0.967     8 C    0.951
                            48 H    0.945
     8   6 C    3.963 --     9 C    0.989    15 N    0.961    49 H    0.954
                             7 C    0.951
     9   6 C    3.985 --    14 C    1.415    10 C    1.406     8 C    0.989
                            12 C    0.109
    10   6 C    3.991 --    11 C    1.449     9 C    1.406    50 H    0.969
                            13 C    0.111
    11   6 C    3.990 --    10 C    1.449    12 C    1.434    51 H    0.969
                            14 C    0.110
    12   6 C    3.989 --    13 C    1.441    11 C    1.434    52 H    0.970
                             9 C    0.109
    13   6 C    3.991 --    12 C    1.441    14 C    1.441    53 H    0.970
                            10 C    0.111
    14   6 C    3.990 --    13 C    1.441     9 C    1.415    54 H    0.968
                            11 C    0.110
    15   7 N    3.477 --    16 C    1.217    27 C    0.988     8 C    0.961
                            26 O    0.196
    16   6 C    3.950 --    26 O    1.698    15 N    1.217    17 C    0.953
    17   6 C    3.988 --    25 C    1.417    18 C    1.403    16 C    0.953
                            20 C    0.106
    18   6 C    3.989 --    19 C    1.432    17 C    1.403    55 H    0.968
    19   6 C    3.989 --    20 C    1.450    18 C    1.432    56 H    0.967
                            25 C    0.106
    20   6 C    3.984 --    19 C    1.450    21 C    1.382    57 H    0.960
                            17 C    0.106
    21   6 C    3.965 --    25 C    1.389    20 C    1.382    22 N    0.958
    22   7 N    3.913 --    23 O    1.458    24 O    1.454    21 C    0.958
    23   8 O    1.943 --    22 N    1.458    24 O    0.366
    24   8 O    1.938 --    22 N    1.454    23 O    0.366
    25   6 C    3.984 --    17 C    1.417    21 C    1.389    58 H    0.958
                            19 C    0.106
    26   8 O    2.026 --    16 C    1.698    15 N    0.196
    27   6 C    3.967 --    15 N    0.988    31 N    0.986    59 H    0.933
                            28 C    0.906
    28   6 C    3.919 --    30 O    1.777    29 O    1.167    27 C    0.906
    29   8 O    2.231 --    28 C    1.167    60 H    0.854    30 O    0.185
    30   8 O    2.061 --    28 C    1.777    29 O    0.185
    31   7 N    3.474 --    32 C    1.202    27 C    0.986     7 C    0.967
                            42 O    0.193
    32   6 C    3.948 --    42 O    1.708    31 N    1.202    33 C    0.953
    33   6 C    3.988 --    34 C    1.421    41 C    1.399    32 C    0.953
                            39 C    0.103
    34   6 C    3.987 --    33 C    1.421    35 C    1.385    61 H    0.960
                            40 C    0.106
    35   6 C    3.964 --    34 C    1.385    39 C    1.384    36 N    0.958
    36   7 N    3.913 --    38 O    1.458    37 O    1.454    35 C    0.958
    37   8 O    1.939 --    36 N    1.454    38 O    0.365
    38   8 O    1.942 --    36 N    1.458    37 O    0.365
    39   6 C    3.984 --    40 C    1.449    35 C    1.384    62 H    0.960
                            33 C    0.103
    40   6 C    3.989 --    39 C    1.449    41 C    1.434    63 H    0.967
                            34 C    0.106
    41   6 C    3.987 --    40 C    1.434    33 C    1.399    64 H    0.967
    42   8 O    2.037 --    32 C    1.708    31 N    0.193
    43   1 H    0.999 --     1 C    0.966
    44   1 H    0.998 --     2 C    0.971
    45   1 H    0.998 --     3 C    0.971
    46   1 H    0.998 --     4 C    0.970
    47   1 H    0.999 --     5 C    0.969
    48   1 H    0.993 --     7 C    0.945
    49   1 H    0.996 --     8 C    0.954
    50   1 H    0.999 --    10 C    0.969
    51   1 H    0.997 --    11 C    0.969
    52   1 H    0.997 --    12 C    0.970
    53   1 H    0.998 --    13 C    0.970
    54   1 H    0.999 --    14 C    0.968
    55   1 H    0.997 --    18 C    0.968
    56   1 H    0.995 --    19 C    0.967
    57   1 H    0.992 --    20 C    0.960
    58   1 H    0.992 --    25 C    0.958
    59   1 H    0.991 --    27 C    0.933
    60   1 H    0.880 --    29 O    0.854
    61   1 H    0.994 --    34 C    0.960
    62   1 H    0.992 --    39 C    0.960
    63   1 H    0.995 --    40 C    0.967
    64   1 H    0.996 --    41 C    0.967
 ---------------------------------------------------------------------------

Topologies differ in total number of bonds
Writing topology from bond orders to xtbtopo.mol

molecular dipole:
                 x           y           z       tot (Debye)
 q only:       -0.345      -2.817      -3.302
   full:       -0.338      -2.767      -3.588      11.549
molecular quadrupole (traceless):
                xx          xy          yy          xz          yz          zz
 q only:        2.905     -10.879     -14.322      -6.729     -13.426      11.417
  q+dip:        1.094     -15.925     -17.857      -1.942      -8.908      16.763
   full:       -0.117     -10.439     -16.090      -6.469     -13.814      16.208

           -------------------------------------------------
          |                Geometry Summary                 |
           -------------------------------------------------

      molecular mass/u    :      566.5188257
   center of mass at/Å    :        0.0010762       0.3888267       0.1948696
  moments of inertia/u·Å² :        0.4481879E+04   0.7387609E+04   0.9706845E+04
rotational constants/cm⁻¹ :        0.3761287E-02   0.2281879E-02   0.1736675E-02

 * 60 selected distances

     #   Z          #   Z                                           value/Å
     1   6 C        2   6 C                                       1.3853751
     2   6 C        3   6 C                                       1.3829129
     3   6 C        4   6 C                                       1.3853417
     4   6 C        5   6 C                                       1.3820034
     1   6 C        6   6 C                                       1.3858786
     5   6 C        6   6 C                                       1.3909571
     9   6 C       10   6 C                                       1.3901136
    10   6 C       11   6 C                                       1.3828130
    11   6 C       12   6 C                                       1.3852210
    12   6 C       13   6 C                                       1.3844829
     9   6 C       14   6 C                                       1.3878733
    13   6 C       14   6 C                                       1.3841641
     8   6 C       15   7 N                                       1.4556192 (max)
    15   7 N       16   6 C                                       1.3552844
    17   6 C       18   6 C                                       1.3902544
    18   6 C       19   6 C                                       1.3864497
    19   6 C       20   6 C                                       1.3819587
    20   6 C       21   6 C                                       1.3892337
    22   7 N       23   8 O                                       1.2103615
    22   7 N       24   8 O                                       1.2113998
    17   6 C       25   6 C                                       1.3857964
    21   6 C       25   6 C                                       1.3869375
    16   6 C       26   8 O                                       1.2112907
    15   7 N       27   6 C                                       1.4395581
    28   6 C       29   8 O                                       1.3264279
    28   6 C       30   8 O                                       1.1985802
     7   6 C       31   7 N                                       1.4516271
    27   6 C       31   7 N                                       1.4371587
    31   7 N       32   6 C                                       1.3588046
    33   6 C       34   6 C                                       1.3862105
    34   6 C       35   6 C                                       1.3884023
    36   7 N       37   8 O                                       1.2116705
    36   7 N       38   8 O                                       1.2108041
    35   6 C       39   6 C                                       1.3887809
    39   6 C       40   6 C                                       1.3825061
    33   6 C       41   6 C                                       1.3908668
    40   6 C       41   6 C                                       1.3855854
    32   6 C       42   8 O                                       1.2098057
     1   6 C       43   1 H                                       1.0795057
     2   6 C       44   1 H                                       1.0797485
     3   6 C       45   1 H                                       1.0794560
     4   6 C       46   1 H                                       1.0797691
     5   6 C       47   1 H                                       1.0807190
     7   6 C       48   1 H                                       1.0971696
     8   6 C       49   1 H                                       1.0976854
    10   6 C       50   1 H                                       1.0803014
    11   6 C       51   1 H                                       1.0786669
    12   6 C       52   1 H                                       1.0789897
    13   6 C       53   1 H                                       1.0796510
    14   6 C       54   1 H                                       1.0808441
    18   6 C       55   1 H                                       1.0800566
    19   6 C       56   1 H                                       1.0789623
    20   6 C       57   1 H                                       1.0791002
    25   6 C       58   1 H                                       1.0789998
    27   6 C       59   1 H                                       1.0986776
    29   8 O       60   1 H                                       0.9717296 (min)
    34   6 C       61   1 H                                       1.0802356
    39   6 C       62   1 H                                       1.0792186
    40   6 C       63   1 H                                       1.0784609
    41   6 C       64   1 H                                       1.0786137

 * 6 distinct bonds (by element types)

   Z      Z             #   av. dist./Å        max./Å        min./Å
   1 H    6 C          21     1.0821348     1.0986776     1.0784609
   6 C    6 C          24     1.3862550     1.3909571     1.3819587
   6 C    7 N           6     1.4163420     1.4556192     1.3552844
   1 H    8 O           1     0.9717296     0.9717296     0.9717296
   6 C    8 O           4     1.2365261     1.3264279     1.1985802
   7 N    8 O           4     1.2110590     1.2116705     1.2103615


optimized geometry written to: xtbopt.xyz


           -------------------------------------------------
          | TOTAL ENERGY             -119.532669006497 Eh   |
          | GRADIENT NORM               0.000406223387 Eh/α |
          | HOMO-LUMO GAP               2.309311057002 eV   |
           -------------------------------------------------

------------------------------------------------------------------------
 * finished run on 2022/03/17 at 01:38:25.211     
------------------------------------------------------------------------
 total:
 * wall-time:     0 d,  0 h,  0 min, 16.758 sec
 *  cpu-time:     0 d,  0 h,  6 min, 36.317 sec
 * ratio c/w:    23.650 speedup
 SCF:
 * wall-time:     0 d,  0 h,  0 min,  0.476 sec
 *  cpu-time:     0 d,  0 h,  0 min,  9.071 sec
 * ratio c/w:    19.038 speedup
 ANC optimizer:
 * wall-time:     0 d,  0 h,  0 min, 16.155 sec
 *  cpu-time:     0 d,  0 h,  6 min, 23.294 sec
 * ratio c/w:    23.726 speedup

