66
 energy: -134.161313761776 gnorm: 0.120529221766 xtb: 6.3.3 (4ae9cef)
C        -0.13844300000000   -3.47213100000000    0.21356700000000
C         0.40044600000000   -3.55391400000000    1.62840900000000
F        -0.44970800000000   -3.06810300000000    2.57036400000000
F         0.71168200000000   -4.81931500000000    2.03059300000000
F         1.55212100000000   -2.83668400000000    1.76751900000000
C        -0.26616500000000   -4.67363800000000   -0.51570300000000
C        -0.70840000000000   -4.67298300000000   -1.83531600000000
C        -1.02922100000000   -3.47099600000000   -2.45065800000000
C        -0.91509700000000   -2.27071700000000   -1.74870100000000
C        -0.48105000000000   -2.24124400000000   -0.40969100000000
C        -0.40073700000000   -0.90747900000000    0.33037900000000
C         0.68519600000000    0.06587700000000   -0.23024200000000
C         1.87478900000000    0.16998600000000    0.72562800000000
C         3.14160500000000   -0.39471900000000    0.42509400000000
C         3.40468700000000   -1.21492300000000   -0.82345000000000
F         2.66118600000000   -2.35571600000000   -0.84744100000000
F         3.09752600000000   -0.55146600000000   -1.97253100000000
F         4.70020500000000   -1.61295600000000   -0.96886100000000
C         4.19970000000000   -0.22282000000000    1.34056800000000
C         4.01828900000000    0.47318100000000    2.53369200000000
C         2.77151700000000    0.99504900000000    2.84891200000000
C         1.71124400000000    0.84605200000000    1.95656800000000
N        -0.02602600000000    1.34895400000000   -0.38711900000000
C         0.47966100000000    2.59211200000000   -0.70215900000000
C         1.82764200000000    2.67598800000000   -1.20942700000000
C         2.88774800000000    3.25322600000000   -0.54179500000000
O         4.02049300000000    3.17436900000000   -1.28256300000000
C         3.68175300000000    2.59209000000000   -2.46015900000000
C         2.33505500000000    2.28292800000000   -2.48980400000000
C         1.58500200000000    1.69515800000000   -3.62683800000000
O        -0.23919000000000    3.58790900000000   -0.60903500000000
C        -1.45936400000000    1.20176200000000   -0.21553200000000
C        -2.17206800000000    1.42576600000000   -1.59530600000000
O        -2.19076400000000    2.71680000000000   -2.01717300000000
O        -2.65943600000000    0.53402100000000   -2.27766600000000
N        -1.65661000000000   -0.15012300000000    0.28462000000000
C        -2.74311600000000   -0.56331100000000    1.04175700000000
C        -3.88956400000000    0.32367100000000    1.11750900000000
C        -4.76609500000000    0.61532100000000    0.09357300000000
O        -5.72236000000000    1.48109500000000    0.51281800000000
C        -5.50498900000000    1.70318500000000    1.83315500000000
C        -4.40231900000000    1.00096100000000    2.27258600000000
C        -3.86174900000000    0.94918500000000    3.65236100000000
O        -2.72095200000000   -1.59837100000000    1.69862800000000
H        -0.01321500000000   -5.62708900000000   -0.04947900000000
H        -0.80167800000000   -5.60760400000000   -2.38015300000000
H        -1.37884800000000   -3.46462300000000   -3.48060200000000
H        -1.18266400000000   -1.35536300000000   -2.27185700000000
H        -0.21938600000000   -1.09568900000000    1.39153800000000
H         1.00268600000000   -0.22470700000000   -1.23180700000000
H         5.18359000000000   -0.64099700000000    1.12338200000000
H         4.85105500000000    0.59040100000000    3.22520500000000
H         2.62627000000000    1.52153600000000    3.78931800000000
H         0.74764800000000    1.27180800000000    2.23565700000000
H         2.99863100000000    3.72179000000000    0.42762600000000
H         4.48461300000000    2.47913000000000   -3.17567400000000
H         1.06661900000000    2.48137300000000   -4.18427200000000
H         0.83305400000000    0.97445900000000   -3.28644400000000
H         2.25853400000000    1.17558400000000   -4.31544300000000
H        -1.83883100000000    1.93448100000000    0.50760500000000
H        -1.73790200000000    3.34514200000000   -1.39764200000000
H        -4.84386000000000    0.30095600000000   -0.94012800000000
H        -6.21827500000000    2.36152900000000    2.31432600000000
H        -4.50454200000000    1.49674500000000    4.35074400000000
H        -3.79540600000000   -0.08578400000000    3.99739100000000
H        -2.86221900000000    1.39388300000000    3.68957600000000
66
 energy: -134.177148093298 gnorm: 0.046825530397 xtb: 6.3.3 (4ae9cef)
C        -0.14228333391059   -3.46132042930827    0.20315637033569
C         0.39585403904954   -3.53840888709353    1.61125125580222
F        -0.44076298838686   -3.06872100971615    2.55945684831183
F         0.70462407326606   -4.79698318601545    1.99576097260791
F         1.54436455290307   -2.82697178032966    1.75872885950031
C        -0.26342510678955   -4.65523282812236   -0.51076629536959
C        -0.70688060940733   -4.65663553170708   -1.82157883467056
C        -1.02720586856764   -3.45759742268643   -2.43303747302346
C        -0.91275944513480   -2.26570674555005   -1.73198965129717
C        -0.47874618048202   -2.23839343913505   -0.40661456777467
C        -0.39599412540377   -0.90898828688857    0.33271066172906
C         0.68322494438540    0.06391008532669   -0.23190552641040
C         1.87440642400979    0.17997740247225    0.71219713986449
C         3.13206980925851   -0.38162936402949    0.42964954440812
C         3.38767710108655   -1.20213761366347   -0.81095023975991
F         2.65067883763161   -2.33697096647576   -0.84435876229662
F         3.09990305831845   -0.54803971002594   -1.96183428736426
F         4.67344098432275   -1.59363717539576   -0.93836513083338
C         4.18536678626044   -0.22430034053035    1.33326832542804
C         4.00712977260626    0.46618216204990    2.51891625319448
C         2.76325469824727    0.98959800141987    2.82510770848450
C         1.71375174616489    0.84588571311394    1.93056421441212
N        -0.03042526721337    1.34027708193752   -0.38711566401369
C         0.47567014041513    2.57250753180382   -0.69735819261201
C         1.84853757156787    2.65422277348730   -1.19084566752696
C         2.90140167353962    3.23055310804673   -0.53185266319598
O         4.01324158665071    3.17844648979318   -1.28563463031243
C         3.67490333872435    2.59528102016921   -2.45458887441780
C         2.34848084853343    2.26198557822657   -2.47379266304756
C         1.58599810230326    1.68958281618317   -3.61494959024259
O        -0.23650484783213    3.56766430460605   -0.59623230745020
C        -1.46657475116563    1.19321095015655   -0.21711127855233
C        -2.17089238804913    1.42189137264877   -1.59075169776656
O        -2.22468553179615    2.69171444535116   -2.00159139195772
O        -2.63886292362616    0.53262643433827   -2.24568082632332
N        -1.64988443271633   -0.14942945071463    0.28451355119833
C        -2.72072026341792   -0.55517020699391    1.05236951825673
C        -3.88562014030302    0.34113742414825    1.10408172512974
C        -4.74875247481996    0.64187932178763    0.08309628097930
O        -5.72925423837581    1.45641565263235    0.51776794766495
C        -5.50207111656603    1.69104747704102    1.82802895794339
C        -4.40126162645343    1.00924822906686    2.26286803291518
C        -3.85674638986718    0.95338837624996    3.64468746504955
O        -2.69688839562215   -1.60379238253711    1.66648637785544
H        -0.01020365008587   -5.59697389533933   -0.03964446436087
H        -0.79819919080232   -5.58931266341359   -2.36194012927066
H        -1.37202585854276   -3.44847373349378   -3.45898634484346
H        -1.19228418703380   -1.34967040284840   -2.23525926117457
H        -0.19726138525761   -1.10285575875036    1.39218837860798
H         1.00462734818105   -0.26060268203923   -1.22450596141726
H         5.15784011876241   -0.64525946808005    1.11083053307797
H         4.83571294408579    0.58366098907573    3.20526619054522
H         2.61272989201665    1.51027525745301    3.76225478010854
H         0.75080370207872    1.26191094230675    2.19810141898976
H         2.99755566760470    3.69753599393381    0.43019916844891
H         4.46206377478861    2.48454345509260   -3.17632827137610
H         1.06886556729312    2.47894762693163   -4.16434886743804
H         0.83355893399877    0.97600452311519   -3.27974837301886
H         2.25944956973755    1.18191365295654   -4.30353369381745
H        -1.85209596362886    1.93680903459206    0.49826114765666
H        -1.73089867137258    3.31650723722578   -1.41058838987624
H        -4.81758839319611    0.31889657449944   -0.93892003020105
H        -6.20350543711673    2.34128515915424    2.31817812777303
H        -4.50331608128267    1.49576321972983    4.33460247572952
H        -3.78357382614742   -0.08178908292713    3.97856869872033
H        -2.85903451741857    1.39231502568731    3.68958807228434
66
 energy: -134.181888206350 gnorm: 0.016595479091 xtb: 6.3.3 (4ae9cef)
C        -0.14189892397011   -3.44495413395854    0.20168288166707
C         0.39952051048226   -3.52000599555998    1.60395216257146
F        -0.42714361341773   -3.06437900108846    2.55591734224631
F         0.71469510128934   -4.77090503929190    1.97287112455607
F         1.54168344825000   -2.80401888592280    1.75028154653715
C        -0.25997387714415   -4.63476458833529   -0.50382699080991
C        -0.70469773565809   -4.63438909577584   -1.81149221138633
C        -1.02967761622674   -3.43555272658235   -2.41828848093589
C        -0.92121207734577   -2.24912481665692   -1.71406739640918
C        -0.48029762219509   -2.22736480722277   -0.39758500253960
C        -0.39058440175073   -0.90513090304683    0.34141764923979
C         0.67953614669727    0.05995488157865   -0.24220591763393
C         1.86718905998523    0.18685583538382    0.69435408688486
C         3.11948491059455   -0.37274503128872    0.42387124682123
C         3.37195869553421   -1.19382490076338   -0.81079351213607
F         2.62929035661000   -2.31644525164511   -0.84993143013081
F         3.10166181154654   -0.54251797239383   -1.96106881627479
F         4.64707024341637   -1.58803983296927   -0.92221300321668
C         4.16968784865220   -0.22440207877827    1.32141497197202
C         3.99092838344307    0.46565955976817    2.50343360043787
C         2.74734491734269    0.99281933553104    2.80093649553781
C         1.70488406954855    0.85235582616474    1.90321352148564
N        -0.03168049876491    1.32930164314540   -0.39159509217040
C         0.47658019569969    2.55204652465734   -0.68611008114265
C         1.86801932717330    2.62988903163975   -1.16372776914783
C         2.91990610681242    3.20814829310607   -0.51619250539521
O         4.01765899546828    3.16661198466754   -1.27719721514171
C         3.67208493295002    2.59742167033936   -2.44533134999511
C         2.35744064842939    2.24353419658750   -2.45297138682811
C         1.58378138450539    1.68143170928007   -3.59445302422836
O        -0.23414625430046    3.54794834545843   -0.59765946736868
C        -1.47039825605134    1.18344484897476   -0.21569137902578
C        -2.18410050794207    1.40717255903987   -1.58282897987951
O        -2.25096917351998    2.66171735634891   -1.98487127481204
O        -2.62067403120754    0.50337885994850   -2.23016559849464
N        -1.64343159389349   -0.15031515511863    0.28582237317199
C        -2.70657054364062   -0.56163221610184    1.04987983502968
C        -3.87640518812116    0.34972277663560    1.08856450731922
C        -4.73755979755937    0.65436630491457    0.07386018719453
O        -5.71187538513100    1.46154993583600    0.50976628433627
C        -5.50039406022655    1.67315691290287    1.82179527994393
C        -4.39215860650225    1.01171169096463    2.25147913396084
C        -3.84321709593336    0.95449101479090    3.63327437749286
O        -2.67474241424059   -1.61155604692794    1.64814723414939
H        -0.00351125245824   -5.56844105748035   -0.02898329702775
H        -0.79524307795104   -5.56573665664673   -2.34908408020902
H        -1.37327289596328   -3.42283013855819   -3.44104420130359
H        -1.21026178805106   -1.32891549560362   -2.19809931580160
H        -0.17927635064384   -1.09983578496224    1.39942845927487
H         0.99795234234776   -0.29349698191910   -1.22823448734307
H         5.13236874291767   -0.65515307380111    1.09708280866991
H         4.81419789262441    0.57650182992836    3.19123065152018
H         2.59002731394155    1.50823979727792    3.73602070303534
H         0.74109893044135    1.26782600506749    2.15440161034433
H         3.00466473641500    3.66193818522673    0.44893002237955
H         4.44353999924365    2.48995468221534   -3.17988675807057
H         1.07030628556010    2.47982655149949   -4.13175564959466
H         0.83141864355899    0.97175100884741   -3.26141748464052
H         2.25693388643583    1.18322209812888   -4.28584278607398
H        -1.85498356081941    1.93506627901150    0.49711945385027
H        -1.72393559105393    3.28260924491063   -1.41770944688761
H        -4.78481133490216    0.33820636684677   -0.94724146904680
H        -6.19517420534282    2.31395735323970    2.32571814337237
H        -4.49590342602776    1.49106824356617    4.31679246448789
H        -3.76478727153505   -0.08245683180463    3.95541819383261
H        -2.84794783842522    1.39407375677394    3.68148550777887
66
 energy: -134.183515752717 gnorm: 0.011761247372 xtb: 6.3.3 (4ae9cef)
C        -0.13706945471254   -3.43367985489009    0.20808874105056
C         0.41293974887558   -3.50526136490933    1.60678975163965
F        -0.41021158195469   -3.05999974281385    2.56287287600655
F         0.74431036698525   -4.75060477436643    1.96803384970298
F         1.54776462853789   -2.77558041288555    1.74496204740761
C        -0.25548190668955   -4.62153874515315   -0.49939420168819
C        -0.70568241929129   -4.61578850032304   -1.80588634872000
C        -1.03941379272328   -3.41592999380210   -2.40685651633502
C        -0.93462764189281   -2.23264573553675   -1.69842844815321
C        -0.48369615107684   -2.21828412430763   -0.38554162055731
C        -0.38672636626543   -0.90074086135668    0.35087316990769
C         0.67490246441326    0.05676131901027   -0.25318919819211
C         1.86158614140206    0.19380017324189    0.67566481917911
C         3.11116929260278   -0.37002007685299    0.41162754526604
C         3.36144363486921   -1.19395257719113   -0.82103664461337
F         2.60142762802992   -2.30262395374432   -0.86562304109533
F         3.10841178434496   -0.53780863150098   -1.97131100773400
F         4.62882594359786   -1.60403268232551   -0.92113471565911
C         4.15738559231816   -0.22622900958540    1.31339245178388
C         3.97385503930313    0.46644277236735    2.49396899717378
C         2.73107162872665    1.00192237386156    2.78259453367122
C         1.69361764782962    0.86583297827919    1.87973429249009
N        -0.03328396469910    1.32161385761194   -0.40142867943968
C         0.47826345648642    2.53997263726491   -0.68247845961526
C         1.88033544359801    2.61123079921841   -1.13918230517855
C         2.93693575450883    3.18339824909724   -0.49391641742911
O         4.02684929527018    3.15729291842729   -1.26454759046491
C         3.67533745072511    2.59315773974924   -2.43216000009826
C         2.36278178846292    2.23153064391976   -2.43284752212114
C         1.58136385523338    1.67506581172429   -3.57187734300482
O        -0.23298466000163    3.53842637975060   -0.61321830216598
C        -1.47075131783818    1.17775612080239   -0.21432445624504
C        -2.18169345333700    1.39178586303654   -1.58567217054287
O        -2.28209635536352    2.64593477973836   -1.96947776894012
O        -2.61191805215840    0.47499363378600   -2.22399007865469
N        -1.63789199106554   -0.15001147894845    0.29267822093608
C        -2.70130334954636   -0.57023890238123    1.04666284871698
C        -3.86669926537575    0.35152722866569    1.07717699041255
C        -4.72401446742107    0.66532967069930    0.06208004807050
O        -5.70982042133176    1.45342013462149    0.50362420146068
C        -5.49379019696966    1.66694680709363    1.81347186277683
C        -4.38285253381735    1.00879551389981    2.24176414056322
C        -3.82960619320744    0.95010027914637    3.62165068604539
O        -2.67182143624357   -1.62590530604859    1.63414963246508
H         0.00587444374891   -5.55350312523921   -0.02562390456240
H        -0.79328858873974   -5.54524824568348   -2.34580607368735
H        -1.38548597063851   -3.39871484326671   -3.42808543704385
H        -1.23505609041892   -1.30859108304535   -2.16804505011428
H        -0.16661452856157   -1.08888423569940    1.40804702095587
H         0.98411583804709   -0.31238431713847   -1.23659947339182
H         5.11663092172779   -0.66412787448778    1.09129514516702
H         4.79307444016652    0.57297117251554    3.18618565277347
H         2.56844108835887    1.51858006140329    3.71519988597943
H         0.72780994389201    1.28449138490187    2.11817888423099
H         3.01819369673659    3.62059672902822    0.47974383887629
H         4.43553331927091    2.49394822240025   -3.18019308592145
H         1.06882794341098    2.48010237518274   -4.09957620550150
H         0.82928534764855    0.96649128319500   -3.23752400477008
H         2.25093957274263    1.17942226625282   -4.26803407065476
H        -1.84893570791644    1.93700834662070    0.49554249559044
H        -1.72738815760378    3.26225765598164   -1.42045475071235
H        -4.75363729261558    0.35760806441606   -0.96291704197318
H        -6.19044265805027    2.29609054559490    2.32983218933392
H        -4.48394626252710    1.48278981054946    4.30562909568278
H        -3.74445180251892   -0.08778161997024    3.93816440016067
H        -2.83662310929809    1.39471347039834    3.66669861950341
66
 energy: -134.184576360814 gnorm: 0.010948585546 xtb: 6.3.3 (4ae9cef)
C        -0.12780255971469   -3.42468533458968    0.21756407605594
C         0.43607613581179   -3.48996444688339    1.61182735465033
F        -0.38548788168184   -3.05724812556919    2.57439477284142
F         0.79322030338281   -4.72915470252389    1.96727505455145
F         1.56087394634126   -2.73894361534812    1.73820262686292
C        -0.24778027166022   -4.61091207735776   -0.49487509300616
C        -0.70750107889355   -4.59888583798956   -1.79895053723653
C        -1.05539197271578   -3.39868688417427   -2.39234174828029
C        -0.95337297434310   -2.21863786281822   -1.67947908880310
C        -0.48755195465423   -2.21129016446134   -0.37062462912673
C        -0.38360258978209   -0.89497699043433    0.35911339104534
C         0.66982482308158    0.05536706668902   -0.26596576647731
C         1.85737632748592    0.20058620465713    0.65469933137416
C         3.10400005358995   -0.37094204205164    0.39711860393926
C         3.35030913201254   -1.19882919416452   -0.83485093268452
F         2.56395319472749   -2.28962375908269   -0.88900052570785
F         3.12029014605507   -0.53284396522893   -1.98538225662701
F         4.60909553249733   -1.63570545215286   -0.92286580343344
C         4.14550728349436   -0.22872027724211    1.30601955426978
C         3.95565151317023    0.46927921803643    2.48357289119624
C         2.71503134027875    1.01680399087662    2.76158833031382
C         1.68275690855299    0.88360870111087    1.85343631998707
N        -0.03776117527851    1.31585397741945   -0.41801094945449
C         0.47926031959731    2.53183763494163   -0.68287264684158
C         1.89069235270950    2.59551034923259   -1.11170961030198
C         2.95394194017365    3.15622191312865   -0.46484124066884
O         4.04034444832349    3.13278502138267   -1.23963112821202
C         3.68067843807698    2.58532760055570   -2.41289093562109
C         2.36648322187515    2.22653108623319   -2.41051752155761
C         1.57757667907030    1.67286328507815   -3.54489903927397
O        -0.23331228071634    3.53269507355706   -0.63887834621324
C        -1.47302266253872    1.17474749782734   -0.21463279595260
C        -2.19976355565271    1.38416499837904   -1.58051637334251
O        -2.29878154349818    2.63523946481579   -1.96286680466736
O        -2.59958160547975    0.45537550039746   -2.22657596588253
N        -1.63327033317118   -0.14730535575966    0.30227106082442
C        -2.70155009668414   -0.57989793729418    1.03993833915494
C        -3.86074405027149    0.34758186155574    1.06540624121531
C        -4.71655428133463    0.66856608388498    0.05005765677403
O        -5.69853958005887    1.45873047558846    0.49177724127957
C        -5.48843213924356    1.65964190742226    1.80457270679389
C        -4.37747995456601    0.99829489149602    2.23192354600750
C        -3.81451455920161    0.94113369661788    3.60740671444307
O        -2.67649949243051   -1.64128526360439    1.61800905468965
H         0.02189354960945   -5.54300420583938   -0.02526066775610
H        -0.79160333498259   -5.52594717157888   -2.34334861987398
H        -1.40916092345150   -3.37669670282245   -3.41117541310724
H        -1.26683944437074   -1.29195966904401   -2.13550656770879
H        -0.15326923341370   -1.07213372542361    1.41560570119086
H         0.96749162375033   -0.32637062075267   -1.24769560497055
H         5.10284788220567   -0.67468757968166    1.08990084388962
H         4.76965960468080    0.56999184017493    3.18311368884412
H         2.54755826903944    1.53900541827749    3.69041847288984
H         0.71586020484800    1.30948415058563    2.07783481805432
H         3.03664451730340    3.57058675480012    0.52028948984267
H         4.43119530944290    2.49285227296692   -3.17245274749548
H         1.06370602593311    2.48135358418225   -4.06526963580139
H         0.82666864831202    0.96444915522036   -3.20640037800829
H         2.24105124236623    1.17588277612577   -4.24619643527369
H        -1.84056691599313    1.94157957825766    0.49213724796351
H        -1.73198736856950    3.24697946618173   -1.42274762712573
H        -4.73031870267419    0.37228366239391   -0.97988026567671
H        -6.18563037600612    2.28048977482513    2.33148210354177
H        -4.46741741781515    1.46797658402816    4.29737695567292
H        -3.71786348524399   -0.09687571543782    3.92007756717253
H        -2.82456712170687    1.39455016040784    3.64469894483781
66
 energy: -134.185174912762 gnorm: 0.008438819143 xtb: 6.3.3 (4ae9cef)
C        -0.11591126698881   -3.42016721709720    0.22564993855876
C         0.46280929886813   -3.47819686716291    1.61470707603604
F        -0.35841971331517   -3.05727704488045    2.58432728947474
F         0.84613488897112   -4.71183768092520    1.96695251770344
F         1.57759705381026   -2.70643084337786    1.73075224388405
C        -0.23714915876631   -4.60582606428835   -0.49025983127870
C        -0.70932107541504   -4.59125739634038   -1.79018592733613
C        -1.07341563781103   -3.39237080145370   -2.37723046623212
C        -0.97197166657576   -2.21415004796602   -1.66224826881894
C        -0.49038042454994   -2.20889656775181   -0.35797093746662
C        -0.38235703579659   -0.89007136767770    0.36440731212608
C         0.66625976623854    0.05525087638065   -0.27616625318643
C         1.85565953566804    0.20528097928186    0.63907277035062
C         3.09914405582999   -0.37516878904353    0.38693774953385
C         3.34095754012409   -1.20642276910475   -0.84473328798449
F         2.52970261907561   -2.28080048826304   -0.91083835273698
F         3.13395562420502   -0.53007386124276   -1.99550351104833
F         4.59187687972046   -1.67146369714102   -0.92246705167666
C         4.13746898123974   -0.23193904156986    1.30110506773591
C         3.94393670399110    0.47307027841380    2.47420136191132
C         2.70661621808862    1.03300994713871    2.74358679054598
C         1.67787157914991    0.90019788114971    1.83226917476308
N        -0.04256546539774    1.31352729193866   -0.43544632306658
C         0.47951997993899    2.52987807467661   -0.68725129774808
C         1.89667217809516    2.58772919716812   -1.09026635436277
C         2.96580430219988    3.13167347225709   -0.43678492960770
O         4.05288483068244    3.10323930107899   -1.21066023667813
C         3.68801257055969    2.57267406861014   -2.39091821552977
C         2.36914039558587    2.22920938598565   -2.39282400088441
C         1.57409584713182    1.67814228800966   -3.52319756108879
O        -0.23343399714666    3.53166487347109   -0.66233346630157
C        -1.47470034010752    1.17541808931743   -0.21847545952059
C        -2.20111732114953    1.38290774768441   -1.58667186732486
O        -2.32470923365021    2.63935763211073   -1.95118588729021
O        -2.60756583911389    0.45714446597798   -2.22962919728099
N        -1.63115324983168   -0.14291883578013    0.30951401210754
C        -2.70806446447502   -0.58747336664546    1.02740620518709
C        -3.86166779432558    0.34139287595787    1.05343094058257
C        -4.71737587112521    0.66865229578250    0.03900403796698
O        -5.69329256395648    1.46524777176039    0.48250317039381
C        -5.48407534398313    1.65788247740420    1.79710705254347
C        -4.37640120283181    0.98742510186277    2.22231532708280
C        -3.80250887340851    0.92966699275902    3.59285001091770
O        -2.68720681925312   -1.65233736833693    1.59985721917195
H         0.04326811265596   -5.53834142573146   -0.02596987079820
H        -0.79103866038720   -5.51669207722616   -2.33831324549212
H        -1.43890086291475   -3.36833944830054   -3.39256388053743
H        -1.29589514289229   -1.28772022621750   -2.11053294630710
H        -0.14436829391105   -1.05686716876378    1.42072067896444
H         0.95564040203126   -0.33300392038326   -1.25727862069636
H         5.09390045633442   -0.68486896431397    1.09211181668215
H         4.75377386972766    0.56964836596703    3.17987534557698
H         2.53758421073831    1.56396812170389    3.66782592689581
H         0.71205794490541    1.33487343644815    2.04624698709515
H         3.05376402865478    3.52613376324901    0.55698930504193
H         4.43468823056407    2.48233346253849   -3.15416741141820
H         1.05786993619591    2.48659754760990   -4.04059952280108
H         0.82383441744264    0.97064971176637   -3.17913618687517
H         2.23105529704046    1.17673432269999   -4.22792130096666
H        -1.83153879716568    1.94970105103587    0.48530092421648
H        -1.73821568058058    3.24408256033640   -1.42075824409975
H        -4.72811444623573    0.37800783291554   -0.99243936754233
H        -6.18024292808672    2.27514753828065    2.32987994847628
H        -4.45165154596551    1.44924939258983    4.29256600100407
H        -3.69309754727983   -0.10822018804579    3.90261087528898
H        -2.81573149107023    1.39236106171363    3.62084120416317
66
 energy: -134.185598554959 gnorm: 0.007763898084 xtb: 6.3.3 (4ae9cef)
C        -0.10267776757960   -3.41694080075051    0.23017401952494
C         0.48936569488471   -3.46840407384925    1.61347189572855
F        -0.33099567177417   -3.05708682368068    2.58951662934220
F         0.89285036447014   -4.69734162457457    1.96345167683423
F         1.59585377779459   -2.68184534249936    1.72256088559697
C        -0.22405784359506   -4.60346804252223   -0.48523619623701
C        -0.71156725357385   -4.59178114938824   -1.77926715593760
C        -1.09260944318957   -3.39598215689911   -2.36216510659127
C        -0.98984588010270   -2.21743546530115   -1.64846280263423
C        -0.49242186001499   -2.20854090357188   -0.34983601384588
C        -0.38339598224492   -0.88536556176162    0.36586030712008
C         0.66332056645008    0.05709601137986   -0.28302514771651
C         1.85488210656754    0.20894394327294    0.62922765151634
C         3.09496723381651   -0.38044417955457    0.38149451638096
C         3.33284831714312   -1.21434794141448   -0.84908066900655
F         2.50441744203967   -2.27611587740904   -0.92678029800693
F         3.14536476257157   -0.53083315109153   -1.99991364579258
F         4.57686738537850   -1.70150804928027   -0.91862986437552
C         4.13244168196339   -0.23601408964189    1.29717693988036
C         3.93965728902306    0.47672847288992    2.46523648826744
C         2.70626877312570    1.04799615339430    2.72893930442761
C         1.67873911472484    0.91424164713931    1.81704873245582
N        -0.04781091883622    1.31496123900602   -0.44920226432236
C         0.47827679703843    2.53288453648994   -0.69122966739442
C         1.89865751194051    2.58609666162356   -1.07489265212480
C         2.97237257192641    3.10921052585820   -0.41158483574351
O         4.06225339286192    3.07428792623561   -1.18226593178861
C         3.69622568903395    2.55658887941204   -2.36822885945374
C         2.37170923499701    2.23417991288208   -2.37897510365168
C         1.57154354408712    1.68934588211567   -3.50822843558822
O        -0.23421240315196    3.53422539944874   -0.67685649395256
C        -1.47799616847804    1.17967806244380   -0.22230926778641
C        -2.21584283564924    1.38944619637574   -1.58523647035642
O        -2.33091965264309    2.64685794758415   -1.94823121277598
O        -2.61597848898364    0.46739379488880   -2.23696122634040
N        -1.63196575582908   -0.13715797101492    0.31274386084241
C        -2.71714583276574   -0.59211355411530    1.01231189234502
C        -3.86878513644863    0.33477685441671    1.04156633074665
C        -4.72476222693123    0.66874791704163    0.02932398936803
O        -5.69866752939015    1.46653658753534    0.47892798568516
C        -5.48130929252379    1.66023553880471    1.79217706872772
C        -4.37769393975600    0.97969389303457    2.21311255664339
C        -3.79309152033620    0.91796812402309    3.57880596465380
O        -2.69924667337303   -1.66169976648208    1.57715693516222