      -----------------------------------------------------------      
     |                   =====================                   |     
     |                           x T B                           |     
     |                   =====================                   |     
     |                         S. Grimme                         |     
     |          Mulliken Center for Theoretical Chemistry        |     
     |                    University of Bonn                     |     
      -----------------------------------------------------------      

   * xtb version 6.3.3 (4ae9cef) compiled by 'conda@95abc7406d43' on 2020-10-14

   xtb is free software: you can redistribute it and/or modify it under
   the terms of the GNU Lesser General Public License as published by
   the Free Software Foundation, either version 3 of the License, or
   (at your option) any later version.
   
   xtb is distributed in the hope that it will be useful,
   but WITHOUT ANY WARRANTY; without even the implied warranty of
   MERCHANTABILITY or FITNESS FOR A PARTICULAR PURPOSE.  See the
   GNU Lesser General Public License for more details.
   
   Cite this work as:
   * C. Bannwarth, E. Caldeweyher, S. Ehlert, A. Hansen, P. Pracht,
     J. Seibert, S. Spicher, S. Grimme, WIREs Comput. Mol. Sci., 2020,
     e01493. DOI: 10.1002/wcms.1493
   
   for GFN2-xTB:
   * S. Grimme, C. Bannwarth, P. Shushkov, J. Chem. Theory Comput., 2017,
     13, 1989-2009. DOI: 10.1021/acs.jctc.7b00118
   for GFN1-xTB:
   * C. Bannwarth, S. Ehlert and S. Grimme., J. Chem. Theory Comput., 2019,
     15, 1652-1671. DOI: 10.1021/acs.jctc.8b01176
   for GFN0-xTB:
   * P. Pracht, E. Caldeweyher, S. Ehlert, S. Grimme, ChemRxiv, 2019, preprint.
     DOI: 10.26434/chemrxiv.8326202.v1
   for GFN-FF:
   * S. Spicher and S. Grimme, Angew. Chem. Int. Ed., 2020, 59, 15665-15673.
     DOI: 10.1002/anie.202004239
   
   for DFT-D4:
   * E. Caldeweyher, C. Bannwarth and S. Grimme, J. Chem. Phys., 2017,
     147, 034112. DOI: 10.1063/1.4993215
   * E. Caldeweyher, S. Ehlert, A. Hansen, H. Neugebauer, S. Spicher,
     C. Bannwarth and S. Grimme, J. Chem. Phys., 2019, 150, 154122.
     DOI: 10.1063/1.5090222
   * E. Caldeweyher, J.-M. Mewes, S. Ehlert and S. Grimme, Phys. Chem. Chem. Phys.
     2020, 22, 8499-8512. DOI: 10.1039/D0CP00502A
   
   for sTDA-xTB:
   * S. Grimme and C. Bannwarth, J. Chem. Phys., 2016, 145, 054103.
     DOI: 10.1063/1.4959605
   
   in the mass-spec context:
   * V. Asgeirsson, C. Bauer and S. Grimme, Chem. Sci., 2017, 8, 4879.
     DOI: 10.1039/c7sc00601b
   * J. Koopman and S. Grimme, ACS Omega 2019, 4, 12, 15120-15133.
     DOI: 10.1021/acsomega.9b02011
   
   for metadynamics refer to:
   * S. Grimme, J. Chem. Theory Comput., 2019, 155, 2847-2862
     DOI: 10.1021/acs.jctc.9b00143
   
   with help from (in alphabetical order)
   C. Bannwarth, F. Bohle, G. Brandenburg, E. Caldeweyher, M. Checinski,
   S. Dohm, S. Ehlert, S. Ehrlich, F. März, H. Neugebauer, J. Pisarek,
   P. Pracht, P. Shushkov, and S. Spicher.
   
 * started run on 2022/03/17 at 02:20:21.339     

           -------------------------------------------------
          |                Calculation Setup                |
           -------------------------------------------------

          program call               : xtb sub_4.xyz --opt --chrg 0 --uhf 0 --gfn 2
          coordinate file            : sub_4.xyz
          omp threads                :                    64
          number of atoms            :                    31
          number of electrons        :                    84
          charge                     :                     0
          spin                       :                   0.0
          first test random number   :      0.54938290497902

   ID    Z sym.   atoms
    1    6 C      1-5, 7-9, 11-17
    2    7 N      6, 10
    3    1 H      18-31

           -------------------------------------------------
          |                 G F N 2 - x T B                 |
           -------------------------------------------------

        Reference                      10.1021/acs.jctc.8b01176
      * Hamiltonian:
        H0-scaling (s, p, d)           1.850000    2.230000    2.230000
        zeta-weighting                 0.500000
      * Dispersion:
        s8                             2.700000
        a1                             0.520000
        a2                             5.000000
        s9                             5.000000
      * Repulsion:
        kExp                           1.500000    1.000000
        rExp                           1.000000
      * Coulomb:
        alpha                          2.000000
        third order                    shell-resolved
        anisotropic                    true
        a3                             3.000000
        a5                             4.000000
        cn-shift                       1.200000
        cn-exp                         4.000000
        max-rad                        5.000000


          ...................................................
          :                      SETUP                      :
          :.................................................:
          :  # basis functions                  82          :
          :  # atomic orbitals                  82          :
          :  # shells                           48          :
          :  # electrons                        84          :
          :  max. iterations                   250          :
          :  Hamiltonian                  GFN2-xTB          :
          :  restarted?                      false          :
          :  GBSA solvation                  false          :
          :  PC potential                    false          :
          :  electronic temp.          300.0000000     K    :
          :  accuracy                    1.0000000          :
          :  -> integral cutoff          0.2500000E+02      :
          :  -> integral neglect         0.1000000E-07      :
          :  -> SCF convergence          0.1000000E-05 Eh   :
          :  -> wf. convergence          0.1000000E-03 e    :
          :  Broyden damping             0.4000000          :
          ...................................................

 iter      E             dE          RMSdq      gap      omega  full diag
   1    -45.8092957 -0.458093E+02  0.352E+00    3.00       0.0  T
   2    -45.8547957 -0.454999E-01  0.226E+00    2.81       1.0  T
   3    -45.8457054  0.909024E-02  0.115E+00    2.90       1.0  T
   4    -45.8613744 -0.156690E-01  0.443E-01    2.66       1.0  T
   5    -45.8658490 -0.447455E-02  0.115E-01    2.72       1.0  T
   6    -45.8660192 -0.170251E-03  0.517E-02    2.72       1.0  T
   7    -45.8660841 -0.648398E-04  0.213E-02    2.72       1.0  T
   8    -45.8660851 -0.105302E-05  0.872E-03    2.73       2.1  T
   9    -45.8660865 -0.139928E-05  0.175E-03    2.73      10.3  T
  10    -45.8660866 -0.370702E-07  0.871E-04    2.73      20.6  T
  11    -45.8660866 -0.631847E-08  0.354E-04    2.73      50.7  T

   *** convergence criteria satisfied after 11 iterations ***

         #    Occupation            Energy/Eh            Energy/eV
      -------------------------------------------------------------
         1        2.0000           -0.6650014             -18.0956
       ...           ...                  ...                  ...
        36        2.0000           -0.4234040             -11.5214
        37        2.0000           -0.4176174             -11.3639
        38        2.0000           -0.4066797             -11.0663
        39        2.0000           -0.3983538             -10.8398
        40        2.0000           -0.3718513             -10.1186
        41        2.0000           -0.3710158             -10.0959
        42        2.0000           -0.3559106              -9.6848 (HOMO)
        43                         -0.2557447              -6.9592 (LUMO)
        44                         -0.2424636              -6.5978
        45                         -0.2219230              -6.0388
        46                         -0.1849614              -5.0331
        47                         -0.1550675              -4.2196
       ...                                ...                  ...
        82                          0.7104556              19.3325
      -------------------------------------------------------------
                  HL-Gap            0.1001659 Eh            2.7257 eV
             Fermi-level           -0.3058276 Eh           -8.3220 eV

 SCC (total)                   0 d,  0 h,  0 min,  0.232 sec
 SCC setup                      ...        0 min,  0.013 sec (  5.581%)
 Dispersion                     ...        0 min,  0.016 sec (  7.060%)
 classical contributions        ...        0 min,  0.024 sec ( 10.268%)
 integral evaluation            ...        0 min,  0.029 sec ( 12.676%)
 iterations                     ...        0 min,  0.024 sec ( 10.180%)
 molecular gradient             ...        0 min,  0.126 sec ( 54.068%)
 printout                       ...        0 min,  0.000 sec (  0.133%)

         :::::::::::::::::::::::::::::::::::::::::::::::::::::
         ::                     SUMMARY                     ::
         :::::::::::::::::::::::::::::::::::::::::::::::::::::
         :: total energy             -45.118837299192 Eh    ::
         :: gradient norm              0.079929110738 Eh/a0 ::
         :: HOMO-LUMO gap              2.725651633062 eV    ::
         ::.................................................::
         :: SCC energy               -45.866086576156 Eh    ::
         :: -> isotropic ES            0.012920785080 Eh    ::
         :: -> anisotropic ES          0.006951498298 Eh    ::
         :: -> anisotropic XC          0.030512219769 Eh    ::
         :: -> dispersion             -0.031811272452 Eh    ::
         :: repulsion energy           0.747459056568 Eh    ::
         :: add. restraining           0.000000000000 Eh    ::
         :: total charge               0.000000000000 e     ::
         :::::::::::::::::::::::::::::::::::::::::::::::::::::

      ----------------------------------------------------------- 
     |                   =====================                   |
     |                        A N C O P T                        |
     |                   =====================                   |
     |               Approximate Normal Coordinate               |
     |                Rational Function Optimizer                |
      ----------------------------------------------------------- 

          ...................................................
          :                      SETUP                      :
          :.................................................:
          :   optimization level            normal          :
          :   max. optcycles                   200          :
          :   ANC micro-cycles                  20          :
          :   degrees of freedom                87          :
          :.................................................:
          :   RF solver                   davidson          :
          :   write xtbopt.log                true          :
          :   linear?                        false          :
          :   energy convergence         0.5000000E-05 Eh   :
          :   grad. convergence          0.1000000E-02 Eh/α :
          :   maximium RF displ.         1.0000000          :
          :   Hlow (freq-cutoff)         0.1000000E-01      :
          :   Hmax (freq-cutoff)         5.0000000          :
          :   S6 in model hess.         20.0000000          :
          ...................................................

generating ANC from model Hessian ...
Using Lindh-Hessian (1995)
 Shifting diagonal of input Hessian by    9.1904657052234804E-003
 Lowest  eigenvalues of input Hessian
    0.000000    0.000000    0.000000    0.000000    0.000000    0.000000
    0.010000    0.010514    0.010722    0.011842    0.014144    0.017479
    0.018148    0.019964    0.021881    0.022659    0.023882    0.024725
 Highest eigenvalues
    1.894275    1.936618    1.963753    2.010366    2.094457    2.097748


........................................................................
.............................. CYCLE    1 ..............................
........................................................................
   1    -45.8660866 -0.458661E+02  0.147E-04    2.73       0.0  T
   2    -45.8660866 -0.135167E-09  0.962E-05    2.73     186.7  T
   3    -45.8660866 -0.115385E-09  0.600E-05    2.73     299.1  T
     SCC iter.                  ...        0 min,  0.007 sec
     gradient                   ...        0 min,  0.116 sec
 * total energy  :   -45.1188373 Eh     change       -0.1349967E-08 Eh
   gradient norm :     0.0799295 Eh/α   predicted     0.0000000E+00 (-100.00%)
   displ. norm   :     0.2761033 α      lambda       -0.1012394E-01
   maximum displ.:     0.1261289 α      in ANC's #12, #14, #34, ...

........................................................................
.............................. CYCLE    2 ..............................
........................................................................
   1    -45.9068414 -0.459068E+02  0.169E-01    2.89       0.0  T
   2    -45.9069609 -0.119525E-03  0.120E-01    2.92       1.0  T
   3    -45.9070028 -0.418984E-04  0.621E-02    2.92       1.0  T
   4    -45.9070451 -0.422793E-04  0.146E-02    2.92       1.2  T
   5    -45.9070497 -0.462044E-05  0.541E-03    2.92       3.3  T
   6    -45.9070502 -0.493423E-06  0.244E-03    2.92       7.4  T
   7    -45.9070503 -0.480126E-07  0.793E-04    2.92      22.6  T
   8    -45.9070503 -0.845687E-08  0.214E-04    2.92      83.9  T
     SCC iter.                  ...        0 min,  0.017 sec
     gradient                   ...        0 min,  0.125 sec
 * total energy  :   -45.1257215 Eh     change       -0.6884224E-02 Eh
   gradient norm :     0.0326707 Eh/α   predicted    -0.5447871E-02 ( -20.86%)
   displ. norm   :     0.2285755 α      lambda       -0.2467111E-02
   maximum displ.:     0.1231044 α      in ANC's #12, #14, #3, ...

........................................................................
.............................. CYCLE    3 ..............................
........................................................................
   1    -45.9260460 -0.459260E+02  0.924E-02    3.00       0.0  T
   2    -45.9261152 -0.692018E-04  0.695E-02    3.02       1.0  T
   3    -45.9261505 -0.353775E-04  0.364E-02    3.03       1.0  T
   4    -45.9261534 -0.286360E-05  0.123E-02    3.03       1.5  T
   5    -45.9261561 -0.274504E-05  0.366E-03    3.03       4.9  T
   6    -45.9261564 -0.280565E-06  0.146E-03    3.03      12.3  T
   7    -45.9261564 -0.158609E-07  0.532E-04    3.03      33.7  T
   8    -45.9261564 -0.336734E-08  0.151E-04    3.03     118.9  T
     SCC iter.                  ...        0 min,  0.025 sec
     gradient                   ...        0 min,  0.126 sec
 * total energy  :   -45.1270454 Eh     change       -0.1323835E-02 Eh
   gradient norm :     0.0068528 Eh/α   predicted    -0.1298005E-02 (  -1.95%)
   displ. norm   :     0.1021766 α      lambda       -0.1687232E-03
   maximum displ.:     0.0934689 α      in ANC's #3, #12, #14, ...

........................................................................
.............................. CYCLE    4 ..............................
........................................................................
   1    -45.9261234 -0.459261E+02  0.228E-02    3.02       0.0  T
   2    -45.9261250 -0.161035E-05  0.137E-02    3.03       1.3  T
   3    -45.9261247  0.310469E-06  0.556E-03    3.03       3.2  T
   4    -45.9261250 -0.319618E-06  0.235E-03    3.03       7.6  T
   5    -45.9261252 -0.176406E-06  0.417E-04    3.03      43.0  T
   6    -45.9261252 -0.192669E-08  0.222E-04    3.03      80.8  T
     SCC iter.                  ...        0 min,  0.021 sec
     gradient                   ...        0 min,  0.066 sec
 * total energy  :   -45.1271750 Eh     change       -0.1296624E-03 Eh
   gradient norm :     0.0028686 Eh/α   predicted    -0.8525095E-04 ( -34.25%)
   displ. norm   :     0.1018928 α      lambda       -0.9846770E-04
   maximum displ.:     0.0984868 α      in ANC's #3, #12, #4, ...

........................................................................
.............................. CYCLE    5 ..............................
........................................................................
   1    -45.9252376 -0.459252E+02  0.183E-02    3.02       0.0  T
   2    -45.9252380 -0.399313E-06  0.109E-02    3.03       1.7  T
   3    -45.9252377  0.310858E-06  0.371E-03    3.03       4.8  T
   4    -45.9252381 -0.394762E-06  0.920E-04    3.03      19.5  T
   5    -45.9252381 -0.208176E-07  0.292E-04    3.03      61.5  T
     SCC iter.                  ...        0 min,  0.015 sec
     gradient                   ...        0 min,  0.128 sec
 * total energy  :   -45.1272496 Eh     change       -0.7461073E-04 Eh
   gradient norm :     0.0016262 Eh/α   predicted    -0.4974864E-04 ( -33.32%)
   displ. norm   :     0.1033693 α      lambda       -0.4111726E-04
   maximum displ.:     0.1000866 α      in ANC's #3, #7, #4, ...

........................................................................
.............................. CYCLE    6 ..............................
........................................................................
   1    -45.9250231 -0.459250E+02  0.151E-02    3.02       0.0  T
   2    -45.9250232 -0.887208E-07  0.891E-03    3.02       2.0  T
   3    -45.9250229  0.262818E-06  0.283E-03    3.02       6.3  T
   4    -45.9250232 -0.316917E-06  0.446E-04    3.02      40.2  T
   5    -45.9250232 -0.114363E-08  0.246E-04    3.02      72.9  T
     SCC iter.                  ...        0 min,  0.016 sec
     gradient                   ...        0 min,  0.143 sec
 * total energy  :   -45.1272991 Eh     change       -0.4949485E-04 Eh
   gradient norm :     0.0021453 Eh/α   predicted    -0.2066058E-04 ( -58.26%)
   displ. norm   :     0.0489910 α      lambda       -0.2447284E-04
   maximum displ.:     0.0455128 α      in ANC's #3, #7, #6, ...

........................................................................
.............................. CYCLE    7 ..............................
........................................................................
   1    -45.9252966 -0.459253E+02  0.732E-03    3.02       0.0  T
   2    -45.9252966 -0.602718E-07  0.445E-03    3.02       4.0  T
   3    -45.9252966  0.213755E-07  0.972E-04    3.02      18.5  T
   4    -45.9252966 -0.256264E-07  0.386E-04    3.02      46.5  T
     SCC iter.                  ...        0 min,  0.015 sec
     gradient                   ...        0 min,  0.135 sec
 * total energy  :   -45.1273206 Eh     change       -0.2144479E-04 Eh
   gradient norm :     0.0013878 Eh/α   predicted    -0.1226626E-04 ( -42.80%)
   displ. norm   :     0.0878309 α      lambda       -0.2313982E-04
   maximum displ.:     0.0771983 α      in ANC's #3, #7, #6, ...

........................................................................
.............................. CYCLE    8 ..............................
........................................................................
   1    -45.9255766 -0.459256E+02  0.139E-02    3.03       0.0  T
   2    -45.9255768 -0.208810E-06  0.842E-03    3.02       2.1  T
   3    -45.9255767  0.771144E-07  0.184E-03    3.02       9.8  T
   4    -45.9255768 -0.901657E-07  0.684E-04    3.02      26.3  T
   5    -45.9255768 -0.126072E-07  0.204E-04    3.02      87.9  T
     SCC iter.                  ...        0 min,  0.011 sec
     gradient                   ...        0 min,  0.139 sec
 * total energy  :   -45.1273460 Eh     change       -0.2538328E-04 Eh
   gradient norm :     0.0007386 Eh/α   predicted    -0.1161060E-04 ( -54.26%)
   displ. norm   :     0.0671338 α      lambda       -0.1024218E-04
   maximum displ.:     0.0563438 α      in ANC's #3, #7, #6, ...

........................................................................
.............................. CYCLE    9 ..............................
........................................................................
   1    -45.9256798 -0.459257E+02  0.104E-02    3.02       0.0  T
   2    -45.9256798 -0.356062E-07  0.621E-03    3.02       2.9  T
   3    -45.9256798  0.769863E-07  0.159E-03    3.02      11.3  T
   4    -45.9256799 -0.900873E-07  0.341E-04    3.02      52.6  T
   5    -45.9256799 -0.143099E-08  0.164E-04    3.02     109.3  T
     SCC iter.                  ...        0 min,  0.016 sec
     gradient                   ...        0 min,  0.135 sec
 * total energy  :   -45.1273573 Eh     change       -0.1135872E-04 Eh
   gradient norm :     0.0007165 Eh/α   predicted    -0.5132345E-05 ( -54.82%)
   displ. norm   :     0.0758589 α      lambda       -0.7874485E-05
   maximum displ.:     0.0584837 α      in ANC's #3, #7, #6, ...

........................................................................
.............................. CYCLE   10 ..............................
........................................................................
   1    -45.9256708 -0.459257E+02  0.132E-02    3.02       0.0  T
   2    -45.9256709 -0.414261E-07  0.791E-03    3.02       2.3  T
   3    -45.9256708  0.796694E-07  0.163E-03    3.02      11.0  T
   4    -45.9256709 -0.936162E-07  0.359E-04    3.02      50.1  T
   5    -45.9256709 -0.188146E-08  0.166E-04    3.02     108.0  T
     SCC iter.                  ...        0 min,  0.015 sec
     gradient                   ...        0 min,  0.115 sec
 * total energy  :   -45.1273647 Eh     change       -0.7388510E-05 Eh
   gradient norm :     0.0005521 Eh/α   predicted    -0.3947807E-05 ( -46.57%)
   displ. norm   :     0.0759492 α      lambda        0.1997315E-05
   maximum displ.:     0.0584869 α      in ANC's #3, #7, #6, ...

........................................................................
.............................. CYCLE   11 ..............................
........................................................................
   1    -45.9255501 -0.459256E+02  0.131E-02    3.02       0.0  T
   2    -45.9255501 -0.430244E-07  0.786E-03    3.02       2.3  T
   3    -45.9255500  0.749653E-07  0.159E-03    3.02      11.3  T
   4    -45.9255501 -0.883798E-07  0.365E-04    3.02      49.2  T
   5    -45.9255501 -0.209891E-08  0.167E-04    3.02     107.5  T
     SCC iter.                  ...        0 min,  0.015 sec
     gradient                   ...        0 min,  0.134 sec
 * total energy  :   -45.1273631 Eh     change        0.1609353E-05 Eh
   gradient norm :     0.0010654 Eh/α   predicted     0.9971563E-06 ( -38.04%)
   displ. norm   :     0.0266961 α      lambda       -0.5473144E-05
   maximum displ.:     0.0235150 α      in ANC's #3, #7, #4, ...

........................................................................
.............................. CYCLE   12 ..............................
........................................................................
   1    -45.9256802 -0.459257E+02  0.874E-03    3.02       0.0  T
   2    -45.9256802 -0.218497E-07  0.517E-03    3.02       3.5  T
   3    -45.9256801  0.454379E-07  0.124E-03    3.02      14.5  T
   4    -45.9256802 -0.531021E-07  0.246E-04    3.02      72.9  T
   5    -45.9256802 -0.113534E-08  0.108E-04    3.02     166.5  T
     SCC iter.                  ...        0 min,  0.010 sec
     gradient                   ...        0 min,  0.162 sec
 * total energy  :   -45.1273680 Eh     change       -0.4930439E-05 Eh
   gradient norm :     0.0003480 Eh/α   predicted    -0.2738090E-05 ( -44.47%)
   displ. norm   :     0.0266854 α      lambda        0.2615293E-05
   maximum displ.:     0.0235148 α      in ANC's #3, #7, #4, ...

   *** GEOMETRY OPTIMIZATION CONVERGED AFTER 12 ITERATIONS ***

------------------------------------------------------------------------
 total energy gain   :        -0.0085307 Eh       -5.3531 kcal/mol
 total RMSD          :         0.1627087 a0        0.0861 Å
 total power (kW/mol):        -1.8664512 (step)   -8.1426 (real)
------------------------------------------------------------------------

 ANCopt (total)                0 d,  0 h,  0 min,  2.751 sec
 optimizer setup                ...        0 min,  0.000 sec (  0.003%)
 model hessian                  ...        0 min,  0.004 sec (  0.162%)
 ANC generation                 ...        0 min,  0.002 sec (  0.063%)
 coordinate transformation      ...        0 min,  0.000 sec (  0.007%)
 single point calculation       ...        0 min,  2.572 sec ( 93.500%)
 optimization log               ...        0 min,  0.001 sec (  0.038%)
 hessian update                 ...        0 min,  0.164 sec (  5.968%)
 rational function              ...        0 min,  0.006 sec (  0.218%)

================
 final structure:
================
31
 xtb: 6.3.3 (4ae9cef)
C        -5.16773254237246    0.45817646591664   -0.96116849844447
C        -3.74735800742485    0.17803448483737   -0.56697419168335
C        -3.45298806257603   -0.80298507282631    0.35995581654851
C        -2.12347927464969   -1.05249766202395    0.68603242467545
C        -1.08576480607323   -0.31153465801682    0.07701352005206
N         0.12157828206999   -0.76698596910909    0.58774884105811
C        -0.16489826408170   -1.76972336802455    1.49317718141929
C        -1.50104600791638   -1.97185015000577    1.58183442179304
C         1.38626078706510   -0.30844664167404    0.26024329700524
N         1.45274205842724    0.66476364436919   -0.64264487962543
C         2.62868905190091    1.14477910531927   -0.99435330215693
C         3.83916678458958    0.70114034779442   -0.47997705121415
C         5.14236179178878    1.30256174850386   -0.89970071085355
C         3.76885761534327   -0.32103386254392    0.46355277289282
C         2.54682150087324   -0.83630959099708    0.84249514486145
C        -1.37878988202441    0.67496824046370   -0.85431143307899
C        -2.70530491201307    0.90064079137945   -1.15942272901728
H        -5.85328074894719    0.19147751930038   -0.15997305638621
H        -5.30222277016220    1.50980563261528   -1.20488604254314
H        -5.43369041666030   -0.12738870619756   -1.84242177953600
H        -4.24149323147858   -1.37265926030899    0.83050749042737
H         0.61261982810283   -2.28249810499517    2.02340517316631
H        -1.99746451422748   -2.68787198009334    2.20669014414409
H         2.59646608324023    1.93361321079306   -1.73586553126580
H         5.93933866680255    0.56307811304306   -0.86208252256014
H         5.40908448340382    2.12061416396314   -0.22930280309163
H         5.07489044215736    1.70218075720089   -1.90883846228685
H         4.67611016388044   -0.71482615711044    0.90061385397324
H         2.50607807399674   -1.62832667370930    1.57134537324682
H        -0.59340820369693    1.24398647439390   -1.32026294492854
H        -2.95214196933776    1.66511615774283   -1.88235751659148

 Bond Distances (Angstroems)
 ---------------------------
C1-C2=1.5004         C1-H18=1.0877        C1-H19=1.0878        C1-H20=1.0910        C2-C1=1.5004         C2-C3=1.3814         
C2-C17=1.3997        C3-C2=1.3814         C3-C4=1.3915         C3-H21=1.0806        C4-C3=1.3915         C4-C5=1.4131         
C4-C8=1.4266         C5-C4=1.4131         C5-N6=1.3878         C5-C16=1.3880        N6-C5=1.3878         N6-C7=1.3811         
N6-C9=1.3845         C7-N6=1.3811         C7-C8=1.3543         C7-H22=1.0717        C8-C4=1.4266         C8-C7=1.3543         
C8-H23=1.0722        C9-N6=1.3845         C9-N10=1.3292        C9-C15=1.4016        N10-C9=1.3292        N10-C11=1.3179       
C11-N10=1.3179       C11-C12=1.3880       C11-H24=1.0831       C12-C11=1.3880       C12-C13=1.4954       C12-C14=1.3929       
C13-C12=1.4954       C13-H25=1.0879       C13-H26=1.0908       C13-H27=1.0875       C14-C12=1.3929       C14-C15=1.3793       
C14-H28=1.0813       C15-C9=1.4016        C15-C14=1.3793       C15-H29=1.0771       C16-C5=1.3880        C16-C17=1.3797       
C16-H30=1.0760       C17-C2=1.3997        C17-C16=1.3797       C17-H31=1.0807       H18-C1=1.0877        H19-C1=1.0878        
H20-C1=1.0910        H21-C3=1.0806        H22-C7=1.0717        H23-C8=1.0722        H24-C11=1.0831       H25-C13=1.0879       
H26-C13=1.0908       H27-C13=1.0875       H28-C14=1.0813       H29-C15=1.0771       H30-C16=1.0760       H31-C17=1.0807       
 C  H  Rav=1.0825 sigma=0.0063  Rmin=1.0717  Rmax=1.0910    14
 C  C  Rav=1.4066 sigma=0.0407  Rmin=1.3543  Rmax=1.5004    14
 N  C  Rav=1.3601 sigma=0.0301  Rmin=1.3179  Rmax=1.3878     5

 selected bond angles (degree)
 --------------------
H18-C1-C2=110.94               H19-C1-C2=110.88               H19-C1-H18=108.91              H20-C1-C2=110.05               
H20-C1-H18=108.04              H20-C1-H19=107.92              C3-C2-C1=120.70                C17-C2-C1=119.81               
C17-C2-C3=119.47               C4-C3-C2=119.22                H21-C3-C2=120.74               H21-C3-C4=120.04               
C5-C4-C3=120.44                C8-C4-C3=132.81                C8-C4-C5=106.75                N6-C5-C4=107.95                
C16-C5-C4=120.45               C16-C5-N6=131.60               C7-N6-C5=107.40                C9-N6-C5=126.79                
C9-N6-C7=125.80                C8-C7-N6=110.85                H22-C7-N6=121.42               H22-C7-C8=127.73               
C7-C8-C4=107.05                H23-C8-C4=126.46               H23-C8-C7=126.49               N10-C9-N6=116.67               
C15-C9-N6=122.23               C15-C9-N10=121.10              C11-N10-C9=119.51              

 selected dihedral angles (degree)
 ---------------------------------
C3-C2-C1-H18= 26.83           C3-C2-C1-H19=147.99           C3-C2-C1-H20=267.32           C17-C2-C1-H18=205.73          
C17-C2-C1-H19=326.89          C17-C2-C1-H20= 86.22          C4-C3-C2-C1=178.91            C4-C3-C2-C17=  0.00           
H21-C3-C2-C1=358.85           H21-C3-C2-C17=179.95          C5-C4-C3-C2=  0.00            C5-C4-C3-H21=180.07           
C8-C4-C3-C2=179.91            C8-C4-C3-H21=359.97           N6-C5-C4-C3=179.89            N6-C5-C4-C8=359.97            
C16-C5-C4-C3=  0.00           C16-C5-C4-C8=180.08           C7-N6-C5-C4=  0.04            C7-N6-C5-C16=179.91           
C9-N6-C5-C4=180.13            C9-N6-C5-C16=  0.00           C8-C7-N6-C5=359.96            C8-C7-N6-C9=179.88            
H22-C7-N6-C5=179.93           H22-C7-N6-C9=359.85           C7-C8-C4-C3=180.10            C7-C8-C4-C5=  0.00            
H23-C8-C4-C3=  0.13           H23-C8-C4-C5=180.04           C4-C8-C7-N6=  0.00            C4-C8-C7-H22=180.05           
H23-C8-C7-N6=179.99           H23-C8-C7-H22=  0.00          N10-C9-N6-C5=359.62           N10-C9-N6-C7=179.72           
C15-C9-N6-C5=179.71           C15-C9-N6-C7=359.80           C11-N10-C9-N6=179.89          C11-N10-C9-C15=359.81         
           -------------------------------------------------
          |                Final Singlepoint                |
           -------------------------------------------------

          ...................................................
          :                      SETUP                      :
          :.................................................:
          :  # basis functions                  82          :
          :  # atomic orbitals                  82          :
          :  # shells                           48          :
          :  # electrons                        84          :
          :  max. iterations                   250          :
          :  Hamiltonian                  GFN2-xTB          :
          :  restarted?                      false          :
          :  GBSA solvation                  false          :
          :  PC potential                    false          :
          :  electronic temp.          300.0000000     K    :
          :  accuracy                    1.0000000          :
          :  -> integral cutoff          0.2500000E+02      :
          :  -> integral neglect         0.1000000E-07      :
          :  -> SCF convergence          0.1000000E-05 Eh   :
          :  -> wf. convergence          0.1000000E-03 e    :
          :  Broyden damping             0.4000000          :
          ...................................................

 iter      E             dE          RMSdq      gap      omega  full diag
   1    -45.9256802 -0.459257E+02  0.529E-05    3.02       0.0  T
   2    -45.9256802 -0.254303E-10  0.372E-05    3.02     482.5  T
   3    -45.9256802 -0.325571E-10  0.161E-05    3.02    1115.7  T

   *** convergence criteria satisfied after 3 iterations ***

         #    Occupation            Energy/Eh            Energy/eV
      -------------------------------------------------------------
         1        2.0000           -0.6711617             -18.2632
       ...           ...                  ...                  ...
        36        2.0000           -0.4241182             -11.5408
        37        2.0000           -0.4199354             -11.4270
        38        2.0000           -0.4072065             -11.0807
        39        2.0000           -0.3987804             -10.8514
        40        2.0000           -0.3706615             -10.0862
        41        2.0000           -0.3673751              -9.9968
        42        2.0000           -0.3585932              -9.7578 (HOMO)
        43                         -0.2476274              -6.7383 (LUMO)
        44                         -0.2399394              -6.5291
        45                         -0.2167340              -5.8976
        46                         -0.1839070              -5.0044
        47                         -0.1514628              -4.1215
       ...                                ...                  ...
        82                          0.7354055              20.0114
      -------------------------------------------------------------
                  HL-Gap            0.1109658 Eh            3.0195 eV
             Fermi-level           -0.3031103 Eh           -8.2481 eV

 SCC (total)                   0 d,  0 h,  0 min,  0.223 sec
 SCC setup                      ...        0 min,  0.009 sec (  4.019%)
 Dispersion                     ...        0 min,  0.024 sec ( 10.806%)
 classical contributions        ...        0 min,  0.015 sec (  6.683%)
 integral evaluation            ...        0 min,  0.029 sec ( 13.187%)
 iterations                     ...        0 min,  0.007 sec (  3.219%)
 molecular gradient             ...        0 min,  0.138 sec ( 61.946%)
 printout                       ...        0 min,  0.000 sec (  0.105%)

         :::::::::::::::::::::::::::::::::::::::::::::::::::::
         ::                     SUMMARY                     ::
         :::::::::::::::::::::::::::::::::::::::::::::::::::::
         :: total energy             -45.127368023779 Eh    ::
         :: gradient norm              0.000348305968 Eh/a0 ::
         :: HOMO-LUMO gap              3.019532702446 eV    ::
         ::.................................................::
         :: SCC energy               -45.925680197095 Eh    ::
         :: -> isotropic ES            0.012808880572 Eh    ::
         :: -> anisotropic ES          0.006151495189 Eh    ::
         :: -> anisotropic XC          0.028775025413 Eh    ::
         :: -> dispersion             -0.032306666309 Eh    ::
         :: repulsion energy           0.798517076143 Eh    ::
         :: add. restraining           0.000000000000 Eh    ::
         :: total charge              -0.000000000000 e     ::
         :::::::::::::::::::::::::::::::::::::::::::::::::::::

           -------------------------------------------------
          |                Property Printout                |
           -------------------------------------------------

    * Orbital Energies and Occupations

         #    Occupation            Energy/Eh            Energy/eV
      -------------------------------------------------------------
         1        2.0000           -0.6711617             -18.2632
       ...           ...                  ...                  ...
        30        2.0000           -0.4638014             -12.6207
        31        2.0000           -0.4525234             -12.3138
        32        2.0000           -0.4462648             -12.1435
        33        2.0000           -0.4429807             -12.0541
        34        2.0000           -0.4423405             -12.0367
        35        2.0000           -0.4323413             -11.7646
        36        2.0000           -0.4241182             -11.5408
        37        2.0000           -0.4199354             -11.4270
        38        2.0000           -0.4072065             -11.0807
        39        2.0000           -0.3987804             -10.8514
        40        2.0000           -0.3706615             -10.0862
        41        2.0000           -0.3673751              -9.9968
        42        2.0000           -0.3585932              -9.7578 (HOMO)
        43                         -0.2476274              -6.7383 (LUMO)
        44                         -0.2399394              -6.5291
        45                         -0.2167340              -5.8976
        46                         -0.1839070              -5.0044
        47                         -0.1514628              -4.1215
        48                         -0.0987555              -2.6873
        49                         -0.0614801              -1.6730
        50                          0.0231494               0.6299
        51                          0.0885838               2.4105
        52                          0.1115815               3.0363
        53                          0.1183772               3.2212
       ...                                ...                  ...
        82                          0.7354055              20.0114
      -------------------------------------------------------------
                  HL-Gap            0.1109658 Eh            3.0195 eV
             Fermi-level           -0.3031103 Eh           -8.2481 eV

     #   Z          covCN         q      C6AA      α(0)
     1   6 C        3.758    -0.107    22.606     6.779
     2   6 C        2.966     0.009    27.815     8.651
     3   6 C        2.917    -0.048    29.193     8.860
     4   6 C        3.110    -0.010    28.116     8.687
     5   6 C        3.086     0.039    27.032     8.523
     6   7 N        2.823    -0.015    21.545     6.894
     7   6 C        3.034    -0.008    28.174     8.706
     8   6 C        2.999    -0.067    29.659     8.934
     9   6 C        2.894     0.142    24.897     8.181
    10   7 N        1.845    -0.248    27.305     7.744
    11   6 C        2.909     0.051    26.852     8.497
    12   6 C        2.960    -0.002    28.083     8.692
    13   6 C        3.757    -0.109    22.633     6.783
    14   6 C        2.935    -0.023    28.587     8.769
    15   6 C        2.914    -0.061    29.516     8.909
    16   6 C        2.908    -0.048    29.193     8.860
    17   6 C        2.930    -0.045    29.129     8.851
    18   1 H        0.925     0.039     2.459     2.452
    19   1 H        0.925     0.040     2.447     2.446
    20   1 H        0.924     0.043     2.406     2.426
    21   1 H        0.926     0.028     2.617     2.530
    22   1 H        0.926     0.032     2.553     2.499
    23   1 H        0.926     0.032     2.557     2.501
    24   1 H        0.925     0.037     2.485     2.465
    25   1 H        0.925     0.045     2.378     2.412
    26   1 H        0.924     0.050     2.323     2.383
    27   1 H        0.925     0.045     2.382     2.414
    28   1 H        0.925     0.034     2.529     2.487
    29   1 H        0.926     0.036     2.508     2.477
    30   1 H        0.926     0.059     2.213     2.326
    31   1 H        0.926     0.029     2.594     2.519

 Mol. C6AA /au·bohr⁶  :      12148.185360
 Mol. C8AA /au·bohr⁸  :     296317.934188
 Mol. α(0) /au        :        175.653803


Wiberg/Mayer (AO) data.
largest (>0.10) Wiberg bond orders for each atom

 ---------------------------------------------------------------------------
     #   Z sym  total        # sym  WBO       # sym  WBO       # sym  WBO
 ---------------------------------------------------------------------------
     1   6 C    3.996 --     2 C    1.023    18 H    0.984    19 H    0.982
                            20 H    0.970
     2   6 C    3.984 --     3 C    1.464    17 C    1.359     1 C    1.023
     3   6 C    3.988 --     2 C    1.464     4 C    1.344    21 H    0.968
                            16 C    0.109
     4   6 C    3.982 --     3 C    1.344     5 C    1.266     8 C    1.194
     5   6 C    3.953 --    16 C    1.358     4 C    1.266     6 N    1.108
     6   7 N    3.630 --     7 C    1.148     5 C    1.108     9 C    1.103
     7   6 C    3.951 --     8 C    1.646     6 N    1.148    22 H    0.964
     8   6 C    3.970 --     7 C    1.646     4 C    1.194    23 H    0.973
     9   6 C    3.969 --    10 N    1.363    15 C    1.326     6 N    1.103
    10   7 N    3.066 --    11 C    1.442     9 C    1.363
    11   6 C    3.982 --    10 N    1.442    12 C    1.401    24 H    0.962
                            15 C    0.109
    12   6 C    3.971 --    11 C    1.401    14 C    1.386    13 C    1.027
    13   6 C    3.995 --    12 C    1.027    27 H    0.982    25 H    0.981
                            26 H    0.967
    14   6 C    3.989 --    15 C    1.482    12 C    1.386    28 H    0.969
    15   6 C    3.985 --    14 C    1.482     9 C    1.326    29 H    0.964
                            11 C    0.109
    16   6 C    3.988 --    17 C    1.482     5 C    1.358    30 H    0.960
                             3 C    0.109
    17   6 C    3.987 --    16 C    1.482     2 C    1.359    31 H    0.970
    18   1 H    0.998 --     1 C    0.984
    19   1 H    0.998 --     1 C    0.982
    20   1 H    0.996 --     1 C    0.970
    21   1 H    0.999 --     3 C    0.968
    22   1 H    0.998 --     7 C    0.964
    23   1 H    0.998 --     8 C    0.973
    24   1 H    0.998 --    11 C    0.962
    25   1 H    0.997 --    13 C    0.981
    26   1 H    0.995 --    13 C    0.967
    27   1 H    0.997 --    13 C    0.982
    28   1 H    0.998 --    14 C    0.969
    29   1 H    0.998 --    15 C    0.964
    30   1 H    0.996 --    16 C    0.960
    31   1 H    0.999 --    17 C    0.970
 ---------------------------------------------------------------------------

Topologies differ in total number of bonds
Writing topology from bond orders to xtbtopo.mol

molecular dipole:
                 x           y           z       tot (Debye)
 q only:        0.506       0.043       0.007
   full:        0.964      -0.114       0.188       2.514
molecular quadrupole (traceless):
                xx          xy          yy          xz          yz          zz
 q only:        7.359       0.778      -3.440       0.660      -2.498      -3.919
  q+dip:       11.821       0.600      -5.265       1.942      -7.309      -6.555
   full:        9.493       0.560      -4.377       1.396      -3.445      -5.116

           -------------------------------------------------
          |                Geometry Summary                 |
           -------------------------------------------------

      molecular mass/u    :      222.2856154
   center of mass at/Å    :       -0.0076868      -0.1056716      -0.0280356
  moments of inertia/u·Å² :        0.3923223E+03   0.1986097E+04   0.2372141E+04
rotational constants/cm⁻¹ :        0.4296883E-01   0.8487821E-02   0.7106506E-02

 * 31 selected distances

     #   Z          #   Z                                           value/Å
     2   6 C        3   6 C                                       1.3813950
     3   6 C        4   6 C                                       1.3914655
     4   6 C        5   6 C                                       1.4130752
     5   6 C        6   7 N                                       1.3877910
     6   7 N        7   6 C                                       1.3810690
     4   6 C        8   6 C                                       1.4265670 (max)
     7   6 C        8   6 C                                       1.3542548
     6   7 N        9   6 C                                       1.3845360
     9   6 C       10   7 N                                       1.3291972
    10   7 N       11   6 C                                       1.3179397
    11   6 C       12   6 C                                       1.3880398
    12   6 C       14   6 C                                       1.3928503
     9   6 C       15   6 C                                       1.4016268
    14   6 C       15   6 C                                       1.3793037
     5   6 C       16   6 C                                       1.3879545
     2   6 C       17   6 C                                       1.3996535
    16   6 C       17   6 C                                       1.3797330
     1   6 C       18   1 H                                       1.0876667
     1   6 C       19   1 H                                       1.0878464
     1   6 C       20   1 H                                       1.0909755
     3   6 C       21   1 H                                       1.0805961
     7   6 C       22   1 H                                       1.0717341 (min)
     8   6 C       23   1 H                                       1.0721769
    11   6 C       24   1 H                                       1.0831149
    13   6 C       25   1 H                                       1.0878526
    13   6 C       26   1 H                                       1.0907723
    13   6 C       27   1 H                                       1.0874772
    14   6 C       28   1 H                                       1.0812964
    15   6 C       29   1 H                                       1.0771136
    16   6 C       30   1 H                                       1.0759726
    17   6 C       31   1 H                                       1.0807339

 * 3 distinct bonds (by element types)

   Z      Z             #   av. dist./Å        max./Å        min./Å
   1 H    6 C          14     1.0825235     1.0909755     1.0717341
   6 C    6 C          12     1.3913266     1.4265670     1.3542548
   6 C    7 N           5     1.3601066     1.3877910     1.3179397


optimized geometry written to: xtbopt.xyz


           -------------------------------------------------
          | TOTAL ENERGY              -45.127368023779 Eh   |
          | GRADIENT NORM               0.000348305968 Eh/α |
          | HOMO-LUMO GAP               3.019532702446 eV   |
           -------------------------------------------------

------------------------------------------------------------------------
 * finished run on 2022/03/17 at 02:20:24.691     
------------------------------------------------------------------------
 total:
 * wall-time:     0 d,  0 h,  0 min,  3.352 sec
 *  cpu-time:     0 d,  0 h,  1 min, 45.771 sec
 * ratio c/w:    31.550 speedup
 SCF:
 * wall-time:     0 d,  0 h,  0 min,  0.232 sec
 *  cpu-time:     0 d,  0 h,  0 min,  7.267 sec
 * ratio c/w:    31.275 speedup
 ANC optimizer:
 * wall-time:     0 d,  0 h,  0 min,  2.990 sec
 *  cpu-time:     0 d,  0 h,  1 min, 34.764 sec
 * ratio c/w:    31.698 speedup

