31
 energy: -45.127368023779 gnorm: 0.000348305968 xtb: 6.3.3 (4ae9cef)
C        -5.16773254237246    0.45817646591664   -0.96116849844447
C        -3.74735800742485    0.17803448483737   -0.56697419168335
C        -3.45298806257603   -0.80298507282631    0.35995581654851
C        -2.12347927464969   -1.05249766202395    0.68603242467545
C        -1.08576480607323   -0.31153465801682    0.07701352005206
N         0.12157828206999   -0.76698596910909    0.58774884105811
C        -0.16489826408170   -1.76972336802455    1.49317718141929
C        -1.50104600791638   -1.97185015000577    1.58183442179304
C         1.38626078706510   -0.30844664167404    0.26024329700524
N         1.45274205842724    0.66476364436919   -0.64264487962543
C         2.62868905190091    1.14477910531927   -0.99435330215693
C         3.83916678458958    0.70114034779442   -0.47997705121415
C         5.14236179178878    1.30256174850386   -0.89970071085355
C         3.76885761534327   -0.32103386254392    0.46355277289282
C         2.54682150087324   -0.83630959099708    0.84249514486145
C        -1.37878988202441    0.67496824046370   -0.85431143307899
C        -2.70530491201307    0.90064079137945   -1.15942272901728
H        -5.85328074894719    0.19147751930038   -0.15997305638621
H        -5.30222277016220    1.50980563261528   -1.20488604254314
H        -5.43369041666030   -0.12738870619756   -1.84242177953600
H        -4.24149323147858   -1.37265926030899    0.83050749042737
H         0.61261982810283   -2.28249810499517    2.02340517316631
H        -1.99746451422748   -2.68787198009334    2.20669014414409
H         2.59646608324023    1.93361321079306   -1.73586553126580
H         5.93933866680255    0.56307811304306   -0.86208252256014
H         5.40908448340382    2.12061416396314   -0.22930280309163
H         5.07489044215736    1.70218075720089   -1.90883846228685
H         4.67611016388044   -0.71482615711044    0.90061385397324
H         2.50607807399674   -1.62832667370930    1.57134537324682
H        -0.59340820369693    1.24398647439390   -1.32026294492854
H        -2.95214196933776    1.66511615774283   -1.88235751659148
