31
 energy: -45.118837300542 gnorm: 0.079929508656 xtb: 6.3.3 (4ae9cef)
C        -5.25355300000000    0.42587800000000   -0.93797400000000
C        -3.82016000000000    0.18658000000000   -0.56639800000000
C        -3.48801200000000   -0.81187600000000    0.35947000000000
C        -2.13773900000000   -1.05969800000000    0.68775100000000
C        -1.12555500000000   -0.30990000000000    0.07411800000000
N         0.10545800000000   -0.75828600000000    0.57860900000000
C        -0.16072300000000   -1.77327600000000    1.48652700000000
C        -1.51691500000000   -1.97354800000000    1.56864800000000
C         1.41486800000000   -0.26604500000000    0.22771800000000
N         1.50804600000000    0.73548000000000   -0.68210100000000
C         2.73707200000000    1.19437100000000   -1.01070200000000
C         3.91909800000000    0.69909700000000   -0.48356000000000
C         5.24300900000000    1.27758800000000   -0.86606800000000
C         3.81313900000000   -0.31773800000000    0.46069100000000
C         2.55552800000000   -0.81074100000000    0.81833200000000
C        -1.45482000000000    0.68409000000000   -0.86920700000000
C        -2.80094800000000    0.91320400000000   -1.17899900000000
H        -5.91705200000000    0.21219000000000   -0.09336000000000
H        -5.41503400000000    1.47161200000000   -1.22020500000000
H        -5.53397000000000   -0.21517900000000   -1.77938500000000
H        -4.26879900000000   -1.40150300000000    0.83267300000000
H         0.62556700000000   -2.28857700000000    2.01534000000000
H        -2.01042400000000   -2.70233700000000    2.19803100000000
H         2.73774200000000    2.00241100000000   -1.73782600000000
H         6.03348100000000    0.52277200000000   -0.79789100000000
H         5.49394100000000    2.11184100000000   -0.20378000000000
H         5.22789100000000    1.63908100000000   -1.89969100000000
H         4.70338000000000   -0.73524300000000    0.92521700000000
H         2.51726000000000   -1.60514700000000    1.55249600000000
H        -0.69034700000000    1.27440400000000   -1.36396400000000
H        -3.04142700000000    1.67849400000000   -1.91443800000000
31
 energy: -45.125721524462 gnorm: 0.032670680223 xtb: 6.3.3 (4ae9cef)
C        -5.23417601866436    0.42338801642252   -0.92894703212252
C        -3.79851194105268    0.17255075522178   -0.56283733599815
C        -3.47374450484267   -0.80960956218191    0.35841629532090
C        -2.13185012939071   -1.04633656254328    0.67463976269634
C        -1.11102614137512   -0.29285764623972    0.05882104901123
N         0.11313252546990   -0.73784869616525    0.55947774378862
C        -0.15922443669636   -1.74930221801429    1.46460526921430
C        -1.50020602282972   -1.95999168443320    1.55790326036796
C         1.40382712772994   -0.26766230242236    0.22832968859517
N         1.49448900571812    0.71928066836004   -0.66840620445339
C         2.70173579274765    1.17614315681597   -0.99535407962462
C         3.89440270747571    0.69747141787210   -0.47253209378386
C         5.22162019196900    1.27081881366081   -0.86744344874464
C         3.79100426015653   -0.32357787740880    0.46518792521659
C         2.54454185419832   -0.81403625212868    0.82062199897458
C        -1.43473645648942    0.68893197474748   -0.87230949573722
C        -2.77240383644074    0.90353782916528   -1.16815077583099
H        -5.89968211085405    0.20047397746923   -0.09469874169797
H        -5.39115685838985    1.46210554703279   -1.22086272327303
H        -5.52412442195840   -0.20915770796071   -1.76903243081288
H        -4.25146011799497   -1.39307979418556    0.83404603628211
H         0.62215484523739   -2.26215722859846    1.99145035193191
H        -1.98413517970647   -2.68657765210812    2.18679690793126
H         2.69665692600489    1.97625804437888   -1.72597375935847
H         6.01142695354972    0.52288118578229   -0.78857456351902
H         5.48135485876838    2.10286784683985   -0.21169397001806
H         5.20342155860102    1.64190123552224   -1.89214200978560
H         4.68073965835093   -0.73949267557903    0.92068656540235
H         2.49755013162325   -1.60586048543970    1.55112138429619
H        -0.66950780432765    1.27236050301200   -1.35873242562094
H        -3.02211041658758    1.66657637310580   -1.89434114864815
31
 energy: -45.127045359348 gnorm: 0.006852838978 xtb: 6.3.3 (4ae9cef)
C        -5.21254173339393    0.42597624807533   -0.92931690233054
C        -3.77906471335049    0.16920837914873   -0.56172756766377
C        -3.45970191622796   -0.80763036832272    0.35838387616085
C        -2.12408065962232   -1.04027685806565    0.66825170179357
C        -1.09793683214141   -0.28618354521523    0.05146331566011
N         0.11945415549046   -0.73026122031107    0.55240612158911
C        -0.15453434176419   -1.73905788098408    1.45621626939612
C        -1.48675974856172   -1.95507155013768    1.55488271881121
C         1.39116868484130   -0.27273364510804    0.23394711800617
N         1.48042481727835    0.70569427668641   -0.65843979761606
C         2.67157969518127    1.16521982746031   -0.99019586189050
C         3.87130087779910    0.69734985871543   -0.46937188601637
C         5.19612412204873    1.27015119429709   -0.86926799487888
C         3.77246130459299   -0.32712527068280    0.46738453330438
C         2.53540630717875   -0.81977733678057    0.82696763533206
C        -1.41624454557673    0.69304552884487   -0.87550828048778
C        -2.74999235086628    0.90262474744368   -1.16483868527922
H        -5.87325604698417    0.19646483590253   -0.09620178975996
H        -5.36304479610395    1.46277584626062   -1.22156780757287
H        -5.50428769737044   -0.20470536412534   -1.76996423688712
H        -4.23515195649243   -1.38854974779250    0.83651273185337
H         0.62591121192999   -2.24992519418462    1.98203627873223
H        -1.96794954961246   -2.67886236992027    2.18241374474943
H         2.66244879694093    1.96240873332974   -1.72301495884278
H         5.98055832687592    0.52055842225381   -0.78592116210203
H         5.45814515759793    2.10175699796360   -0.21424556187960
H         5.16913421533990    1.64269033046689   -1.89034079067039
H         4.66484106965900   -0.74052015100110    0.91558761953217
H         2.48161297238248   -1.61270640598934    1.55321186694359
H        -0.64652331779182    1.27342247126451   -1.35352050960939
H        -3.00949950927685    1.66403821050748   -1.88614973837713
31
 energy: -45.127175021711 gnorm: 0.002868557457 xtb: 6.3.3 (4ae9cef)
C        -5.20261697316638    0.43090353493016   -0.93383150590070
C        -3.77125104969202    0.17132901451485   -0.56371296459341
C        -3.45633473745561   -0.80703575919120    0.35814378332109
C        -2.12236973330032   -1.04219498978025    0.67001029799303
C        -1.09458547448638   -0.28976666866804    0.05478315745803
N         0.11997150910709   -0.73622549537627    0.55732048615583
C        -0.15500546058503   -1.74387239985073    1.46147358735407
C        -1.48736150276531   -1.95828673722826    1.55872644884523
C         1.38785436356207   -0.27898742678214    0.23820854325939
N         1.47380046119796    0.69996300380180   -0.65565024839843
C         2.66168150964553    1.16464197191505   -0.99077452157719
C         3.86279061054323    0.69955243939923   -0.47084039593853
C         5.18447447447105    1.27423447621082   -0.87287970033006
C         3.76888668968319   -0.32585038541271    0.46650495124504
C         2.53570072574519   -0.82357010884419    0.82966313834337
C        -1.40793874172462    0.69237743549334   -0.87311639347936
C        -2.74082211123309    0.90392264647728   -1.16534095137379
H        -5.86383491410516    0.20035162400602   -0.10140506161677
H        -5.34968240625512    1.46847760502979   -1.22412999449427
H        -5.49244493766871   -0.19873458168218   -1.77611050520721
H        -4.23311387980577   -1.38636209515059    0.83617969655763
H         0.62569595700673   -2.25455618414883    1.98751024346568
H        -1.97150617681478   -2.68074177539799    2.18507605974250
H         2.64979199308864    1.95992512248210   -1.72609338629370
H         5.96871023459658    0.52449995313710   -0.79175928547203
H         5.44577017840421    2.10584218558673   -0.21732935452396
H         5.15228961852687    1.64692242113962   -1.89367841470342
H         4.66438307194871   -0.73667297175510    0.91151088317806
H         2.48241670293036   -1.61696822490090    1.55534253513583
H        -0.63409861317725    1.27085914856520   -1.34791533019586
H        -3.00124938822187    1.66602222148032   -1.88581379795612
31
 energy: -45.127249632443 gnorm: 0.001626162475 xtb: 6.3.3 (4ae9cef)
C        -5.19388476110374    0.43636220307310   -0.93915985437913
C        -3.76465168692758    0.17396315479719   -0.56512493888936
C        -3.45465159067234   -0.80630477406319    0.35799942562590
C        -2.12172595194053   -1.04479876885917    0.67266574034077
C        -1.09236914128041   -0.29477254916195    0.05920192959504
N         0.12008182240443   -0.74340559707582    0.56384276931445
C        -0.15648114150928   -1.75027590716225    1.46822449764064
C        -1.48985460102848   -1.96215792603537    1.56329777975771
C         1.38609570603945   -0.28512876786933    0.24315155984346
N         1.46825557769941    0.69377408729187   -0.65304309329942
C         2.65367134176662    1.16268671680295   -0.99253648302905
C         3.85596157705604    0.70104280055424   -0.47333392188684
C         5.17433338328245    1.27945528462549   -0.87726524105176
C         3.76744898655085   -0.32441768128392    0.46498185871068
C         2.53770500318864   -0.82690210981787    0.83208076755090
C        -1.40063470265881    0.69011599005909   -0.86951823603843
C        -2.73247914075997    0.90493476916860   -1.16481572494973
H        -5.85777566353510    0.20468124846545   -0.10903113996092
H        -5.33796221056651    1.47512699304818   -1.22661832616445
H        -5.48103470617268   -0.19086403132820   -1.78427304872946
H        -4.23361364135252   -1.38389906430951    0.83477736202252
H         0.62461516843488   -2.26063631189839    1.99471186179854
H        -1.97802937265239   -2.68300297987761    2.18862932861982
H         2.63807111040834    1.95744778209560   -1.72850037340087
H         5.96022343988481    0.53108220291485   -0.80017715894830
H         5.43485423596331    2.11079728916152   -0.22092586200988
H         5.13744981437196    1.65342607084829   -1.89758609490903
H         4.66636632374617   -0.73141652301298    0.90736630815526
H         2.48523122381023   -1.62107241856660    1.55714019447655
H        -0.62287814747574    1.26656879610989   -1.34084195836299
H        -2.99233625497159    1.66758902130587   -1.88524792744266
31
 energy: -45.127299127292 gnorm: 0.002145292726 xtb: 6.3.3 (4ae9cef)
C        -5.18633571882891    0.44208197526119   -0.94485846759580
C        -3.75921792886779    0.17582541926480   -0.56578636717012
C        -3.45404377549504   -0.80561165442854    0.35803207733780
C        -2.12188368604353   -1.04722991867919    0.67581030688024
C        -1.09068751072809   -0.29958816828170    0.06415687465502
N         0.12039942367166   -0.75045979775700    0.57034031617281
C        -0.15870246080847   -1.75634818915104    1.47519845058597
C        -1.49300719728732   -1.96552051482479    1.56801775647876
C         1.38572280881970   -0.29194313445550    0.24726131309476
N         1.46363995093574    0.68650141287764   -0.65011231971139
C         2.64649941912727    1.15945861060470   -0.99297157886542
C         3.85057585793587    0.70198478025579   -0.47534182136367
C         5.16552085909534    1.28559511470513   -0.88245332227529
C         3.76746992704560   -0.32337388581534    0.46373958137381
C         2.54057910830087   -0.83026986849300    0.83386921401043
C        -1.39425823399049    0.68694753216070   -0.86484194021250
C        -2.72464568513981    0.90496415356540   -1.16300215997294
H        -5.85485282183989    0.20825154930047   -0.11899880796149
H        -5.32720504550228    1.48250499838336   -1.22838098776156
H        -5.47021944457036   -0.18068436608674   -1.79439720280454
H        -4.23568787931173   -1.38124128372365    0.83273575258898
H         0.62235260265829   -2.26662526060724    2.00222820123309
H        -1.98507226743484   -2.68481632769157    2.19238825538506
H         2.62621668559447    1.95241832966133   -1.73068227503548
H         5.95459406014457    0.53991566236762   -0.81131918391473
H         5.42569625046576    2.11601057106340   -0.22479193025689
H         5.12329085161166    1.66265795686988   -1.90163106068787
H         4.66957971109165   -0.72614037298264    0.90374471436457
H         2.48931807132188   -1.62457940586745    1.55906594452811
H        -0.61335204180646    1.26091010228432   -1.33341841093955
H        -2.98228189016540    1.66840298021969   -1.88352892216027
31
 energy: -45.127320572087 gnorm: 0.001387822611 xtb: 6.3.3 (4ae9cef)
C        -5.18347102602026    0.44475154757866   -0.94760963372772
C        -3.75741242292199    0.17615471879433   -0.56573206450603
C        -3.45406677251335   -0.80529700911862    0.35825419942998
C        -2.12225966744155   -1.04821935252201    0.67743385571137
C        -1.09000040951342   -0.30160864005042    0.06633091107809
N         0.12066052363715   -0.75313052905689    0.57333439212616
C        -0.15991250234938   -1.75882590271751    1.47802310360554
C        -1.49445578986056   -1.96674940299286    1.57009327646943
C         1.38605733256403   -0.29449547279527    0.24952335835833
N         1.46194286601525    0.68286339332466   -0.64859286457165
C         2.64369794804317    1.15658304392260   -0.99326669081245
C         3.84892337359944    0.70162492854346   -0.47630043077538
C         5.16199303838125    1.28874980183041   -0.88523980934816
C         3.76801233461247   -0.32338999259857    0.46338856840254
C         2.54188688633952   -0.83150188398003    0.83491025815069
C        -1.39180761599506    0.68500415591765   -0.86270213109279
C        -2.72145685692246    0.90443698326539   -1.16180592887386
H        -5.85483425303121    0.20887187861594   -0.12472938564876
H        -5.32244549613153    1.48630610016333   -1.22817998225876
H        -5.46547386079823   -0.17454997912880   -1.80028453301557
H        -4.23700204919576   -1.38002522244539    0.83183524134171
H         0.62065548064665   -2.26931338252296    2.00555600673697
H        -1.98761955121486   -2.68535034784618    2.19441177969156
H         2.62092590322221    1.94947640876052   -1.73084115313987
H         5.95308252877897    0.54486359394900   -0.81783254950356
H         5.42202345979486    2.11834104032753   -0.22650287104154
H         5.11638564210049    1.66813990918553   -1.90342899359002
H         4.67112434449534   -0.72446322365831    0.90264450255864
H         2.49202445682078   -1.62584044393922    1.56027246847926
H        -0.61011293986986    1.25819978957652   -1.33046994919645
H        -2.97706290527221    1.66839249161759   -1.88242095103778
31
 energy: -45.127345955369 gnorm: 0.000738613727 xtb: 6.3.3 (4ae9cef)
C        -5.17886472626813    0.44936865159067   -0.95245091980619
C        -3.75475482019737    0.17653072359860   -0.56562641500344
C        -3.45418919770127   -0.80472800153424    0.35877897513177
C        -2.12302813475040   -1.04976663158742    0.68057672713261
C        -1.08887228583110   -0.30477905088521    0.07033976507156
N         0.12108432832390   -0.75782798377950    0.57823229116411
C        -0.16188082018316   -1.76258837701225    1.48313487756229
C        -1.49689477634089   -1.96858119491876    1.57391379856695
C         1.38689050756554   -0.29962376027271    0.25246370877955
N         1.45931382275180    0.67647992591919   -0.64639600552640
C         2.63929577321579    1.15233220528907   -0.99272087317376
C         3.84649461887514    0.70118870359432   -0.47722029266530
C         5.15608917083438    1.29421485513886   -0.89017882539337
C         3.76909197646393   -0.32339709382611    0.46323643849460
C         2.54392128643897   -0.83377368991622    0.83660175423523
C        -1.38797526586973    0.68172839526465   -0.85889362807804
C        -2.71646440470836    0.90331633308521   -1.15988069006258
H        -5.85560846016548    0.20769059240149   -0.13579228336634
H        -5.31465767929978    1.49350220721134   -1.22538847888497
H        -5.45676970363832   -0.16187545594024   -1.81228578001276
H        -4.23929472659746   -1.37789705189512    0.83066525455060
H         0.61762530548350   -2.27385626274812    2.01153520950957
H        -1.99119336621964   -2.68644259396988    2.19824651701272
H         2.61267436045095    1.94315634243627   -1.73233956771770
H         5.95063505046767    0.55329001660473   -0.83110875131534
H         5.41662473833836    2.12139999027303   -0.22867237729986
H         5.10334284339364    1.67897200041455   -1.90603134101640
H         4.67350916542409   -0.72217019117175    0.90149337950276
H         2.49732202636668   -1.62742905240670    1.56314447519697
H        -0.60543089328196    1.25363357026160   -1.32623526496205
H        -2.96803371334138    1.66793087878075   -1.88106967762688
31
 energy: -45.127357314091 gnorm: 0.000716533752 xtb: 6.3.3 (4ae9cef)
C        -5.17483219977124    0.45266823588576   -0.95583996783932
C        -3.75217305916602    0.17705402238097   -0.56593641441119
C        -3.45377370610280   -0.80414534722029    0.35920754589296
C        -2.12324036469733   -1.05086024957704    0.68263082659184
C        -1.08770334313623   -0.30725857665170    0.07283107801527
N         0.12129760355199   -0.76095859955806    0.58199937381293
C        -0.16295231419465   -1.76535486554745    1.48659690151111
C        -1.49835452400564   -1.96989462458580    1.57674009879523
C         1.38672292053137   -0.30240015732881    0.25585787765653
N         1.45692602237863    0.67207132640365   -0.64495837538737
C         2.63555716814768    1.14855361387503   -0.99396433119880
C         3.84399434043624    0.70053640023573   -0.47855320451340
C         5.15097896490376    1.29765116483050   -0.89362015769438
C         3.76913628716798   -0.32314190872489    0.46305743262417
C         2.54492131611674   -0.83488502705473    0.83870721993741
C        -1.38465913506345    0.67930016927964   -0.85694091234795
C        -2.71242781857973    0.90248689798562   -1.15931104449720
H        -5.85498390093136    0.20430428743569   -0.14410651798217
H        -5.30917104641009    1.49909729230784   -1.22068586705936
H        -5.44908356166134   -0.15114044588172   -1.82212257427610
H        -4.24020312797011   -1.37617700952854    0.83035378575936
H         0.61579777695152   -2.27713434441584    2.01573354732007
H        -1.99325624534449   -2.68704327225458    2.20143870845903
H         2.60665885667823    1.93987603433511   -1.73287399613142
H         5.94722993561396    0.55816823309574   -0.84128154030105
H         5.41251587901444    2.12241947478506   -0.22946925367837
H         5.09290467510152    1.68690540283603   -1.90739662659199
H         4.67450018676066   -0.72025570941579    0.90085273318873
H         2.50082070998864   -1.62843700320956    1.56560665174834
H        -0.60128891983094    1.25060941441159   -1.32358267767864
H        -2.96185737647808    1.66738417087093   -1.88089831972436
31
 energy: -45.127364702601 gnorm: 0.000552066523 xtb: 6.3.3 (4ae9cef)
C        -5.17044112998480    0.45610954244363   -0.95922187778140
C        -3.74923790352085    0.17768563097015   -0.56649392099564
C        -3.45326821769209   -0.80345471261140    0.35965159176058
C        -2.12341360826934   -1.05181979281946    0.68483549736910
C        -1.08647567495886   -0.30969873689063    0.07560931703256
N         0.12149562628005   -0.76478579218770    0.58540064978770
C        -0.16414169612262   -1.76790479295383    1.49072093525464
C        -1.49997244470821   -1.97111172936137    1.57987094690168
C         1.38649786321737   -0.30675407708022    0.25793566968584
N         1.45433518173608    0.66741981613613   -0.64359696839164
C         2.63128436444122    1.14669540411389   -0.99343225805762
C         3.84104152542369    0.70106210481430   -0.47901906061995
C         5.14556629665134    1.30092738640019   -0.89727597421248
C         3.76899605897291   -0.32210885120452    0.46330316946349
C         2.54605104485148   -0.83627647137295    0.84060825444799
C        -1.38104908754611    0.67691776123427   -0.85493736334890
C        -2.70804848328545    0.90157002094996   -1.15906721881649
H        -5.85394566701461    0.19809971295163   -0.15334061811848
H        -5.30424853311961    1.50547106242112   -1.21285399640844
H        -5.44007356716992   -0.13791406012262   -1.83377185485618
H        -4.24099528099915   -1.37412116383324    0.83032882558895
H         0.61380092490181   -2.28043011701884    2.02045528684212
H        -1.99559852521011   -2.68779729785492    2.20454518240123
H         2.60043085788096    1.93528813646041   -1.73534541925547
H         5.94268109637864    0.56186349422580   -0.85344182015480
H         5.40968588267787    2.12204692944657   -0.22959509298990
H         5.08155533361588    1.69604584427728   -1.90845899647336
H         4.67544636779873   -0.71744207273178    0.90055689634282
H         2.50427066643409   -1.62869843457007    1.56891988828363
H        -0.59656013250288    1.24686961485812   -1.32132245246103
H        -2.95566713915764    1.66624464091020   -1.88149521822064
31
 energy: -45.127363093248 gnorm: 0.001065387302 xtb: 6.3.3 (4ae9cef)
C        -5.16604127273558    0.45945869567874   -0.96270421691361
C        -3.74630385164840    0.17830815644344   -0.56706004623395
C        -3.45276147272083   -0.80278897074294    0.36006913205600
C        -2.12358936101238   -1.05275787044790    0.68706404361839
C        -1.08525562340982   -0.31205419856859    0.07848021755371
N         0.12168611942434   -0.76852955158774    0.58889317744712
C        -0.16533530351705   -1.77040991514355    1.49489396425874
C        -1.50159152131794   -1.97232150592271    1.58301004663406
C         1.38626489940501   -0.31102080722975    0.26010868999770
N         1.45173522042655    0.66286893315162   -0.64212567357757
C         2.62700617589077    1.14489178949166   -0.99284055662227
C         3.83808802560495    0.70157495477249   -0.47949918324917
C         5.14016250525781    1.30411087739692   -0.90103355438830
C         3.76885637852247   -0.32108853244415    0.46353489211071
C         2.54717714090030   -0.83762937607438    0.84255138251718
C        -1.37744940327514    0.67465641870178   -0.85280184351709
C        -2.70367582392420    0.90072822206135   -1.15874146793743
H        -5.85294333594701    0.19173241709842   -0.16272822512627
H        -5.29936674202415    1.51174993877857   -1.20510378330524
H        -5.43095383662510   -0.12477329359375   -1.84556063397696
H        -4.24178047370930   -1.37215278913490    0.83020880790877
H         0.61180070748619   -2.28369074616014    2.02521531763226
H        -1.99793810765887   -2.68858906440504    2.20761073461085
H         2.59419731907378    1.93076477947034   -1.73774620632040
H         5.93810010524642    0.56541815577159   -0.86575578023408
H         5.40695832188259    2.12156740109046   -0.22984061694281
H         5.07016880589691    1.70509162731949   -1.90962333245861
H         4.67639809306476   -0.71469203440868    0.90019177411324
H         2.50771893808907   -1.62893760640914    1.57225769740085
H        -0.59184600482003    1.24330887948344   -1.31886771342133
H        -2.94948462182627    1.66520401556317   -1.88198504363460
31
 energy: -45.127368023687 gnorm: 0.000347964014 xtb: 6.3.3 (4ae9cef)
C        -5.16773254237246    0.45817646591664   -0.96116849844447
C        -3.74735800742485    0.17803448483737   -0.56697419168335
C        -3.45298806257603   -0.80298507282631    0.35995581654851
C        -2.12347927464969   -1.05249766202395    0.68603242467545
C        -1.08576480607323   -0.31153465801682    0.07701352005206
N         0.12157828206999   -0.76698596910909    0.58774884105811
C        -0.16489826408170   -1.76972336802455    1.49317718141929
C        -1.50104600791638   -1.97185015000577    1.58183442179304
C         1.38626078706510   -0.30844664167404    0.26024329700524
N         1.45274205842724    0.66476364436919   -0.64264487962543
C         2.62868905190091    1.14477910531927   -0.99435330215693
C         3.83916678458958    0.70114034779442   -0.47997705121415
C         5.14236179178878    1.30256174850386   -0.89970071085355
C         3.76885761534327   -0.32103386254392    0.46355277289282
C         2.54682150087324   -0.83630959099708    0.84249514486145
C        -1.37878988202441    0.67496824046370   -0.85431143307899
C        -2.70530491201307    0.90064079137945   -1.15942272901728
H        -5.85328074894719    0.19147751930038   -0.15997305638621
H        -5.30222277016220    1.50980563261528   -1.20488604254314
H        -5.43369041666030   -0.12738870619756   -1.84242177953600
H        -4.24149323147858   -1.37265926030899    0.83050749042737
H         0.61261982810283   -2.28249810499517    2.02340517316631
H        -1.99746451422748   -2.68787198009334    2.20669014414409
H         2.59646608324023    1.93361321079306   -1.73586553126580
H         5.93933866680255    0.56307811304306   -0.86208252256014
H         5.40908448340382    2.12061416396314   -0.22930280309163
H         5.07489044215736    1.70218075720089   -1.90883846228685
H         4.67611016388044   -0.71482615711044    0.90061385397324
H         2.50607807399674   -1.62832667370930    1.57134537324682
H        -0.59340820369693    1.24398647439390   -1.32026294492854
H        -2.95214196933776    1.66511615774283   -1.88235751659148
