78
 energy: -124.081042904478 gnorm: 0.156349609543 xtb: 6.3.3 (4ae9cef)
C         3.06451400000000   -2.79909300000000    2.89152900000000
C         3.07926700000000   -3.82412300000000    1.95144700000000
C         2.51009500000000   -3.61358000000000    0.70106900000000
C         1.93301700000000   -2.38392900000000    0.37754700000000
C         1.90630800000000   -1.31389100000000    1.29443900000000
C         2.46102100000000   -1.55682900000000    2.58517500000000
C         2.40670400000000   -0.54257800000000    3.55719900000000
C         1.81249700000000    0.69779800000000    3.28166600000000
C         1.28253100000000    0.97049500000000    2.02366000000000
C         1.35615300000000   -0.01164600000000    1.00148700000000
C         0.83607500000000    0.32565400000000   -0.38912300000000
C        -0.69503900000000    0.06491700000000   -0.50225200000000
C        -1.04846200000000   -1.00106500000000   -1.55454200000000
C        -0.51502500000000   -0.88968700000000   -2.85336600000000
C        -0.74352100000000   -1.86638200000000   -3.81735000000000
C        -1.52971600000000   -2.97255600000000   -3.52128000000000
C        -2.12564200000000   -3.09937500000000   -2.25883300000000
C        -1.89746100000000   -2.11197900000000   -1.25289400000000
C        -2.54496900000000   -2.31032800000000   -0.01203100000000
C        -3.32985300000000   -3.43964800000000    0.25024100000000
C        -3.51225000000000   -4.39407100000000   -0.73646700000000
C        -2.92020200000000   -4.22371600000000   -1.98442000000000
N        -1.27000100000000    1.38971600000000   -0.75454500000000
C        -2.55257800000000    1.49725700000000   -1.28049500000000
C        -3.65872700000000    1.67648300000000   -0.25778900000000
C        -3.48365600000000    1.46522700000000    1.11900500000000
C        -4.53114200000000    1.75452600000000    2.01334100000000
C        -5.76721400000000    2.25161900000000    1.55275700000000
C        -6.86372900000000    2.58431600000000    2.52118300000000
C        -5.95190000000000    2.42402900000000    0.17818500000000
C        -4.90948500000000    2.12310000000000   -0.72117000000000
O        -2.76290800000000    1.71053300000000   -2.47795700000000
C        -0.24222900000000    2.28934200000000   -1.28685800000000
C        -0.58487400000000    3.75054600000000   -0.85703000000000
O        -1.09574700000000    3.86531500000000    0.40461400000000
O        -0.35689500000000    4.77415500000000   -1.48907100000000
N         1.00429600000000    1.74155300000000   -0.76199500000000
C         2.19762400000000    2.45808400000000   -0.86719500000000
C         3.48863000000000    1.73858800000000   -0.76875300000000
C         4.37660500000000    2.11094600000000    0.24622200000000
C         5.59401900000000    1.43823500000000    0.37342400000000
C         5.94853600000000    0.41522400000000   -0.52676800000000
C         7.25324700000000   -0.30988800000000   -0.36792100000000
C         5.05741000000000    0.05720900000000   -1.54723000000000
C         3.84189300000000    0.73261900000000   -1.67027200000000
O         2.23586500000000    3.69411700000000   -0.91755900000000
H         3.50265700000000   -2.98201300000000    3.87623100000000
H         3.50972700000000   -4.79339100000000    2.21272300000000
H         2.49987700000000   -4.41785700000000   -0.01890500000000
H         1.51299900000000   -2.28218200000000   -0.61633800000000
H         2.81935200000000   -0.70698300000000    4.55323300000000
H         1.76789100000000    1.44844000000000    4.06053400000000
H         0.84236100000000    1.94388000000000    1.84199800000000
H         1.39880100000000   -0.24526300000000   -1.12491200000000
H        -1.07564900000000   -0.25571600000000    0.46720400000000
H         0.06327700000000   -0.01287900000000   -3.13428600000000
H        -0.35966600000000   -1.73165200000000   -4.82017200000000
H        -1.69538900000000   -3.71044400000000   -4.30742000000000
H        -2.49180000000000   -1.57267200000000    0.78129800000000
H        -3.79329500000000   -3.55318200000000    1.22532300000000
H        -4.14065200000000   -5.26540000000000   -0.56124400000000
H        -3.08970700000000   -4.98277100000000   -2.74643000000000
H        -2.51911100000000    1.12390300000000    1.49658000000000
H        -4.37027900000000    1.59538700000000    3.07280100000000
H        -7.37659000000000    1.65815600000000    2.82197800000000
H        -7.58080200000000    3.29319200000000    2.08418200000000
H        -6.43632500000000    3.05803200000000    3.41143600000000
H        -6.90040200000000    2.79074600000000   -0.21924600000000
H        -5.08143200000000    2.26976300000000   -1.78463300000000
H        -0.23685500000000    2.22101300000000   -2.37944900000000
H        -1.14658400000000    4.83637500000000    0.51109800000000
H         4.12029600000000    2.90892700000000    0.94825700000000
H         6.27734900000000    1.74794200000000    1.16659300000000
H         7.19966400000000   -0.99732800000000    0.48808500000000
H         8.07349500000000    0.41098900000000   -0.17962800000000
H         7.49671400000000   -0.88239500000000   -1.27228300000000
H         5.29384900000000   -0.72383600000000   -2.26427100000000
H         3.16315000000000    0.47197800000000   -2.47935900000000
78
 energy: -124.105405354814 gnorm: 0.063504864682 xtb: 6.3.3 (4ae9cef)
C         3.05008846373013   -2.79263288394706    2.88509938653301
C         3.06524684499871   -3.80589101324199    1.95617559721697
C         2.49759220160030   -3.59332461721063    0.69997691634897
C         1.93929730610374   -2.37462236261258    0.37132887880216
C         1.91179470405043   -1.30092872536004    1.28686564789428
C         2.46237112346331   -1.54373292088183    2.58325407907596
C         2.40388929837941   -0.53025222702735    3.55517984940817
C         1.81350715904045    0.68263912871679    3.27458600275331
C         1.29657413563312    0.94658769981151    2.00540202587730
C         1.36394053262276   -0.00849594746943    0.99796667026052
C         0.83831140464885    0.32578612647490   -0.39030069559814
C        -0.69500135420255    0.06254837683484   -0.49881737903036
C        -1.05123058051656   -0.99344754286233   -1.55061031014219
C        -0.53185107956851   -0.88210656599519   -2.83367918073712
C        -0.76706989664400   -1.85031468844062   -3.81136193348115
C        -1.53002751369285   -2.95555114784970   -3.52325714200335
C        -2.11338590094282   -3.10114811994237   -2.25350666106265
C        -1.89394405223754   -2.10706751310410   -1.24724953865236
C        -2.54489632977894   -2.30613464566318   -0.01043446820956
C        -3.32107449753251   -3.42110228526867    0.24001995021706
C        -3.50895060270099   -4.38561666991230   -0.74589994521369
C        -2.91946861199209   -4.22137128827817   -1.97722788004346
N        -1.26607414368612    1.39402659687989   -0.73866752837901
C        -2.55949350786291    1.54300694951282   -1.26397175419758
C        -3.67032176100826    1.65074796043762   -0.26097034756111
C        -3.49170104922363    1.46890082065986    1.11239043300785
C        -4.52467611989352    1.75452081456087    1.99563516731630
C        -5.75186625993613    2.24646706594134    1.54321652121963
C        -6.84619734307560    2.58183135822930    2.51543477396561
C        -5.93203198140713    2.41289093988924    0.17438600842891
C        -4.90912050801113    2.10938156812270   -0.71681792404616
O        -2.75922235993303    1.72707993114555   -2.45063838229615
C        -0.24472226715200    2.28038892160989   -1.28768555663144
C        -0.52325323788497    3.73578327447399   -0.84570825629896
O        -1.06580269812735    3.84464638389439    0.38826986277759
O        -0.37842844493493    4.72131919508762   -1.52270020601220
N         0.99816145041803    1.74043480664735   -0.75804984669270
C         2.17815485483937    2.45051457083517   -0.82846307533148
C         3.46610017461386    1.70870668433385   -0.73850473393969
C         4.37266932990082    2.08964986410476    0.24840619336820
C         5.59035696359253    1.43790550933720    0.35902455240625
C         5.94110671133165    0.41693409755506   -0.52460425297421
C         7.24816249498727   -0.30315062825893   -0.36895403990878
C         5.05209948238297    0.07356050832162   -1.53910928464861
C         3.82834128150794    0.71961348232802   -1.64768505983994
O         2.19418593291458    3.66686591975489   -0.93234311685642
H         3.48709608628452   -2.96368082829192    3.86288717409677
H         3.50652603970126   -4.76579291755415    2.20542876171006
H         2.49384910963822   -4.39727078051172   -0.02227821592764
H         1.50615714701117   -2.27446374976610   -0.61359248621681
H         2.81619203867073   -0.70279602244007    4.54217270431588
H         1.76554331618370    1.43939251638200    4.04607733099986
H         0.85137327324244    1.91407986039699    1.81501545090529
H         1.38690146690265   -0.27024574648506   -1.12358766789670
H        -1.06350567279871   -0.27253805543646    0.47346571914443
H         0.06682186420360   -0.02113245335024   -3.10435854666864
H        -0.34958593886189   -1.72938124957287   -4.80218182559212
H        -1.69192281732094   -3.70250452316594   -4.29196162485746
H        -2.47652150974630   -1.57328131152317    0.78056560981395
H        -3.78519075334395   -3.53759726340789    1.21064276671651
H        -4.12642046783239   -5.25644783917056   -0.55930751826134
H        -3.08451315161214   -4.96820766672339   -2.74388782004773
H        -2.53546139574469    1.13416864112539    1.49296538239888
H        -4.36871620541205    1.60150757762668    3.05542415331740
H        -7.37103375903244    1.67244403613545    2.81743938057929
H        -7.56997633433626    3.27099674452284    2.07828789388385
H        -6.43521991598793    3.04728071668155    3.41192731952536
H        -6.87509154396378    2.78392271000231   -0.21176275927088
H        -5.06724288029240    2.26406713614515   -1.77571509394228
H        -0.23474693548848    2.25794764617438   -2.39041697804086
H        -1.16627457808049    4.80787590174038    0.51849012570975
H         4.12010021315304    2.88969546677091    0.93433737790581
H         6.27241476605835    1.73383260781731    1.14811617218495
H         7.20085359158677   -0.98943772016932    0.47952069071496
H         8.06175864154485    0.40353878198361   -0.17947704755296
H         7.49120518842107   -0.87734882480856   -1.26276631333572
H         5.29843791525791   -0.70488356932184   -2.25015892007619
H         3.16405645318042    0.47041141601978   -2.46670921332534
78
 energy: -124.112998334513 gnorm: 0.023762138594 xtb: 6.3.3 (4ae9cef)
C         3.03888077639550   -2.78127525156065    2.87475086173867
C         3.05785601145544   -3.78649483115310    1.95300069578206
C         2.48922027480956   -3.57433886053159    0.69109503669127
C         1.93986010832146   -2.36605046157401    0.36160515975819
C         1.91696115876792   -1.28993476051452    1.27663603410409
C         2.46188585863694   -1.52868217425036    2.57538216014056
C         2.40129624921669   -0.51350154524152    3.54856520434792
C         1.81612394998030    0.68269976722871    3.26241006237849
C         1.30758455037660    0.93516645884318    1.98156849520445
C         1.37317688607541   -0.00489765114445    0.98866283425958
C         0.83907888082610    0.31521949786187   -0.39641055649229
C        -0.69528820692283    0.05500685897185   -0.48826760401578
C        -1.05355817945209   -0.98432450826426   -1.54347072000869
C        -0.53895423689921   -0.86933468497044   -2.81171879085503
C        -0.77408361532662   -1.83243571200399   -3.80127045914721
C        -1.52747234785023   -2.93353503661620   -3.52176998436617
C        -2.10840353816393   -3.09093831308973   -2.24869946652372
C        -1.89271965782735   -2.09906375889098   -1.24087176387120
C        -2.54135965532656   -2.29946307354953   -0.00353596024184
C        -3.31210062140319   -3.40293723686029    0.23748881547551
C        -3.50140092144245   -4.37693426560252   -0.74904763481433
C        -2.91532872592253   -4.21364671877359   -1.96974170035978
N        -1.26448231755980    1.38695958445423   -0.72287255477511
C        -2.56672308459397    1.55262807058953   -1.25714470912218
C        -3.66267021218770    1.64922599118131   -0.26267698930009
C        -3.48629153701690    1.47309721866904    1.10837901953232
C        -4.51433176685844    1.74845529549714    1.98460128025177
C        -5.73841264477792    2.23430622182951    1.53627642580545
C        -6.82979522475054    2.57477433278462    2.50751048268085
C        -5.91639168408876    2.39624236791262    0.16876854677901
C        -4.89958872536336    2.10599271549289   -0.71597669527288
O        -2.74493381760385    1.77044918651625   -2.43112099062858
C        -0.25267315770348    2.26351151246465   -1.28250023998923
C        -0.53689913071824    3.71396324037070   -0.86948788392327
O        -0.99684900198112    3.81660587046104    0.38618687226972
O        -0.40374978203936    4.66888160471895   -1.57227699371446
N         0.98974820687552    1.72344861443799   -0.76089323848595
C         2.15273067161490    2.43444667781311   -0.80906905705092
C         3.43729632315136    1.67655350191057   -0.70271587153733
C         4.35717845119715    2.06189788676657    0.26680255236976
C         5.58016938918867    1.42960498632182    0.36194525406871
C         5.93111866136372    0.41447452544949   -0.51764377258607
C         7.24247832360690   -0.29721550524015   -0.37089229725304
C         5.03852439111922    0.07958661691705   -1.52523013695928
C         3.80791965837330    0.70443335884355   -1.62315745498687
O         2.14625970482485    3.64040794985676   -0.92996689120583
H         3.46552026849724   -2.93891800807886    3.85421710028760
H         3.49801317536151   -4.74277176454056    2.19492447157779
H         2.48560877029791   -4.37978589559654   -0.02963757762296
H         1.49860187106029   -2.25931335199616   -0.61722050886630
H         2.81305672218108   -0.69977749788256    4.52935075034430
H         1.75538099245677    1.44564226378771    4.02549949669153
H         0.85906512028818    1.89740391654265    1.77973142398287
H         1.37032089532989   -0.30256825056589   -1.12861482220361
H        -1.05107650812450   -0.29037217479232    0.48701239994920
H         0.07178536046351   -0.01732441139551   -3.07289992365691
H        -0.34392470935605   -1.70838564487624   -4.78493895900945
H        -1.69147893719181   -3.69059309491543   -4.27464765051700
H        -2.45589283551142   -1.56743651906908    0.78389302602102
H        -3.78501240901708   -3.52081663456661    1.20128024423655
H        -4.11597671232862   -5.24309096859597   -0.55200921597580
H        -3.07007030627291   -4.94947266663218   -2.74530138450951
H        -2.53490926099282    1.14311504807022    1.49061594332989
H        -4.36096766731545    1.60892267316852    3.04588082627982
H        -7.36020097558473    1.67282294749922    2.80956908776504
H        -7.55386487168616    3.25281268875779    2.06373585978785
H        -6.42383659849631    3.03505995181447    3.40562345646265
H        -6.85588080793761    2.77453155930366   -0.20705994889501
H        -5.04686203446717    2.25295626830108   -1.77465222293840
H        -0.23450680040700    2.27526733794333   -2.39143882373937
H        -1.14389546459080    4.76912091284659    0.54855423969122
H         4.10719819540614    2.86719447267720    0.93851898244346
H         6.27369553555233    1.72893569486563    1.13349249398623
H         7.19787016304746   -0.98399236958691    0.47348429166140
H         8.04763893117003    0.40669452109868   -0.18100513508252
H         7.48123567122610   -0.87091591084230   -1.26146665692065
H         5.30189105983221   -0.68426669949009   -2.24319319569050
H         3.15059047471268    0.45628404241338   -2.44450144502197
78
 energy: -124.115864223095 gnorm: 0.032456534485 xtb: 6.3.3 (4ae9cef)
C         3.03236859839102   -2.77054637865047    2.86598682928355
C         3.05306183210168   -3.77591662891072    1.94587301660916
C         2.48537303302351   -3.56616971218070    0.68042076194252
C         1.93841388580519   -2.36007561165267    0.35035603656840
C         1.92029900840639   -1.28425472783876    1.26623411799633
C         2.46107770176506   -1.51667791861891    2.56416880017313
C         2.39958745704307   -0.49828106197765    3.53749536049111
C         1.81630646638191    0.69740878107850    3.24775107332453
C         1.31099220730610    0.94283519563583    1.96171161326442
C         1.37743438486346   -0.00227105251531    0.97626613003051
C         0.83624262956397    0.30243511940772   -0.40515611254515
C        -0.69823719145024    0.05073511221831   -0.47627306217052
C        -1.05719053278731   -0.97686176161335   -1.53381027380746
C        -0.54072146933589   -0.85285616451086   -2.79771880885973
C        -0.77455865824014   -1.81150710491814   -3.79404777261451
C        -1.52596404240434   -2.91333070308372   -3.51779084127758
C        -2.10860199766395   -3.07626878231382   -2.24433773000728
C        -1.89481590645640   -2.09139458704879   -1.23433431580738
C        -2.53946378197661   -2.29199147067695    0.00575787467800
C        -3.31198597162247   -3.39179423683003    0.24185231609386
C        -3.49874503597591   -4.36797831944096   -0.74734726270215
C        -2.91104741755004   -4.20338920647872   -1.96574768321285
N        -1.25965571170740    1.38337654344999   -0.71195391881404
C        -2.56265401645433    1.56505027437006   -1.25384107295563
C        -3.65459963112332    1.63900948732941   -0.26367805401490
C        -3.47446594202167    1.46658322225184    1.10738943083175
C        -4.50180348146462    1.74355150408063    1.98361743498141
C        -5.72798786167307    2.22359018283250    1.53381361670001
C        -6.81893990272021    2.56360204840324    2.50162547681959
C        -5.90889759814483    2.38235475864733    0.16499293836615
C        -4.89441884430139    2.08929226126082   -0.71930870549740
O        -2.72444206403098    1.81567670786363   -2.42535748503715
C        -0.25137880656560    2.24425999023703   -1.28899394493419
C        -0.51223209944241    3.69776399608008   -0.87397465256912
O        -0.92896514844628    3.79805071611978    0.39483264479384
O        -0.47097542898889    4.63649160282871   -1.63226421186418
N         0.98796701746806    1.70124504815433   -0.77514282221391
C         2.14023363921393    2.42079112525874   -0.79939357247172
C         3.42055253792382    1.65777153660454   -0.67520210758652
C         4.34223863318737    2.04282377900022    0.29158483900554
C         5.56942877161754    1.41856958627823    0.37806840956386
C         5.92102583979056    0.40856222682061   -0.50811596691631
C         7.23715815165013   -0.29456976284981   -0.37285848266578
C         5.02305172356446    0.07308384960843   -1.51085437438635
C         3.78830741194585    0.68901654515132   -1.60002270171490
O         2.12285763783092    3.62655631693625   -0.93336039148430
H         3.44965400889309   -2.91989471193812    3.85093135300631
H         3.49174733560971   -4.73207103007333    2.18509960354787
H         2.48055019855667   -4.37308841716922   -0.03794295500800
H         1.49210992839115   -2.24701247845787   -0.62549982318542
H         2.80998502867966   -0.69364269710762    4.51724370776746
H         1.74693186041760    1.46593382779975    4.00363753762183
H         0.86408297225589    1.90340552831489    1.75021090051299
H         1.35470906738754   -0.32760930747617   -1.13595670035502
H        -1.04228689351676   -0.29622834297663    0.50263296660750
H         0.07596068549171   -0.00311317835199   -3.05057460410130
H        -0.34037868433125   -1.67895167147542   -4.77382194851314
H        -1.69313420925359   -3.67494751284704   -4.26484933329060
H        -2.44290704868767   -1.55975604317940    0.79182622172311
H        -3.79119505200338   -3.51241305568268    1.20189384700723
H        -4.11076981715955   -5.23329680047522   -0.54382744533983
H        -3.05571787272902   -4.93440395099966   -2.74820040651951
H        -2.51860477384612    1.14992547293312    1.48949217057618
H        -4.34851144708193    1.61265216022908    3.04578289646401
H        -7.34870585739942    1.66069699519404    2.80342865349113
H        -7.54060919336856    3.23975596876626    2.05155341108453
H        -6.41166092934363    3.02412853465162    3.39849134128541
H        -6.84971173578711    2.76050509068302   -0.20639264553883
H        -5.03123705621230    2.23916132884905   -1.77924703263442
H        -0.24071268778147    2.25829174205972   -2.39893385420633
H        -1.12493922726398    4.74053524521007    0.57120515187913
H         4.08802809146200    2.84562601686509    0.96402368894768
H         6.27338960828954    1.72451637598257    1.13745130936025
H         7.19731092735372   -0.98397165171898    0.47021360158724
H         8.03743966906473    0.41504690272945   -0.18426904462042
H         7.47204092172963   -0.86463795722240   -1.26693917847560
H         5.29703793461928   -0.67704844280269   -2.23952811842141
H         3.12887722126806    0.43755173388912   -2.41804566564722
78
 energy: -124.118072995026 gnorm: 0.019415956942 xtb: 6.3.3 (4ae9cef)
C         3.02759682790593   -2.75799826196230    2.85864578404253
C         3.04926756242703   -3.76595761089153    1.93952945006881
C         2.48358875354562   -3.56076018819822    0.67122628531050
C         1.93671674341837   -2.35501398876436    0.33908828275070
C         1.92264737393909   -1.27931346816384    1.25531999855526
C         2.46022178325400   -1.50358864425856    2.55177404544002
C         2.39847006879224   -0.48019304631225    3.52246260609052
C         1.81735608993820    0.71849849355477    3.22812459369653
C         1.31334844842158    0.95725910931846    1.93987576059926
C         1.38020942869228    0.00074132011826    0.96109333331388
C         0.83151779073823    0.29097550891752   -0.41580305975567
C        -0.70289894994589    0.05145601444303   -0.46785439299150
C        -1.06497307997078   -0.96945096031299   -1.52300224686645
C        -0.54517456327393   -0.83527805650650   -2.78601970889270
C        -0.77754740929820   -1.78893695213055   -3.78724612969036
C        -1.52762072463168   -2.89326237765150   -3.51227880368798
C        -2.11107644690955   -3.06137947641364   -2.23868374735742
C        -1.90044415333905   -2.08377238707635   -1.22655527635232
C        -2.54101238634694   -2.28415349317297    0.01681093414016
C        -3.31572639184240   -3.38352967798313    0.24917623266744
C        -3.49817582936650   -4.35912568177610   -0.74349605449817
C        -2.90796968716030   -4.19320031231680   -1.96157137661102
N        -1.25616337709494    1.38321177714286   -0.71365197146761
C        -2.55789946635544    1.57947062356545   -1.25670304405034
C        -3.64759927475510    1.62458347205441   -0.26804558469056
C        -3.45835319733633    1.45989466615508    1.10355632178343
C        -4.48598644139067    1.73712908756207    1.98236815783148
C        -5.71698077341670    2.20722643594608    1.53094989302214
C        -6.80702290522605    2.54719138440777    2.49662454066237
C        -5.90485105078265    2.36120206236185    0.16088297322704
C        -4.89210926992648    2.06549066144936   -0.72532069032195
O        -2.70779358967561    1.86825002056171   -2.42431134953679
C        -0.24838801682554    2.22576502566232   -1.31054508299407
C        -0.50671461109104    3.68101928616423   -0.89610522514134
O        -0.85013054875214    3.77796670553274    0.39654791662539
O        -0.49720654430796    4.60567805046957   -1.66004723820321
N         0.98593941550811    1.67814654301187   -0.79919436290072
C         2.12734212858408    2.41003821771806   -0.78849170267397
C         3.40470170841974    1.64763855168362   -0.64625632684965
C         4.32499313410295    2.02767150970785    0.32290660185321
C         5.55485470987610    1.40671417380106    0.40124079849314
C         5.90664837532823    0.40340769010959   -0.49578722766974
C         7.22867359697895   -0.29038915911607   -0.37558296194725
C         5.00243865835904    0.06566051279169   -1.49362589276135
C         3.76545042483300    0.67789072082976   -1.57377707580515
O         2.09781125253717    3.61760340932953   -0.92929591195501
H         3.43789615376067   -2.90068172099904    3.84858490893011
H         3.48682999781439   -4.72275927577814    2.17817054504104
H         2.47851696969234   -4.36963627093620   -0.04421769967096
H         1.48622870026265   -2.23840428221787   -0.63456946664654
H         2.80747358450492   -0.68011801469063    4.50251306524695
H         1.74315350345800    1.49381290968540    3.97580245975993
H         0.86843662347779    1.91645780704052    1.71864689674409
H         1.33636766720167   -0.35149058568992   -1.14378619806975
H        -1.03551062762157   -0.29046580150905    0.51587324802781
H         0.07379370590746    0.01491379329548   -3.03113766434775
H        -0.34021630684136   -1.64671893182587   -4.76366439038963
H        -1.69782364959386   -3.65640475180078   -4.25744945163121
H        -2.43716770616131   -1.55199977723288    0.80215792833070
H        -3.79923477349051   -3.50832046395303    1.20672071307936
H        -4.10685076144409   -5.22531227105398   -0.53458663429498
H        -3.04275569098923   -4.92189496525578   -2.74882171715499
H        -2.49569719509352    1.15809174488434    1.48402609182133
H        -4.32997617928189    1.61501970200719    3.04507570023716
H        -7.33498383105706    1.64250306926426    2.79938323934382
H        -7.52743672114089    3.22278119817528    2.04248748051895
H        -6.39860060314793    3.01023582994464    3.39190207577412
H        -6.84908227264263    2.73559503035689   -0.20663211896890
H        -5.02136089082448    2.21539200768372   -1.78669797670444
H        -0.24438352258793    2.23086118141463   -2.41897999905264
H        -1.04369793088054    4.70700176919429    0.60685141477188
H         4.06483803910872    2.82282504753642    1.00348710140813
H         6.26574717271276    1.71341092667157    1.15468420247810
H         7.19923863697844   -0.98446578941896    0.46535694375515
H         8.02554610098418    0.42609230001879   -0.18965596339641
H         7.46032252047164   -0.85418423400223   -1.27544387277472
H         5.28030896733488   -0.67630168166004   -2.22931195070480
H         3.10010773255017    0.42168520948824   -2.38571897596350
78
 energy: -124.119799931162 gnorm: 0.021008057875 xtb: 6.3.3 (4ae9cef)
C         3.02578316101864   -2.74596277614701    2.85492464700146
C         3.04786064015359   -3.75701079101381    1.93740586357288
C         2.48411969156031   -3.55800796413166    0.66778018690952
C         1.93492246389483   -2.35286886873787    0.33173302314067
C         1.92313867332486   -1.27501807190981    1.24585402685781
C         2.45941283697408   -1.49183222876120    2.54182401003756
C         2.39907844495639   -0.46219605838882    3.50607719931920
C         1.82195072820544    0.73918483552046    3.20549714456303
C         1.31726552423873    0.97201451428344    1.91808384573279
C         1.38337795798684    0.00486519169215    0.94521996769124
C         0.82884587847829    0.28571934160689   -0.42807463441739
C        -0.70671320077158    0.05733810018214   -0.46521671171352
C        -1.07712691032535   -0.96281322306203   -1.51508157219785
C        -0.55582847047689   -0.82181787206997   -2.77966269682251
C        -0.78665282797711   -1.77123725212536   -3.78285090109630
C        -1.53593784476257   -2.87774948354280   -3.50830985966721
C        -2.11798832052997   -3.05012337087974   -2.23468738513439
C        -1.91028083557991   -2.07697871910307   -1.22053603691990
C        -2.54773969717621   -2.27768949645020    0.02527388350605
C        -3.32150905136389   -3.37978537231610    0.25585597286057
C        -3.49932181758177   -4.35311766280732   -0.73962409734174
C        -2.90949264129961   -4.18591529218615   -1.95872416849866
N        -1.25205663836854    1.38753601631335   -0.72639024734497
C        -2.55123619634185    1.59185574600502   -1.26084992888930
C        -3.63970443961311    1.61653694432218   -0.27266224077087
C        -3.44098287660517    1.45872929126914    1.09849447820044
C        -4.47039608126539    1.72835641976385    1.97995356607160
C        -5.70729137790349    2.18457992744109    1.52822055309610
C        -6.79570960977456    2.52607012310362    2.49468204868650
C        -5.90454234424221    2.33006791284519    0.15778750764277
C        -4.89054898822798    2.04203849531283   -0.73039363814844
O        -2.69821933151666    1.92509790770532   -2.41882710386276
C        -0.24018978011312    2.21539953624457   -1.33813281440683
C        -0.48327074840737    3.67556377519931   -0.92087229758205
O        -0.74742317144770    3.76451656549743    0.39536143280593
O        -0.54031951227012    4.59381792916831   -1.69125480568712
N         0.99157430454216    1.66159318545704   -0.83539469550139
C         2.12264315244530    2.40645997407664   -0.78362200340218
C         3.39663842917191    1.64787078094548   -0.62134159689276
C         4.31091097855539    2.01578522466038    0.35731763912429
C         5.53985137228546    1.39179772627049    0.43057826330111
C         5.89161320351034    0.39774451348941   -0.47903973393259
C         7.21962557082880   -0.28682678730843   -0.37584698574041
C         4.98339235760762    0.05825448348893   -1.47371754660643
C         3.74905743267218    0.67501445502847   -1.54968871373141
O         2.08450258757062    3.61566555782876   -0.90711078655365
H         3.43388914788644   -2.88594406927319    3.84657685274979
H         3.48288462352994   -4.71506031563602    2.17906893370209
H         2.48002943789200   -4.36944668534854   -0.04455195517564
H         1.48399306902821   -2.23878463309149   -0.64169517753719
H         2.80680619007977   -0.65867056474252    4.48751329375940