      -----------------------------------------------------------      
     |                   =====================                   |     
     |                           x T B                           |     
     |                   =====================                   |     
     |                         S. Grimme                         |     
     |          Mulliken Center for Theoretical Chemistry        |     
     |                    University of Bonn                     |     
      -----------------------------------------------------------      

   * xtb version 6.3.3 (4ae9cef) compiled by 'conda@95abc7406d43' on 2020-10-14

   xtb is free software: you can redistribute it and/or modify it under
   the terms of the GNU Lesser General Public License as published by
   the Free Software Foundation, either version 3 of the License, or
   (at your option) any later version.
   
   xtb is distributed in the hope that it will be useful,
   but WITHOUT ANY WARRANTY; without even the implied warranty of
   MERCHANTABILITY or FITNESS FOR A PARTICULAR PURPOSE.  See the
   GNU Lesser General Public License for more details.
   
   Cite this work as:
   * C. Bannwarth, E. Caldeweyher, S. Ehlert, A. Hansen, P. Pracht,
     J. Seibert, S. Spicher, S. Grimme, WIREs Comput. Mol. Sci., 2020,
     e01493. DOI: 10.1002/wcms.1493
   
   for GFN2-xTB:
   * S. Grimme, C. Bannwarth, P. Shushkov, J. Chem. Theory Comput., 2017,
     13, 1989-2009. DOI: 10.1021/acs.jctc.7b00118
   for GFN1-xTB:
   * C. Bannwarth, S. Ehlert and S. Grimme., J. Chem. Theory Comput., 2019,
     15, 1652-1671. DOI: 10.1021/acs.jctc.8b01176
   for GFN0-xTB:
   * P. Pracht, E. Caldeweyher, S. Ehlert, S. Grimme, ChemRxiv, 2019, preprint.
     DOI: 10.26434/chemrxiv.8326202.v1
   for GFN-FF:
   * S. Spicher and S. Grimme, Angew. Chem. Int. Ed., 2020, 59, 15665-15673.
     DOI: 10.1002/anie.202004239
   
   for DFT-D4:
   * E. Caldeweyher, C. Bannwarth and S. Grimme, J. Chem. Phys., 2017,
     147, 034112. DOI: 10.1063/1.4993215
   * E. Caldeweyher, S. Ehlert, A. Hansen, H. Neugebauer, S. Spicher,
     C. Bannwarth and S. Grimme, J. Chem. Phys., 2019, 150, 154122.
     DOI: 10.1063/1.5090222
   * E. Caldeweyher, J.-M. Mewes, S. Ehlert and S. Grimme, Phys. Chem. Chem. Phys.
     2020, 22, 8499-8512. DOI: 10.1039/D0CP00502A
   
   for sTDA-xTB:
   * S. Grimme and C. Bannwarth, J. Chem. Phys., 2016, 145, 054103.
     DOI: 10.1063/1.4959605
   
   in the mass-spec context:
   * V. Asgeirsson, C. Bauer and S. Grimme, Chem. Sci., 2017, 8, 4879.
     DOI: 10.1039/c7sc00601b
   * J. Koopman and S. Grimme, ACS Omega 2019, 4, 12, 15120-15133.
     DOI: 10.1021/acsomega.9b02011
   
   for metadynamics refer to:
   * S. Grimme, J. Chem. Theory Comput., 2019, 155, 2847-2862
     DOI: 10.1021/acs.jctc.9b00143
   
   with help from (in alphabetical order)
   C. Bannwarth, F. Bohle, G. Brandenburg, E. Caldeweyher, M. Checinski,
   S. Dohm, S. Ehlert, S. Ehrlich, F. März, H. Neugebauer, J. Pisarek,
   P. Pracht, P. Shushkov, and S. Spicher.
   
 * started run on 2022/03/17 at 02:19:13.826     

           -------------------------------------------------
          |                Calculation Setup                |
           -------------------------------------------------

          program call               : xtb alk_10.xyz --opt --chrg 0 --uhf 0 --gfn 2
          coordinate file            : alk_10.xyz
          omp threads                :                    64
          number of atoms            :                    24
          number of electrons        :                    48
          charge                     :                     0
          spin                       :                   0.0
          first test random number   :      0.26792942935377

   ID    Z sym.   atoms
    1    6 C      1-8
    2    1 H      9-24

           -------------------------------------------------
          |                 G F N 2 - x T B                 |
           -------------------------------------------------

        Reference                      10.1021/acs.jctc.8b01176
      * Hamiltonian:
        H0-scaling (s, p, d)           1.850000    2.230000    2.230000
        zeta-weighting                 0.500000
      * Dispersion:
        s8                             2.700000
        a1                             0.520000
        a2                             5.000000
        s9                             5.000000
      * Repulsion:
        kExp                           1.500000    1.000000
        rExp                           1.000000
      * Coulomb:
        alpha                          2.000000
        third order                    shell-resolved
        anisotropic                    true
        a3                             3.000000
        a5                             4.000000
        cn-shift                       1.200000
        cn-exp                         4.000000
        max-rad                        5.000000


          ...................................................
          :                      SETUP                      :
          :.................................................:
          :  # basis functions                  48          :
          :  # atomic orbitals                  48          :
          :  # shells                           32          :
          :  # electrons                        48          :
          :  max. iterations                   250          :
          :  Hamiltonian                  GFN2-xTB          :
          :  restarted?                      false          :
          :  GBSA solvation                  false          :
          :  PC potential                    false          :
          :  electronic temp.          300.0000000     K    :
          :  accuracy                    1.0000000          :
          :  -> integral cutoff          0.2500000E+02      :
          :  -> integral neglect         0.1000000E-07      :
          :  -> SCF convergence          0.1000000E-05 Eh   :
          :  -> wf. convergence          0.1000000E-03 e    :
          :  Broyden damping             0.4000000          :
          ...................................................

 iter      E             dE          RMSdq      gap      omega  full diag
   1    -25.5875214 -0.255875E+02  0.307E+00    5.28       0.0  T
   2    -25.6455091 -0.579877E-01  0.176E+00    5.24       1.0  T
   3    -25.6436560  0.185310E-02  0.927E-01    5.24       1.0  T
   4    -25.6433255  0.330558E-03  0.587E-01    5.19       1.0  T
   5    -25.6486826 -0.535712E-02  0.681E-02    5.19       1.0  T
   6    -25.6486898 -0.723716E-05  0.325E-02    5.19       1.0  T
   7    -25.6486907 -0.910429E-06  0.552E-03    5.19       3.7  T
   8    -25.6486909 -0.151382E-06  0.149E-03    5.19      13.7  T
   9    -25.6486909 -0.446976E-08  0.417E-04    5.19      49.0  T
  10    -25.6486909 -0.361634E-09  0.151E-04    5.19     135.4  T

   *** convergence criteria satisfied after 10 iterations ***

         #    Occupation            Energy/Eh            Energy/eV
      -------------------------------------------------------------
         1        2.0000           -0.6229069             -16.9502
       ...           ...                  ...                  ...
        18        2.0000           -0.4443368             -12.0910
        19        2.0000           -0.4357495             -11.8573
        20        2.0000           -0.4264505             -11.6043
        21        2.0000           -0.4198117             -11.4237
        22        2.0000           -0.4169323             -11.3453
        23        2.0000           -0.4109717             -11.1831
        24        2.0000           -0.3938501             -10.7172 (HOMO)
        25                         -0.2031091              -5.5269 (LUMO)
        26                          0.0711777               1.9368
        27                          0.0952675               2.5924
        28                          0.0965985               2.6286
        29                          0.1026038               2.7920
       ...                                ...                  ...
        48                          0.5698809              15.5072
      -------------------------------------------------------------
                  HL-Gap            0.1907410 Eh            5.1903 eV
             Fermi-level           -0.2984796 Eh           -8.1220 eV

 SCC (total)                   0 d,  0 h,  0 min,  0.226 sec
 SCC setup                      ...        0 min,  0.017 sec (  7.395%)
 Dispersion                     ...        0 min,  0.020 sec (  8.880%)
 classical contributions        ...        0 min,  0.016 sec (  7.044%)
 integral evaluation            ...        0 min,  0.028 sec ( 12.397%)
 iterations                     ...        0 min,  0.008 sec (  3.388%)
 molecular gradient             ...        0 min,  0.137 sec ( 60.793%)
 printout                       ...        0 min,  0.000 sec (  0.068%)

         :::::::::::::::::::::::::::::::::::::::::::::::::::::
         ::                     SUMMARY                     ::
         :::::::::::::::::::::::::::::::::::::::::::::::::::::
         :: total energy             -25.257854640513 Eh    ::
         :: gradient norm              0.033762696739 Eh/a0 ::
         :: HOMO-LUMO gap              5.190326826810 eV    ::
         ::.................................................::
         :: SCC energy               -25.648690883771 Eh    ::
         :: -> isotropic ES            0.004150331143 Eh    ::
         :: -> anisotropic ES          0.007923463199 Eh    ::
         :: -> anisotropic XC          0.018146657893 Eh    ::
         :: -> dispersion             -0.015240836232 Eh    ::
         :: repulsion energy           0.390722405647 Eh    ::
         :: add. restraining           0.000000000000 Eh    ::
         :: total charge              -0.000000000000 e     ::
         :::::::::::::::::::::::::::::::::::::::::::::::::::::

      ----------------------------------------------------------- 
     |                   =====================                   |
     |                        A N C O P T                        |
     |                   =====================                   |
     |               Approximate Normal Coordinate               |
     |                Rational Function Optimizer                |
      ----------------------------------------------------------- 

          ...................................................
          :                      SETUP                      :
          :.................................................:
          :   optimization level            normal          :
          :   max. optcycles                   200          :
          :   ANC micro-cycles                  20          :
          :   degrees of freedom                66          :
          :.................................................:
          :   RF solver                   davidson          :
          :   write xtbopt.log                true          :
          :   linear?                        false          :
          :   energy convergence         0.5000000E-05 Eh   :
          :   grad. convergence          0.1000000E-02 Eh/α :
          :   maximium RF displ.         1.0000000          :
          :   Hlow (freq-cutoff)         0.1000000E-01      :
          :   Hmax (freq-cutoff)         5.0000000          :
          :   S6 in model hess.         20.0000000          :
          ...................................................

generating ANC from model Hessian ...
Using Lindh-Hessian (1995)
 Shifting diagonal of input Hessian by    9.3314728494090018E-003
 Lowest  eigenvalues of input Hessian
    0.000000    0.000000    0.000000    0.000000    0.000000    0.000000
    0.010000    0.010631    0.011905    0.012735    0.013530    0.016432
    0.017807    0.019262    0.022059    0.023504    0.027450    0.032361
 Highest eigenvalues
    1.199544    1.209521    1.259003    1.284012    1.465890    1.858475


........................................................................
.............................. CYCLE    1 ..............................
........................................................................
   1    -25.6486909 -0.256487E+02  0.259E-05    5.19       0.0  T
   2    -25.6486909 -0.120792E-12  0.177E-05    5.19    1153.2  T
   3    -25.6486909 -0.574829E-11  0.939E-06    5.19    2173.0  T
     SCC iter.                  ...        0 min,  0.003 sec
     gradient                   ...        0 min,  0.136 sec
 * total energy  :   -25.2578546 Eh     change       -0.1896794E-10 Eh
   gradient norm :     0.0337623 Eh/α   predicted     0.0000000E+00 (-100.00%)
   displ. norm   :     0.1248768 α      lambda       -0.2231591E-02
   maximum displ.:     0.0590825 α      in ANC's #28, #29, #44, ...

........................................................................
.............................. CYCLE    2 ..............................
........................................................................
   1    -25.6637252 -0.256637E+02  0.126E-01    5.36       0.0  T
   2    -25.6637304 -0.524453E-05  0.740E-02    5.36       1.0  T
   3    -25.6637239  0.654082E-05  0.210E-02    5.36       1.0  T
   4    -25.6637314 -0.748100E-05  0.454E-03    5.36       4.5  T
   5    -25.6637317 -0.318837E-06  0.166E-03    5.36      12.3  T
   6    -25.6637317 -0.570136E-08  0.423E-04    5.36      48.2  T
   7    -25.6637317 -0.352365E-09  0.125E-04    5.36     163.1  T
     SCC iter.                  ...        0 min,  0.005 sec
     gradient                   ...        0 min,  0.131 sec
 * total energy  :   -25.2591320 Eh     change       -0.1277401E-02 Eh
   gradient norm :     0.0084885 Eh/α   predicted    -0.1133210E-02 ( -11.29%)
   displ. norm   :     0.0821066 α      lambda       -0.2269858E-03
   maximum displ.:     0.0493347 α      in ANC's #7, #10, #9, ...

........................................................................
.............................. CYCLE    3 ..............................
........................................................................
   1    -25.6677474 -0.256677E+02  0.420E-02    5.40       0.0  T
   2    -25.6677483 -0.907221E-06  0.242E-02    5.40       1.0  T
   3    -25.6677475  0.796667E-06  0.781E-03    5.40       2.6  T
   4    -25.6677484 -0.883334E-06  0.205E-03    5.40      10.0  T
   5    -25.6677485 -0.721238E-07  0.467E-04    5.40      43.7  T
   6    -25.6677485 -0.700357E-09  0.179E-04    5.40     114.1  T
     SCC iter.                  ...        0 min,  0.004 sec
     gradient                   ...        0 min,  0.118 sec
 * total energy  :   -25.2592718 Eh     change       -0.1397897E-03 Eh
   gradient norm :     0.0023608 Eh/α   predicted    -0.1142649E-03 ( -18.26%)
   displ. norm   :     0.0643574 α      lambda       -0.5909075E-04
   maximum displ.:     0.0413187 α      in ANC's #7, #3, #10, ...

........................................................................
.............................. CYCLE    4 ..............................
........................................................................
   1    -25.6682461 -0.256682E+02  0.272E-02    5.39       0.0  T
   2    -25.6682462 -0.150310E-06  0.160E-02    5.39       1.3  T
   3    -25.6682460  0.175597E-06  0.337E-03    5.39       6.1  T
   4    -25.6682462 -0.200472E-06  0.914E-04    5.39      22.3  T
   5    -25.6682462 -0.120761E-07  0.233E-04    5.39      87.5  T
     SCC iter.                  ...        0 min,  0.008 sec
     gradient                   ...        0 min,  0.132 sec
 * total energy  :   -25.2593119 Eh     change       -0.4004718E-04 Eh
   gradient norm :     0.0013896 Eh/α   predicted    -0.2967040E-04 ( -25.91%)
   displ. norm   :     0.0838532 α      lambda       -0.2460195E-04
   maximum displ.:     0.0499568 α      in ANC's #7, #3, #1, ...

........................................................................
.............................. CYCLE    5 ..............................
........................................................................
   1    -25.6676518 -0.256677E+02  0.324E-02    5.39       0.0  T
   2    -25.6676518 -0.688853E-07  0.192E-02    5.39       1.1  T
   3    -25.6676518 -0.743122E-08  0.112E-03    5.39      18.3  T
   4    -25.6676519 -0.104655E-07  0.696E-04    5.39      29.3  T
   5    -25.6676519 -0.491306E-08  0.209E-04    5.39      97.8  T
     SCC iter.                  ...        0 min,  0.004 sec
     gradient                   ...        0 min,  0.132 sec
 * total energy  :   -25.2593298 Eh     change       -0.1787296E-04 Eh
   gradient norm :     0.0013521 Eh/α   predicted    -0.1234435E-04 ( -30.93%)
   displ. norm   :     0.0338554 α      lambda       -0.7409178E-05
   maximum displ.:     0.0198261 α      in ANC's #4, #3, #6, ...

........................................................................
.............................. CYCLE    6 ..............................
........................................................................
   1    -25.6675343 -0.256675E+02  0.109E-02    5.39       0.0  T
   2    -25.6675343 -0.247515E-07  0.639E-03    5.39       3.2  T
   3    -25.6675343  0.404057E-08  0.693E-04    5.39      29.4  T
   4    -25.6675343 -0.512030E-08  0.329E-04    5.39      62.1  T
     SCC iter.                  ...        0 min,  0.003 sec
     gradient                   ...        0 min,  0.159 sec
 * total energy  :   -25.2593386 Eh     change       -0.8829488E-05 Eh
   gradient norm :     0.0005519 Eh/α   predicted    -0.3719403E-05 ( -57.88%)
   displ. norm   :     0.1116232 α      lambda       -0.1729860E-04
   maximum displ.:     0.0652528 α      in ANC's #4, #3, #6, ...

........................................................................
.............................. CYCLE    7 ..............................
........................................................................
   1    -25.6674025 -0.256674E+02  0.351E-02    5.39       0.0  T
   2    -25.6674026 -0.129748E-06  0.207E-02    5.39       1.0  T
   3    -25.6674026 -0.700728E-08  0.104E-03    5.39      19.7  T
   4    -25.6674026 -0.117590E-07  0.440E-04    5.39      46.4  T
   5    -25.6674026 -0.466638E-09  0.263E-04    5.39      77.7  T
     SCC iter.                  ...        0 min,  0.009 sec
     gradient                   ...        0 min,  0.144 sec
 * total energy  :   -25.2593503 Eh     change       -0.1175749E-04 Eh
   gradient norm :     0.0019114 Eh/α   predicted    -0.8708481E-05 ( -25.93%)
   displ. norm   :     0.0831744 α      lambda       -0.1248640E-04
   maximum displ.:     0.0487987 α      in ANC's #4, #3, #1, ...

........................................................................
.............................. CYCLE    8 ..............................
........................................................................
   1    -25.6674530 -0.256675E+02  0.279E-02    5.39       0.0  T
   2    -25.6674530 -0.470531E-07  0.165E-02    5.39       1.2  T
   3    -25.6674530  0.286069E-08  0.113E-03    5.39      18.1  T
   4    -25.6674530 -0.156131E-07  0.505E-04    5.39      40.5  T
   5    -25.6674530 -0.238904E-08  0.268E-04    5.39      76.1  T
     SCC iter.                  ...        0 min,  0.008 sec
     gradient                   ...        0 min,  0.111 sec
 * total energy  :   -25.2593602 Eh     change       -0.9819303E-05 Eh
   gradient norm :     0.0016183 Eh/α   predicted    -0.6271498E-05 ( -36.13%)
   displ. norm   :     0.0445540 α      lambda       -0.5767341E-05
   maximum displ.:     0.0262624 α      in ANC's #4, #1, #6, ...

........................................................................
.............................. CYCLE    9 ..............................
........................................................................
   1    -25.6676645 -0.256677E+02  0.162E-02    5.39       0.0  T
   2    -25.6676646 -0.244072E-07  0.955E-03    5.39       2.1  T
   3    -25.6676646  0.266474E-08  0.586E-04    5.39      34.8  T
   4    -25.6676646 -0.363323E-08  0.377E-04    5.39      54.2  T
     SCC iter.                  ...        0 min,  0.003 sec
     gradient                   ...        0 min,  0.142 sec
 * total energy  :   -25.2593666 Eh     change       -0.6479122E-05 Eh
   gradient norm :     0.0006626 Eh/α   predicted    -0.2887947E-05 ( -55.43%)
   displ. norm   :     0.0774191 α      lambda       -0.6171004E-05
   maximum displ.:     0.0462752 α      in ANC's #1, #4, #6, ...

........................................................................
.............................. CYCLE   10 ..............................
........................................................................
   1    -25.6676385 -0.256676E+02  0.298E-02    5.38       0.0  T
   2    -25.6676386 -0.404892E-07  0.176E-02    5.38       1.2  T
   3    -25.6676385  0.583177E-07  0.192E-03    5.38      10.6  T
   4    -25.6676386 -0.710380E-07  0.447E-04    5.38      45.6  T
   5    -25.6676386 -0.240862E-08  0.172E-04    5.38     118.6  T
     SCC iter.                  ...        0 min,  0.004 sec
     gradient                   ...        0 min,  0.146 sec
 * total energy  :   -25.2593718 Eh     change       -0.5141307E-05 Eh
   gradient norm :     0.0005547 Eh/α   predicted    -0.3094183E-05 ( -39.82%)
   displ. norm   :     0.0359316 α      lambda       -0.1773497E-05
   maximum displ.:     0.0264293 α      in ANC's #1, #4, #6, ...

........................................................................
.............................. CYCLE   11 ..............................
........................................................................
   1    -25.6676647 -0.256677E+02  0.138E-02    5.39       0.0  T
   2    -25.6676647 -0.539323E-08  0.813E-03    5.39       2.5  T
   3    -25.6676647 -0.174622E-08  0.204E-04    5.39      99.9  T
   4    -25.6676647 -0.132577E-09  0.142E-04    5.39     144.1  T
     SCC iter.                  ...        0 min,  0.003 sec
     gradient                   ...        0 min,  0.128 sec
 * total energy  :   -25.2593739 Eh     change       -0.2104574E-05 Eh
   gradient norm :     0.0004734 Eh/α   predicted    -0.8901665E-06 ( -57.70%)
   displ. norm   :     0.0207639 α      lambda       -0.1524319E-05
   maximum displ.:     0.0177111 α      in ANC's #1, #3, #4, ...

   *** GEOMETRY OPTIMIZATION CONVERGED AFTER 11 ITERATIONS ***

------------------------------------------------------------------------
 total energy gain   :        -0.0015192 Eh       -0.9533 kcal/mol
 total RMSD          :         0.1110411 a0        0.0588 Å
 total power (kW/mol):        -0.3626154 (step)   -1.6250 (real)
------------------------------------------------------------------------

 ANCopt (total)                0 d,  0 h,  0 min,  2.455 sec
 optimizer setup                ...        0 min,  0.000 sec (  0.003%)
 model hessian                  ...        0 min,  0.009 sec (  0.375%)
 ANC generation                 ...        0 min,  0.001 sec (  0.037%)
 coordinate transformation      ...        0 min,  0.000 sec (  0.005%)
 single point calculation       ...        0 min,  2.321 sec ( 94.558%)
 optimization log               ...        0 min,  0.001 sec (  0.031%)
 hessian update                 ...        0 min,  0.121 sec (  4.926%)
 rational function              ...        0 min,  0.001 sec (  0.033%)

================
 final structure:
================
24
 xtb: 6.3.3 (4ae9cef)
C        -2.91155598136301    1.94654787193545    0.23826008745365
C        -2.37176657294375    0.79171933513966    0.57949549713537
C        -2.18153231515379   -0.35812460690015   -0.35787196250903
C        -0.70261523440759   -0.60202631342605   -0.69207348525853
C         0.10583651982030   -1.09518230757485    0.50713773341229
C         1.56953747435500   -1.40650621549130    0.16217986401396
C         2.55160512043357   -0.29497271646304    0.53745821095329
C         2.34384986144613    0.99969210234275   -0.23881508072900
H        -3.26963329350620    2.13100174279040   -0.76202046229518
H        -3.02666387754882    2.75615235067118    0.93928889899217
H        -2.02685633717330    0.63537132559609    1.59306239564305
H        -2.72305403715248   -0.15968332277387   -1.28520427712264
H        -2.59538130818943   -1.26446715739720    0.09302983765167
H        -0.64928776808291   -1.35420958059960   -1.48349223310170
H        -0.27331237773638    0.32112372514539   -1.08252119287766
H         0.07815310771778   -0.35084109687662    1.30376869623038
H        -0.37409807197178   -1.99984856301042    0.88893047433462
H         1.65545718892492   -1.61428260092510   -0.90664429133578
H         1.87638934627948   -2.31049448416303    0.69337419925145
H         2.46830082822865   -0.09043396162775    1.60761651621842
H         3.56591563226944   -0.65770208121835    0.35178768354250
H         2.37696580472453    0.81106289432610   -1.30982883005019
H         3.12717684461553    1.71394262029131    0.00676105417171
H         1.38656744641418    1.45216304020903    0.00627166627516

 Bond Distances (Angstroems)
 ---------------------------
C1-C2=1.3196         C1-H9=1.0783         C1-H10=1.0771        C2-C1=1.3196         C2-C3=1.4957         C2-H11=1.0820        
C3-C2=1.4957         C3-C4=1.5357         C3-H12=1.0920        C3-H13=1.0936        C4-C3=1.5357         C4-C5=1.5280         
C4-H14=1.0931        C4-H15=1.0904        C5-C4=1.5280         C5-C6=1.5357         C5-H16=1.0906        C5-H17=1.0929        
C6-C5=1.5357         C6-C7=1.5300         C6-H18=1.0922        C6-H19=1.0925        C7-C6=1.5300         C7-C8=1.5238         
C7-H20=1.0927        C7-H21=1.0931        C8-C7=1.5238         C8-H22=1.0880        C8-H23=1.0881        C8-H24=1.0868        
H9-C1=1.0783         H10-C1=1.0771        H11-C2=1.0820        H12-C3=1.0920        H13-C3=1.0936        H14-C4=1.0931        
H15-C4=1.0904        H16-C5=1.0906        H17-C5=1.0929        H18-C6=1.0922        H19-C6=1.0925        H20-C7=1.0927        
H21-C7=1.0931        H22-C8=1.0880        H23-C8=1.0881        H24-C8=1.0868        
 C  H  Rav=1.0890 sigma=0.0052  Rmin=1.0771  Rmax=1.0936    16
 C  C  Rav=1.4955 sigma=0.0729  Rmin=1.3196  Rmax=1.5357     7

 selected bond angles (degree)
 --------------------
H9-C1-C2=121.69                H10-C1-C2=122.22               H10-C1-H9=116.08               C3-C2-C1=124.25                
H11-C2-C1=119.94               H11-C2-C3=115.81               C4-C3-C2=112.39                H12-C3-C2=109.23               
H12-C3-C4=108.76               H13-C3-C2=109.31               H13-C3-C4=108.82               H13-C3-H12=108.24              
C5-C4-C3=112.95                H14-C4-C3=108.29               H14-C4-C5=108.68               H15-C4-C3=108.82               
H15-C4-C5=110.24               H15-C4-H14=107.70              C6-C5-C4=113.17                H16-C5-C4=109.85               
H16-C5-C6=109.06               H17-C5-C4=108.00               H17-C5-C6=109.22               H17-C5-H16=107.37              
C7-C6-C5=114.17                H18-C6-C5=109.47               H18-C6-C7=109.13               H19-C6-C5=109.04               
H19-C6-C7=107.55               H19-C6-H18=107.24              C8-C7-C6=113.88                H20-C7-C6=109.10               
H20-C7-C8=109.24               H21-C7-C6=108.23               H21-C7-C8=108.78               H21-C7-H20=107.41              
H22-C8-C7=110.49               H23-C8-C7=110.16               H23-C8-H22=108.30              H24-C8-C7=111.03               
H24-C8-H22=108.72              H24-C8-H23=108.05              

 selected dihedral angles (degree)
 ---------------------------------
C3-C2-C1-H9=  0.83            C3-C2-C1-H10=180.44           H11-C2-C1-H9=180.34           H11-C2-C1-H10=359.95          
C4-C3-C2-C1=110.07            C4-C3-C2-H11=290.54           H12-C3-C2-C1=349.26           H12-C3-C2-H11=169.73          
H13-C3-C2-C1=230.99           H13-C3-C2-H11= 51.46          C5-C4-C3-C2= 67.56            C5-C4-C3-H12=188.64           
C5-C4-C3-H13=306.35           H14-C4-C3-C2=187.98           H14-C4-C3-H12=309.06          H14-C4-C3-H13= 66.77          
H15-C4-C3-C2=304.79           H15-C4-C3-H12= 65.87          H15-C4-C3-H13=183.58          C6-C5-C4-C3=177.17            
C6-C5-C4-H14= 56.98           C6-C5-C4-H15=299.15           H16-C5-C4-C3=299.33           H16-C5-C4-H14=179.13          
H16-C5-C4-H15= 61.30          H17-C5-C4-C3= 56.14           H17-C5-C4-H14=295.95          H17-C5-C4-H15=178.12          
C7-C6-C5-C4= 99.37            C7-C6-C5-H16=336.78           C7-C6-C5-H17=219.71           H18-C6-C5-C4=336.71           
H18-C6-C5-H16=214.11          H18-C6-C5-H17= 97.04          H19-C6-C5-C4=219.67           H19-C6-C5-H16= 97.08          
H19-C6-C5-H17=340.01          C8-C7-C6-C5=295.07            C8-C7-C6-H18= 57.92           C8-C7-C6-H19=173.94           
H20-C7-C6-C5= 57.39           H20-C7-C6-H18=180.24          H20-C7-C6-H19=296.26          H21-C7-C6-C5=173.97           
H21-C7-C6-H18=296.82          H21-C7-C6-H19= 52.84          H22-C8-C7-C6=304.86           H22-C8-C7-H20=182.61          
H22-C8-C7-H21= 65.65          H23-C8-C7-C6=185.24           H23-C8-C7-H20= 62.99          H23-C8-C7-H21=306.03          
H24-C8-C7-C6= 65.58           H24-C8-C7-H20=303.33          H24-C8-C7-H21=186.37          
           -------------------------------------------------
          |                Final Singlepoint                |
           -------------------------------------------------

          ...................................................
          :                      SETUP                      :
          :.................................................:
          :  # basis functions                  48          :
          :  # atomic orbitals                  48          :
          :  # shells                           32          :
          :  # electrons                        48          :
          :  max. iterations                   250          :
          :  Hamiltonian                  GFN2-xTB          :
          :  restarted?                      false          :
          :  GBSA solvation                  false          :
          :  PC potential                    false          :
          :  electronic temp.          300.0000000     K    :
          :  accuracy                    1.0000000          :
          :  -> integral cutoff          0.2500000E+02      :
          :  -> integral neglect         0.1000000E-07      :
          :  -> SCF convergence          0.1000000E-05 Eh   :
          :  -> wf. convergence          0.1000000E-03 e    :
          :  Broyden damping             0.4000000          :
          ...................................................

 iter      E             dE          RMSdq      gap      omega  full diag
   1    -25.6676647 -0.256677E+02  0.578E-05    5.39       0.0  T
   2    -25.6676647 -0.573053E-11  0.449E-05    5.39     454.2  T
   3    -25.6676647 -0.227764E-10  0.210E-05    5.39     971.2  T

   *** convergence criteria satisfied after 3 iterations ***

         #    Occupation            Energy/Eh            Energy/eV
      -------------------------------------------------------------
         1        2.0000           -0.6242212             -16.9859
       ...           ...                  ...                  ...
        18        2.0000           -0.4439437             -12.0803
        19        2.0000           -0.4360748             -11.8662
        20        2.0000           -0.4263913             -11.6027
        21        2.0000           -0.4202441             -11.4354
        22        2.0000           -0.4175088             -11.3610
        23        2.0000           -0.4115088             -11.1977
        24        2.0000           -0.3960955             -10.7783 (HOMO)
        25                         -0.1981977              -5.3932 (LUMO)
        26                          0.0684479               1.8626
        27                          0.0983933               2.6774
        28                          0.1046661               2.8481
        29                          0.1092512               2.9729
       ...                                ...                  ...
        48                          0.6271826              17.0665
      -------------------------------------------------------------
                  HL-Gap            0.1978979 Eh            5.3851 eV
             Fermi-level           -0.2971466 Eh           -8.0858 eV

 SCC (total)                   0 d,  0 h,  0 min,  0.219 sec
 SCC setup                      ...        0 min,  0.012 sec (  5.545%)
 Dispersion                     ...        0 min,  0.019 sec (  8.728%)
 classical contributions        ...        0 min,  0.016 sec (  7.274%)
 integral evaluation            ...        0 min,  0.031 sec ( 14.342%)
 iterations                     ...        0 min,  0.002 sec (  1.127%)
 molecular gradient             ...        0 min,  0.138 sec ( 62.905%)
 printout                       ...        0 min,  0.000 sec (  0.050%)

         :::::::::::::::::::::::::::::::::::::::::::::::::::::
         ::                     SUMMARY                     ::
         :::::::::::::::::::::::::::::::::::::::::::::::::::::
         :: total energy             -25.259373882723 Eh    ::
         :: gradient norm              0.000473456191 Eh/a0 ::
         :: HOMO-LUMO gap              5.385075137715 eV    ::
         ::.................................................::
         :: SCC energy               -25.667664741208 Eh    ::
         :: -> isotropic ES            0.004317907319 Eh    ::
         :: -> anisotropic ES          0.007481887917 Eh    ::
         :: -> anisotropic XC          0.017656748874 Eh    ::
         :: -> dispersion             -0.015329859042 Eh    ::
         :: repulsion energy           0.408174312052 Eh    ::
         :: add. restraining           0.000000000000 Eh    ::
         :: total charge              -0.000000000000 e     ::
         :::::::::::::::::::::::::::::::::::::::::::::::::::::

           -------------------------------------------------
          |                Property Printout                |
           -------------------------------------------------

    * Orbital Energies and Occupations

         #    Occupation            Energy/Eh            Energy/eV
      -------------------------------------------------------------
         1        2.0000           -0.6242212             -16.9859
       ...           ...                  ...                  ...
        12        2.0000           -0.4983649             -13.5612
        13        2.0000           -0.4825780             -13.1316
        14        2.0000           -0.4726393             -12.8612
        15        2.0000           -0.4667623             -12.7012
        16        2.0000           -0.4577778             -12.4568
        17        2.0000           -0.4511405             -12.2762
        18        2.0000           -0.4439437             -12.0803
        19        2.0000           -0.4360748             -11.8662
        20        2.0000           -0.4263913             -11.6027
        21        2.0000           -0.4202441             -11.4354
        22        2.0000           -0.4175088             -11.3610
        23        2.0000           -0.4115088             -11.1977
        24        2.0000           -0.3960955             -10.7783 (HOMO)
        25                         -0.1981977              -5.3932 (LUMO)
        26                          0.0684479               1.8626
        27                          0.0983933               2.6774
        28                          0.1046661               2.8481
        29                          0.1092512               2.9729
        30                          0.1266360               3.4459
        31                          0.1361819               3.7057
        32                          0.1453552               3.9553
        33                          0.1488925               4.0516
        34                          0.1524667               4.1488
        35                          0.1706104               4.6425
       ...                                ...                  ...
        48                          0.6271826              17.0665
      -------------------------------------------------------------
                  HL-Gap            0.1978979 Eh            5.3851 eV
             Fermi-level           -0.2971466 Eh           -8.0858 eV

     #   Z          covCN         q      C6AA      α(0)
     1   6 C        2.837    -0.095    30.381     9.033
     2   6 C        2.886    -0.026    28.660     8.777
     3   6 C        3.806    -0.059    21.632     6.621
     4   6 C        3.802    -0.055    21.556     6.610
     5   6 C        3.800    -0.058    21.619     6.620
     6   6 C        3.800    -0.060    21.648     6.625
     7   6 C        3.799    -0.052    21.504     6.603
     8   6 C        3.751    -0.101    22.483     6.762
     9   1 H        0.926     0.033     2.538     2.491
    10   1 H        0.926     0.031     2.568     2.506
    11   1 H        0.925     0.030     2.585     2.514
    12   1 H        0.924     0.035     2.517     2.481
    13   1 H        0.924     0.036     2.509     2.477
    14   1 H        0.924     0.028     2.619     2.531
    15   1 H        0.924     0.037     2.490     2.468
    16   1 H        0.924     0.037     2.494     2.469
    17   1 H        0.924     0.026     2.638     2.540
    18   1 H        0.924     0.032     2.558     2.501
    19   1 H        0.924     0.027     2.637     2.539
    20   1 H        0.924     0.028     2.613     2.528
    21   1 H        0.924     0.026     2.642     2.542
    22   1 H        0.925     0.032     2.553     2.498
    23   1 H        0.925     0.030     2.590     2.517
    24   1 H        0.925     0.037     2.487     2.466

 Mol. C6AA /au·bohr⁶  :       4142.388631
 Mol. C8AA /au·bohr⁸  :      88505.459202
 Mol. α(0) /au        :         97.718619


Wiberg/Mayer (AO) data.
largest (>0.10) Wiberg bond orders for each atom

 ---------------------------------------------------------------------------
     #   Z sym  total        # sym  WBO       # sym  WBO       # sym  WBO
 ---------------------------------------------------------------------------
     1   6 C    3.991 --     2 C    1.979    10 H    0.978     9 H    0.976
     2   6 C    3.992 --     1 C    1.979     3 C    1.027    11 H    0.966
     3   6 C    3.998 --     2 C    1.027     4 C    0.987    12 H    0.975
                            13 H    0.965
     4   6 C    3.997 --     5 C    1.010     3 C    0.987    14 H    0.977
                            15 H    0.975
     5   6 C    3.997 --     4 C    1.010     6 C    1.003    17 H    0.980
                            16 H    0.975
     6   6 C    3.997 --     7 C    1.009     5 C    1.003    19 H    0.980
                            18 H    0.977
     7   6 C    3.998 --     8 C    1.020     6 C    1.009    21 H    0.979
                            20 H    0.978
     8   6 C    3.997 --     7 C    1.020    22 H    0.988    23 H    0.987
                            24 H    0.985
     9   1 H    0.999 --     1 C    0.976
    10   1 H    0.999 --     1 C    0.978
    11   1 H    0.999 --     2 C    0.966
    12   1 H    0.999 --     3 C    0.975
    13   1 H    0.999 --     3 C    0.965
    14   1 H    0.999 --     4 C    0.977
    15   1 H    0.999 --     4 C    0.975
    16   1 H    0.999 --     5 C    0.975
    17   1 H    0.999 --     5 C    0.980
    18   1 H    0.999 --     6 C    0.977
    19   1 H    0.999 --     6 C    0.980
    20   1 H    0.999 --     7 C    0.978
    21   1 H    0.999 --     7 C    0.979
    22   1 H    0.999 --     8 C    0.988
    23   1 H    0.999 --     8 C    0.987
    24   1 H    0.999 --     8 C    0.985
 ---------------------------------------------------------------------------

Topologies differ in total number of bonds
Writing topology from bond orders to xtbtopo.mol

molecular dipole:
                 x           y           z       tot (Debye)
 q only:        0.073      -0.107      -0.038
   full:        0.077      -0.120      -0.035       0.373
molecular quadrupole (traceless):
                xx          xy          yy          xz          yz          zz
 q only:       -0.667       0.688       0.057       0.383      -0.047       0.610
  q+dip:       -2.507       0.216       0.656       0.807       0.172       1.850
   full:       -1.427       0.620       0.214       0.532       0.086       1.212

           -------------------------------------------------
          |                Geometry Summary                 |
           -------------------------------------------------

      molecular mass/u    :      112.2129392
   center of mass at/Å    :       -0.1565552      -0.0018486       0.0846295
  moments of inertia/u·Å² :        0.1552349E+03   0.5468002E+03   0.6306117E+03
rotational constants/cm⁻¹ :        0.1085943E+00   0.3082960E-01   0.2673219E-01

 * 22 selected distances

     #   Z          #   Z                                           value/Å
     1   6 C        2   6 C                                       1.3196375
     3   6 C        4   6 C                                       1.5357000 (max)
     4   6 C        5   6 C                                       1.5280395
     5   6 C        6   6 C                                       1.5356884
     6   6 C        7   6 C                                       1.5299665
     7   6 C        8   6 C                                       1.5237846
     1   6 C        9   1 H                                       1.0783338
     1   6 C       10   1 H                                       1.0771029 (min)
     2   6 C       11   1 H                                       1.0820008
     3   6 C       12   1 H                                       1.0920485
     3   6 C       13   1 H                                       1.0936362
     4   6 C       14   1 H                                       1.0931455
     4   6 C       15   1 H                                       1.0903927
     5   6 C       16   1 H                                       1.0906104
     5   6 C       17   1 H                                       1.0929428
     6   6 C       18   1 H                                       1.0922171
     6   6 C       19   1 H                                       1.0924835
     7   6 C       20   1 H                                       1.0927097
     7   6 C       21   1 H                                       1.0931020
     8   6 C       22   1 H                                       1.0880019
     8   6 C       23   1 H                                       1.0881464
     8   6 C       24   1 H                                       1.0868243

 * 2 distinct bonds (by element types)

   Z      Z             #   av. dist./Å        max./Å        min./Å
   1 H    6 C          16     1.0889812     1.0936362     1.0771029
   6 C    6 C           6     1.4954694     1.5357000     1.3196375


optimized geometry written to: xtbopt.xyz


           -------------------------------------------------
          | TOTAL ENERGY              -25.259373882723 Eh   |
          | GRADIENT NORM               0.000473456191 Eh/α |
          | HOMO-LUMO GAP               5.385075137715 eV   |
           -------------------------------------------------

------------------------------------------------------------------------
 * finished run on 2022/03/17 at 02:19:16.851     
------------------------------------------------------------------------
 total:
 * wall-time:     0 d,  0 h,  0 min,  3.025 sec
 *  cpu-time:     0 d,  0 h,  1 min, 38.674 sec
 * ratio c/w:    32.623 speedup
 SCF:
 * wall-time:     0 d,  0 h,  0 min,  0.226 sec
 *  cpu-time:     0 d,  0 h,  0 min,  7.420 sec
 * ratio c/w:    32.808 speedup
 ANC optimizer:
 * wall-time:     0 d,  0 h,  0 min,  2.674 sec
 *  cpu-time:     0 d,  0 h,  1 min, 27.494 sec
 * ratio c/w:    32.714 speedup

