24
 energy: -25.257854640532 gnorm: 0.033762303383 xtb: 6.3.3 (4ae9cef)
C        -2.98275300000000    1.95740700000000    0.24424200000000
C        -2.38750700000000    0.80612900000000    0.58071800000000
C        -2.16058700000000   -0.33304300000000   -0.37249700000000
C        -0.67949600000000   -0.57733700000000   -0.68295600000000
C         0.11308300000000   -1.10525600000000    0.51921300000000
C         1.57555300000000   -1.41752800000000    0.17992400000000
C         2.56377900000000   -0.29847700000000    0.52187100000000
C         2.35341300000000    0.98743400000000   -0.25822300000000
H        -3.33626400000000    2.14445800000000   -0.76494500000000
H        -3.12747600000000    2.74306300000000    0.97949400000000
H        -2.05933500000000    0.66763200000000    1.60860400000000
H        -2.68409900000000   -0.14017200000000   -1.31740300000000
H        -2.60918000000000   -1.24061900000000    0.04875500000000
H        -0.62063000000000   -1.31517500000000   -1.49322700000000
H        -0.23157000000000    0.34399700000000   -1.06872000000000
H         0.06375500000000   -0.40873300000000    1.36305800000000
H        -0.36466500000000   -2.03542700000000    0.85292300000000
H         1.67893400000000   -1.70183800000000   -0.87394000000000
H         1.87499000000000   -2.29678700000000    0.76504400000000
H         2.51839600000000   -0.08067700000000    1.59554100000000
H         3.57795500000000   -0.66448100000000    0.32054900000000
H         2.32323600000000    0.79640700000000   -1.33533600000000
H         3.17481300000000    1.68403700000000   -0.06112600000000
H         1.42565300000000    1.48498800000000    0.03838800000000
24
 energy: -25.259132041360 gnorm: 0.008488533630 xtb: 6.3.3 (4ae9cef)
C        -2.97221030800606    1.94707726577316    0.24511996773051
C        -2.38918514811233    0.80649401462055    0.57403183129986
C        -2.16323251595709   -0.32948800389219   -0.37335774353048
C        -0.68150032778660   -0.57712785427076   -0.68084766037408
C         0.11015087965636   -1.11080478057110    0.51330298778596
C         1.57791119369427   -1.42014181404933    0.19196166067259
C         2.56496949105198   -0.29878322921008    0.52195990986114
C         2.34983965103529    0.98963572373817   -0.25798102135226
H        -3.33163275333833    2.13438004255019   -0.75444092659617
H        -3.11540764127003    2.73395646957701    0.96873472702881
H        -2.04875323700665    0.66120821577755    1.59165848169843
H        -2.68664547893127   -0.12175152979918   -1.31162704546565
H        -2.59545624151561   -1.24066189256731    0.05445463062514
H        -0.61913663233250   -1.31415999553419   -1.48806104082942
H        -0.23676324950800    0.34867882063421   -1.05026465664168
H         0.06719887175920   -0.40078551746174    1.34140678500655
H        -0.37853163584687   -2.03079563857070    0.85077084357985
H         1.67081964387355   -1.68245435388727   -0.86532339689707
H         1.88470671086947   -2.30035250422362    0.76686264251155
H         2.50978090308479   -0.08290322070591    1.59287050881263
H         3.57580245386068   -0.66752936958952    0.31955619419968
H         2.32140507619472    0.79285072378096   -1.32891784884074
H         3.16556378002518    1.68658236205448   -0.06371768075981
H         1.42030451450586    1.47687806582663    0.03179885047464
24
 energy: -25.259271831106 gnorm: 0.002360840118 xtb: 6.3.3 (4ae9cef)
C        -2.96374070549351    1.94171112765769    0.24658179974788
C        -2.38262159338274    0.80359680708646    0.57297233185204
C        -2.16116208205177   -0.33242926275289   -0.37302156087901
C        -0.67802208221293   -0.57528494776021   -0.68282846792334
C         0.10729874033558   -1.10673682985479    0.51545505233913
C         1.57393790730810   -1.41949893235012    0.18978647492926
C         2.55993475069448   -0.29887239533460    0.52599915926693
C         2.34431272868754    0.98849387408059   -0.25839789765628
H        -3.32882710518019    2.12794807041162   -0.74969291596003
H        -3.10429379249296    2.73385053234238    0.96204177180980
H        -2.03420316474798    0.65261809578603    1.58592533416000
H        -2.68425061398262   -0.12135806917793   -1.30872797391045
H        -2.58635857340416   -1.24475717199672    0.05717781317344
H        -0.61500135871797   -1.30930222683182   -1.49115911499114
H        -0.23740706579388    0.35402034556959   -1.04448644770057
H         0.06805583187961   -0.39067584014584    1.33762211255693
H        -0.38267132837592   -2.02321494124551    0.85611095578726
H         1.66381938543964   -1.67372310392453   -0.86920367569114
H         1.88059546924995   -2.30000258715545    0.76065814304543
H         2.50152961560481   -0.08139905118759    1.59563079209154
H         3.56915727323443   -0.66809235763359    0.32329960073255
H         2.32012607612773    0.78729244719744   -1.32724335741716
H         3.15683034473302    1.68556142391390   -0.06209772460945
H         1.41295934254173    1.47025699330591    0.02754879524640
24
 energy: -25.259311878287 gnorm: 0.001389635240 xtb: 6.3.3 (4ae9cef)
C        -2.95720651595265    1.93987375561000    0.24810944441664
C        -2.37823818420671    0.80029429510903    0.57367876228584
C        -2.16260138900619   -0.33575775169286   -0.37384710612010
C        -0.67793362047578   -0.57410291558928   -0.68418813792521
C         0.10637245201059   -1.10334909784203    0.51552463800030
C         1.57235015568538   -1.41960207570857    0.18847677277359
C         2.55741295809512   -0.29916663959806    0.52890492221668
C         2.34073704852545    0.98760375534088   -0.25808567097032
H        -3.32731327887791    2.12430237437066   -0.74718417875895
H        -3.09263635735173    2.73758947414820    0.95843303254120
H        -2.02179041227609    0.64609922516439    1.58350817847680
H        -2.68702223063913   -0.12549839919396   -1.30823941979933
H        -2.58324707725701   -1.24872647122064    0.05771316531440
H        -0.61196379698846   -1.30590742453327   -1.49343809959809
H        -0.24039390990862    0.35735521159689   -1.04240156803262
H         0.07029040097219   -0.38269063038621    1.33339289139002
H        -0.38511846562893   -2.01641473080249    0.86130252528393
H         1.66125828451973   -1.66726729178823   -0.87174377811513
H         1.87774497443268   -2.30265449176691    0.75473454595060
H         2.49448748778140   -0.08067943284957    1.59767120589469
H         3.56724111164002   -0.66679615477630    0.32907132926129
H         2.32151318795395    0.78320165485486   -1.32624575709520
H         3.14969121278755    1.68724112452055   -0.05907844838844
H         1.40636396416515    1.46505463703295    0.02388175099741
24
 energy: -25.259329751246 gnorm: 0.001352055444 xtb: 6.3.3 (4ae9cef)
C        -2.94799906019864    1.93924523883824    0.24933773385314
C        -2.37351350409233    0.79667586536381    0.57508956964472
C        -2.16579924970068   -0.34081890253728   -0.37364342530739
C        -0.68035160984954   -0.57443349020757   -0.68663220155314
C         0.10605062496621   -1.09891916154375    0.51406088839133
C         1.57103913564486   -1.41859652172961    0.18517814140775
C         2.55503313785542   -0.29940536986680    0.53283933163290
C         2.33814665704036    0.98642005165636   -0.25656062543029
H        -3.32451982642332    2.11988219427085   -0.74523446836134
H        -3.07583112106300    2.74278276254040    0.95544291123453
H        -2.01000272801180    0.64031767639778    1.58215224717835
H        -2.69365304099832   -0.13307842643838   -1.30652087481854
H        -2.58302919419127   -1.25403406478921    0.05959386709867
H        -0.61041405457514   -1.30499337863852   -1.49647454632006
H        -0.24739155260860    0.35932922477419   -1.04441200908487
H         0.07450428413888   -0.37243731028081    1.32695966630717
H        -0.38688921627782   -2.00780554799340    0.86854732099031
H         1.66058183067921   -1.65880575428925   -0.87650855298325
H         1.87404665210439   -2.30636025817501    0.74516656674135
H         2.48513244908035   -0.08074079272979    1.60109448778446
H         3.56690498384483   -0.66437089567267    0.33896685591677
H         2.32733815515433    0.78026783294172   -1.32479030046668
H         3.14171028184830    1.69094511938467   -0.05226377349092
H         1.39890396563329    1.45893590872405    0.01856218963505
24
 energy: -25.259338580734 gnorm: 0.000551851985 xtb: 6.3.3 (4ae9cef)
C        -2.94640262726302    1.93933025355066    0.24887529524241
C        -2.37396813047371    0.79602273592486    0.57554884069778
C        -2.16736800006131   -0.34260403713855   -0.37211027462730
C        -0.68287071523701   -0.57632369354386   -0.68755170861724
C         0.10644236436916   -1.09789344550697    0.51259929006978
C         1.57114710090150   -1.41745867484804    0.18309052395688
C         2.55473598742991   -0.29909129191860    0.53357184358002
C         2.33952219541511    0.98694190150505   -0.25501704214885
H        -3.31996700771538    2.12052357250462   -0.74642111267338
H        -3.07113292422156    2.74306825117125    0.95517610368949
H        -2.01099546471086    0.64094831537670    1.58283274378376
H        -2.69740645779277   -0.13592270872215   -1.30433638851147
H        -2.58466818612818   -1.25536310158353    0.06259600191042
H        -0.61364812197380   -1.30868406973822   -1.49611102943369
H        -0.25105490824397    0.35698984272087   -1.04875371611402
H         0.07562473519829   -0.36978841280175    1.32418872239907
H        -0.38593142299323   -2.00610271358761    0.87005310963527
H         1.66151090322679   -1.65563371585604   -0.87911300349490
H         1.87376303571746   -2.30699767328843    0.74104634188239
H         2.48272081315023   -0.08156183125825    1.60206746978639
H         3.56729886792172   -0.66391297645741    0.34205154979663
H         2.33255944268244    0.78227721921516   -1.32363875896835
H         3.14140997880967    1.69277616503106   -0.04760308230646
H         1.39867654199251    1.45846208924920    0.01690928046539
24
 energy: -25.259350338226 gnorm: 0.001911444157 xtb: 6.3.3 (4ae9cef)
C        -2.93485301555211    1.94215723863388    0.24548994380615
C        -2.37252508197931    0.79503699348855    0.57624661422883
C        -2.17184177555038   -0.34802281622627   -0.36719191756127
C        -0.69036864818128   -0.58383896029724   -0.69051548926968
C         0.10683557739021   -1.09522007016505    0.50889648375886
C         1.57087961990753   -1.41328123893418    0.17610073455974
C         2.55391201974877   -0.29789792763941    0.53578785323945
C         2.34377653297987    0.98954914252544   -0.24989623138615
H        -3.30831567028345    2.12206982528352   -0.74963597258651
H        -3.05914330745040    2.74322916664639    0.95392369661079
H        -2.01691164573790    0.64088329187638    1.58592907276524
H        -2.70794873020684   -0.14424013343963   -1.29720822148835
H        -2.58897683129567   -1.25863271524334    0.07335817412550
H        -0.62555954977133   -1.32294710140202   -1.49379614538462
H        -0.26095040608483    0.34698544867557   -1.06284264856632
H         0.07788458525434   -0.36100973792032    1.31525691911067
H        -0.38290860512686   -2.00140373990595    0.87562404625680
H         1.66209308703181   -1.64313937600892   -0.88818460496900
H         1.87329723124304   -2.30817856926830    0.72643458533207
H         2.47564841321543   -0.08423979161582    1.60491795527794
H         3.56786783394886   -0.66284516827891    0.35015943024528
H         2.35011715587861    0.78960791902202   -1.31960659190046
H         3.14033370472549    1.69843943560470   -0.03095170981289
H         1.39765550589642    1.45694088458893    0.01165502360790
24
 energy: -25.259360157528 gnorm: 0.001618308981 xtb: 6.3.3 (4ae9cef)
C        -2.93098227007064    1.94158550675131    0.24457698814538
C        -2.37394862389115    0.79262147111307    0.57776272594057
C        -2.17506041482424   -0.35199979277722   -0.36393678096004
C        -0.69488896643051   -0.58929981899577   -0.69251080811624
C         0.10640036649453   -1.09359319172324    0.50710385211000
C         1.57018555227746   -1.41040498996717    0.17106387445688
C         2.55298389020771   -0.29694043586238    0.53750815525831
C         2.34559604815139    0.99214233688522   -0.24631042873237
H        -3.29648261921098    2.12480591359284   -0.75263466827006
H        -3.04549233234723    2.74704057262791    0.95022169863615
H        -2.01865718949886    0.63947531446410    1.58800082226499
H        -2.71474550528486   -0.15072495519100   -1.29227428139367
H        -2.58958234648723   -1.26162995428858    0.08090382892761
H        -0.63367449316026   -1.33312562573804   -1.49166428566587
H        -0.26640751301350    0.33931503766122   -1.07151932232574
H         0.07831861607878   -0.35469904763223    1.30910698200799
H        -0.38078186681081   -1.99842701704876    0.88008410245815
H         1.66052270978395   -1.63250701020912   -0.89496138356985
H         1.87315218225445   -2.30888284204104    0.71486469941570
H         2.47072287960439   -0.08584778885844    1.60681302854619
H         3.56730259084831   -0.66188272205399    0.35448336669694
H         2.36222376765799    0.79496406790025   -1.31647208898019
H         3.13788600275789    1.70278128482823   -0.01809925551032
H         1.39540753491346    1.45523568656287    0.00784017865949
24
 energy: -25.259366636651 gnorm: 0.000662600134 xtb: 6.3.3 (4ae9cef)
C        -2.92581697928471    1.94281324495054    0.24314092029358
C        -2.37314764393864    0.79228596182227    0.57822940086655
C        -2.17737039478861   -0.35391778583497   -0.36237045933029
C        -0.69732030663852   -0.59289056387529   -0.69257582182716
C         0.10613519811193   -1.09369164794922    0.50695958491534
C         1.56993350512965   -1.40936391399493    0.16856378207113
C         2.55249078810351   -0.29639831671312    0.53777714382475
C         2.34587173579494    0.99438587218605   -0.24433500316560
H        -3.28891150856768    2.12712346300600   -0.75494234899161
H        -3.04128929939728    2.74918788777216    0.94764943058048
H        -2.02011274518696    0.63815246847582    1.58925584050316
H        -2.71772189216669   -0.15377451786049   -1.29024041590779
H        -2.59087992395203   -1.26275774037555    0.08437172667161
H        -0.63847893662280   -1.33917611157261   -1.48932907650866
H        -0.26842881241683    0.33387870740046   -1.07493888735899
H         0.07795757131844   -0.35304763852487    1.30707310916767
H        -0.37882268870079   -1.99829739584908    0.88274344685650
H         1.65901465782224   -1.62692897638410   -0.89824502243996
H         1.87376844224205   -2.30951061914378    0.70849626529452
H         2.46947391820100   -0.08680646103296    1.60711359655810
H         3.56666370269824   -0.66098042467649    0.35444517255315
H         2.36762486439612    0.79920367002276   -1.31455183929775
H         3.13560468910707    1.70585919353146   -0.01102581526721
H         1.39376005873637    1.45465364461995    0.00668626993848
24
 energy: -25.259371777958 gnorm: 0.000554685045 xtb: 6.3.3 (4ae9cef)
C        -2.91630885843366    1.94546924386716    0.24004091601765
C        -2.37253338031199    0.79180482297201    0.57924453252932
C        -2.18022280363949   -0.35669572326038   -0.35931284992884
C        -0.70087471100924   -0.59947694746602   -0.69256177351792
C         0.10563632934884   -1.09471950129857    0.50714646474621
C         1.56948674765623   -1.40702373298553    0.16404318175705
C         2.55215213358449   -0.29544144836465    0.53772940362702
C         2.34530852080003    0.99806258452649   -0.24077185246924
H        -3.27761678494057    2.12966195274148   -0.75912510483772
H        -3.03117065505505    2.75443390148917    0.94205987761183
H        -2.02569704012086    0.63564336199870    1.59217117503998
H        -2.72128519916268   -0.15785882672590   -1.28674561679770
H        -2.59378438710763   -1.26375879556682    0.09023329960724
H        -0.64610521748555   -1.35008988570336   -1.48541053653970
H        -0.27151618466090    0.32458507624575   -1.08067222720493
H         0.07779144026704   -0.35124326440151    1.30452726386994
H        -0.37564754835160   -1.99932846893430    0.88742123906855
H         1.65635377697304   -1.61755102073682   -0.90413871179871
H         1.87526743763552   -2.30986097471763    0.69775706843865
H         2.46843145658601   -0.08904599176014    1.60747208456170
H         3.56635193386033   -0.65901915979685    0.35317165373062
H         2.37561282729944    0.80713749680948   -1.31148074439562
H         3.13075303558192    1.71111379176598    0.00155179358657
H         1.38961513068638    1.45320350930227    0.00560046329805
24
 energy: -25.259373882533 gnorm: 0.000473395137 xtb: 6.3.3 (4ae9cef)
C        -2.91155598136301    1.94654787193545    0.23826008745365
C        -2.37176657294375    0.79171933513966    0.57949549713537
C        -2.18153231515379   -0.35812460690015   -0.35787196250903
C        -0.70261523440759   -0.60202631342605   -0.69207348525853
C         0.10583651982030   -1.09518230757485    0.50713773341229
C         1.56953747435500   -1.40650621549130    0.16217986401396
C         2.55160512043357   -0.29497271646304    0.53745821095329
C         2.34384986144613    0.99969210234275   -0.23881508072900
H        -3.26963329350620    2.13100174279040   -0.76202046229518
H        -3.02666387754882    2.75615235067118    0.93928889899217
H        -2.02685633717330    0.63537132559609    1.59306239564305
H        -2.72305403715248   -0.15968332277387   -1.28520427712264
H        -2.59538130818943   -1.26446715739720    0.09302983765167
H        -0.64928776808291   -1.35420958059960   -1.48349223310170
H        -0.27331237773638    0.32112372514539   -1.08252119287766
H         0.07815310771778   -0.35084109687662    1.30376869623038
H        -0.37409807197178   -1.99984856301042    0.88893047433462
H         1.65545718892492   -1.61428260092510   -0.90664429133578
H         1.87638934627948   -2.31049448416303    0.69337419925145
H         2.46830082822865   -0.09043396162775    1.60761651621842
H         3.56591563226944   -0.65770208121835    0.35178768354250
H         2.37696580472453    0.81106289432610   -1.30982883005019
H         3.12717684461553    1.71394262029131    0.00676105417171
H         1.38656744641418    1.45216304020903    0.00627166627516
