54
 energy: -101.625355061420 gnorm: 0.114920311913 xtb: 6.3.3 (4ae9cef)
C         1.02987600000000    2.00039200000000   -1.70451800000000
C         1.29649900000000    3.32739700000000   -2.04284300000000
C         1.60353600000000    4.25290900000000   -1.04858300000000
C         1.63963800000000    3.85501700000000    0.28576500000000
C         1.37119400000000    2.52926200000000    0.62822100000000
C         1.07209000000000    1.58230300000000   -0.36366800000000
C         0.77223500000000    0.14614800000000    0.03563000000000
C        -0.74477900000000   -0.14382100000000   -0.11324000000000
C        -1.43071500000000   -0.27729700000000    1.23406300000000
C        -1.32751200000000   -1.43426000000000    2.01932700000000
C        -1.96187400000000   -1.51174500000000    3.26077100000000
C        -2.70232900000000   -0.43301700000000    3.73719100000000
C        -2.80721100000000    0.72688300000000    2.97462900000000
C        -2.17298300000000    0.80667700000000    1.73407000000000
N        -0.82618300000000   -1.33249800000000   -0.96423300000000
C        -1.93685200000000   -1.80550200000000   -1.63395800000000
C        -3.20861200000000   -1.15849100000000   -1.35865000000000
C        -3.69345300000000   -0.06830700000000   -2.04790800000000
Br       -2.77983000000000    0.81514400000000   -3.48560700000000
S        -5.20767200000000    0.46430500000000   -1.49373800000000
C        -5.28190500000000   -0.79104900000000   -0.33447700000000
C        -4.16138100000000   -1.59241500000000   -0.37532400000000
O        -1.87020000000000   -2.73877400000000   -2.42697200000000
C         0.48561700000000   -1.78084100000000   -1.40195800000000
C         0.76144500000000   -3.20464400000000   -0.85070600000000
O         0.89474800000000   -4.13889300000000   -1.81507200000000
O         0.85671500000000   -3.51918700000000    0.32923900000000
N         1.43040500000000   -0.84508600000000   -0.81765600000000
C         2.77406300000000   -0.98637900000000   -1.09783000000000
C         3.71117300000000   -0.18399900000000   -0.32443900000000
C         4.58642600000000    0.73192700000000   -0.86851300000000
Br        4.71169700000000    1.17098100000000   -2.73221900000000
S         5.56136500000000    1.50903000000000    0.28623800000000
C         4.86845100000000    0.60268600000000    1.55904700000000
C         3.90336300000000   -0.26726300000000    1.10042700000000
O         3.17079900000000   -1.78772200000000   -1.93922000000000
H         0.79848300000000    1.29606800000000   -2.50127000000000
H         1.27096800000000    3.63819800000000   -3.08450200000000
H         1.81735500000000    5.28498500000000   -1.31438200000000
H         1.88139500000000    4.57852700000000    1.06044100000000
H         1.40695500000000    2.24142300000000    1.67730300000000
H         1.11834400000000   -0.03669200000000    1.05956200000000
H        -1.24232500000000    0.66087800000000   -0.66747700000000
H        -0.75726600000000   -2.29356000000000    1.67754300000000
H        -1.87624300000000   -2.41777200000000    3.85610800000000
H        -3.19610200000000   -0.49636800000000    4.70347800000000
H        -3.38426800000000    1.57049600000000    3.34531400000000
H        -2.27070200000000    1.72460400000000    1.15609600000000
H        -6.14012500000000   -0.88437400000000    0.31718000000000
H        -4.01717200000000   -2.44477300000000    0.27867600000000
H         0.56738600000000   -1.76511300000000   -2.49483800000000
H         1.06745700000000   -4.97617200000000   -1.33942700000000
H         5.20697400000000    0.74424700000000    2.57651100000000
H         3.36104500000000   -0.94447200000000    1.75039900000000
54
 energy: -101.638301605655 gnorm: 0.048088297545 xtb: 6.3.3 (4ae9cef)
C         1.04064962066523    1.99217393362007   -1.69445218802816
C         1.30098910513907    3.31185442377285   -2.03234180141607
C         1.60437739468019    4.23725175854277   -1.04630823141743
C         1.64012033637907    3.84036138109097    0.28066835370490
C         1.38141375025845    2.52058726151634    0.61984643079546
C         1.08657512787234    1.57974648840711   -0.36393461365486
C         0.76894999286072    0.14958158049985    0.03085657310437
C        -0.74864334212537   -0.14292490751722   -0.11659795454059
C        -1.43750140708553   -0.28074489764115    1.22799449588647
C        -1.32913640580315   -1.43067055569803    2.00594926904674
C        -1.95760696624079   -1.50671720653149    3.24196977456199
C        -2.69461097316910   -0.43525361898762    3.72081110683730
C        -2.79835107043737    0.71820000037881    2.96048411580260
C        -2.17452732556230    0.79431277816175    1.72433448980148
N        -0.81783622112116   -1.33207885926529   -0.96439816571154
C        -1.91946182892208   -1.80807086042816   -1.62002644331671
C        -3.20325438371747   -1.14196114413256   -1.32952178676269
C        -3.67980570361452   -0.06245275646342   -2.02481299126067
Br       -2.77754806825501    0.81545022336607   -3.44437196762059
S        -5.22086290183333    0.46055716891306   -1.50197644879572
C        -5.27006170693656   -0.79213830807031   -0.33524556818063
C        -4.15084888428061   -1.56999079229537   -0.35990165347446
O        -1.84658306653388   -2.73406062480659   -2.40348952565449
C         0.48729359732366   -1.78826642650058   -1.39647573599349
C         0.76607796686699   -3.20098167461917   -0.85380947661354
O         0.89665801652057   -4.12340488899826   -1.80600657224785
O         0.84850680105319   -3.47989315703502    0.31672443852990
N         1.41975775422924   -0.84375345896851   -0.81928965703680
C         2.75187531100246   -0.99030497594412   -1.08818430876463
C         3.68659315744726   -0.15717412670931   -0.31143219972512
C         4.56427637413496    0.73788398685922   -0.86559874157780
Br        4.69180349432504    1.17771247913771   -2.70092497876137
S         5.56610877380854    1.51112110430165    0.28193178090563
C         4.85678704555446    0.60023152944749    1.54720720942405
C         3.88332899340573   -0.24044542810050    1.09733926487760
O         3.14258843660771   -1.79184140182135   -1.91636776651534
H         0.80330386519663    1.28712145174666   -2.48083846178202
H         1.26883310105277    3.61887380623454   -3.06891297328956
H         1.81294819039079    5.26549252917898   -1.31139282089864
H         1.87470476713419    4.56039425685899    1.05358339518378
H         1.40747197910005    2.22831536933031    1.66223368652811
H         1.08646113881268   -0.01949987831911    1.06780775756373
H        -1.22646953561678    0.68459134426257   -0.65867596170755
H        -0.75330141874758   -2.27826365371623    1.65830819311115
H        -1.86921041541801   -2.40738955479091    3.83502413228826
H        -3.18508463455060   -0.49768357193853    4.68392544219413
H        -3.36936796617479    1.55996525159966    3.32992859003009
H        -2.26224392067654    1.70692051726702    1.14735098716234
H        -6.12658046294328   -0.89317490996076    0.30429736064041
H        -4.00632380305425   -2.42476146192198    0.27789945492418
H         0.56506097746249   -1.81102277891499   -2.49232406313648
H         1.06595370760883   -4.97407000937304   -1.36098363969792
H         5.20125599121084    0.72893799308949    2.55661518018386
H         3.35450064471592   -0.92864172811431    1.73550621449423
54
 energy: -101.642473642259 gnorm: 0.015598835813 xtb: 6.3.3 (4ae9cef)
C         1.05056337686784    1.97443886540524   -1.68768584203646
C         1.30922028724431    3.29011314831403   -2.02723832132204
C         1.60998087425721    4.21750654056745   -1.04512412221407
C         1.64753028248355    3.82251907795883    0.28010070550965
C         1.39201925607281    2.50628839388628    0.62004433684767
C         1.09709493175930    1.56952984916452   -0.36014867575650
C         0.76788554362385    0.14611383413134    0.03285299063790
C        -0.75105228218244   -0.13607063724475   -0.12853989022554
C        -1.44188272230622   -0.28080905704476    1.21082686014558
C        -1.32584859445209   -1.43039081047521    1.98084821918960
C        -1.94993777792132   -1.50805338009466    3.21489719425227
C        -2.68659759566483   -0.44088484859973    3.69792247141781
C        -2.79323173230600    0.71189292576945    2.94043873743563
C        -2.17595972076922    0.78944921315261    1.70574900975267
N        -0.81312196215331   -1.32390739929778   -0.96906050164571
C        -1.90718803515319   -1.80965163111160   -1.60744115501092
C        -3.19735506511735   -1.12599915169071   -1.30001899255983
C        -3.66357284821611   -0.05524638677727   -2.00521167571011
Br       -2.75673467196394    0.83295061896833   -3.39274753012043
S        -5.22741179539449    0.46006861371810   -1.49888279871279
C        -5.26600745651616   -0.79486028059724   -0.32912737188040
C        -4.14202739846864   -1.55279566249492   -0.33774764359030
O        -1.83548636517424   -2.74004133035351   -2.37730562533904
C         0.48655311365908   -1.78957127198879   -1.39246569437995
C         0.76410303535877   -3.19676258239409   -0.84492425887100
O         0.90038314778405   -4.10055985925078   -1.79428501952562
O         0.84180385644716   -3.44383746524710    0.32820345956886
N         1.41052744036528   -0.84191400175068   -0.81910684317880
C         2.73251912251848   -0.99207833303153   -1.08204685347062
C         3.66033867031357   -0.12824183870230   -0.30346767863571
C         4.53568152031668    0.75360060796320   -0.86967345388361
Br        4.65201216144690    1.19935347056475   -2.68281917150737
S         5.56234049963434    1.51768876741177    0.28023241033361
C         4.84339272403546    0.60290732856276    1.54323970375480
C         3.86111318173772   -0.21663026917480    1.09661673438070
O         3.12504006935000   -1.80857244749060   -1.88760716602685
H         0.81213197913488    1.26431615721510   -2.46516876285701
H         1.27140355351037    3.59308169831906   -3.06162773991501
H         1.81021127224925    5.24433803299591   -1.31056838130471
H         1.87396744728783    4.54170490619276    1.05253097234779
H         1.41659351127407    2.20742526743905    1.65786146649862
H         1.06180890680328   -0.01636541884900    1.07946275699142
H        -1.21396893222949    0.70634499745921   -0.66340630471664
H        -0.74414650822069   -2.26728832113393    1.62383271907528
H        -1.85637497266015   -2.40605912427094    3.80630321449803
H        -3.17077448217256   -0.50355839947484    4.66118544632532
H        -3.35849982318475    1.55311403627574    3.31210089039638
H        -2.26070941612505    1.69671548574244    1.12546717759977
H        -6.12462987974509   -0.90023931415068    0.30096523853997
H        -3.98676167359439   -2.40098682310899    0.30071679706113
H         0.56019132294001   -1.83768477812129   -2.49129865506730
H         1.07089315648147   -4.97135219001236   -1.39251245890028
H         5.19549841703072    0.72154820489566    2.54767330084397
H         3.32648204970345   -0.90259602813856    1.72718677496033
54
 energy: -101.643846891147 gnorm: 0.009932054721 xtb: 6.3.3 (4ae9cef)
C         1.06289108711532    1.95716893855390   -1.68441093978217
C         1.31989168091066    3.27193278097792   -2.02628212140743
C         1.61761901867536    4.20149176914628   -1.04464554538262
C         1.65782326722013    3.80976999076230    0.28205672818068
C         1.40511177061322    2.49402429704962    0.62497447901350
C         1.10862115026765    1.55850856429414   -0.35520091379191
C         0.76734595082496    0.14013250621053    0.03354432472939
C        -0.75169048001665   -0.12869885534029   -0.14349607506254
C        -1.44702953225442   -0.27727205925769    1.18953939985784
C        -1.32292284949171   -1.43018240051958    1.95318839426807
C        -1.94277220904459   -1.51238550215406    3.18824876883508
C        -2.67989578815889   -0.44722287838394    3.67634246961562
C        -2.79371278443262    0.70813649936910    2.92282845727549
C        -2.18244127807550    0.79045445500711    1.68574150993770
N        -0.81278824429365   -1.31549629409174   -0.97815820577952
C        -1.90790667914730   -1.81401284307024   -1.59663999034067
C        -3.19556124722712   -1.11848723222196   -1.27827402852440
C        -3.65309064159202   -0.04747934136631   -1.98633703341706
Br       -2.73104807043204    0.85804967335866   -3.34694824915661
S        -5.22758020309241    0.46428282339829   -1.48363656525447
C        -5.26698582514896   -0.79338395687877   -0.31411319473558
C        -4.13962684805186   -1.54530121161322   -0.31592127396415
O        -1.84539601420729   -2.75460544433140   -2.35518562491784
C         0.48497848965214   -1.78927521857925   -1.39356812207559
C         0.76424377794222   -3.19547224721628   -0.83630681377464
O         0.90406451138205   -4.09074610046739   -1.78531451338268
O         0.83398236738243   -3.42583894421501    0.34201081458013
N         1.40616991986905   -0.84274839178265   -0.82005079411716
C         2.72562499606412   -0.99550624085883   -1.07487285954292
C         3.64299890702965   -0.10906589615162   -0.30018657094640
C         4.51111027478507    0.77344112255069   -0.87308368532805
Br        4.60697109410311    1.23331391087027   -2.67940990894268
S         5.54719696207528    1.53411588539061    0.28198778381306
C         4.83096203156936    0.61344074192301    1.54525466854361
C         3.84330284542012   -0.19911633431082    1.09930855571707
O         3.12759037403968   -1.82638631607330   -1.86130114348165
H         0.82340604717800    1.24175043698215   -2.45663061972889
H         1.28140051417570    3.57123910832777   -3.06138177903235
H         1.81444068612245    5.22789411935194   -1.31196923376283
H         1.88289529808106    4.52984272752245    1.05362535103631
H         1.42975202420236    2.19145851356929    1.66164719781740
H         1.04656248989423   -0.02701842673990    1.08337471613396
H        -1.20351211471474    0.71964067283532   -0.67807133494960
H        -0.73614286028585   -2.25993131993560    1.58818833205763
H        -1.84404194202417   -2.41137702312039    3.77716974415149
H        -3.15929452950998   -0.51336246183985    4.64112320560211
H        -3.35786694728654    1.54775621484209    3.29885137111322
H        -2.26795787414431    1.69635294857291    1.10374645794387
H        -6.13078688075584   -0.90200848049084    0.30849397804238
H        -3.97510526273639   -2.38695926271137    0.32938335221722
H         0.56087312150982   -1.84662977900751   -2.49224272451671
H         1.07669060466150   -4.97334087173927   -1.41194286584679
H         5.19110454506753    0.72553197244941    2.54748973963254
H         3.29953429829064   -0.88041833884638    1.72746393083077
54
 energy: -101.644816279509 gnorm: 0.009973510844 xtb: 6.3.3 (4ae9cef)
C         1.07872549353846    1.93969966230489   -1.68138458894295
C         1.33780895466945    3.25317107038472   -2.02658181892921
C         1.63395479301679    4.18407347788852   -1.04481934540453
C         1.67620791213537    3.79653339833509    0.28388103999769
C         1.42175819998649    2.48162938615527    0.63119629906302
C         1.12165064855859    1.54694030861920   -0.34930899979769
C         0.76776845536031    0.13213177353356    0.03198136151419
C        -0.75074282597014   -0.12060143448536   -0.16285653589920
C        -1.45360688436709   -0.27004294990456    1.16313195198471
C        -1.32101491480782   -1.42761392801064    1.91986486970676
C        -1.93706035779936   -1.51777755272890    3.15598843344836
C        -2.67620877582199   -0.45561042960812    3.64955764493904
C        -2.80008332298465    0.70316856642802    2.90146466043716
C        -2.19343846243248    0.79390976146139    1.66183204300940
N        -0.81345893498291   -1.30670049579811   -0.99304115237686
C        -1.91618366631865   -1.82251486174102   -1.58097644199939
C        -3.19624900793428   -1.11481156530706   -1.25256587213641
C        -3.64325440284817   -0.03723720315314   -1.95694328154867
Br       -2.70559037281737    0.88495448482924   -3.29499483513505
S        -5.22170152391795    0.47700315648576   -1.45173918782327
C        -5.26820055326055   -0.78738607236255   -0.28824901225062
C        -4.14358104196005   -1.54410366282907   -0.29252136841152
O        -1.87041619007894   -2.77861503224861   -2.32340215474190
C         0.48310350768260   -1.79087778437190   -1.39831276935703
C         0.75792217232771   -3.19922135011413   -0.83047722419115
O         0.90982215448142   -4.08812377001316   -1.77967041616831
O         0.82416252434806   -3.41742387760302    0.35116771859629
N         1.40413845110426   -0.84659191319188   -0.82346757575531
C         2.72444795197028   -1.00096185773088   -1.06477515554180
C         3.62760214410706   -0.09189364960489   -0.29741792713330
C         4.48153139733786    0.80118312139096   -0.87363005135415
Br        4.55244962817972    1.27947572711037   -2.67709868249544
S         5.51703116007131    1.56728399153612    0.28656861495983
C         4.81187636526642    0.63552346100270    1.54953496294476
C         3.83084493478932   -0.18520508850070    1.10283634019146
O         3.14105893331428   -1.84591670466647   -1.82979097808266
H         0.84030011314905    1.21832655208055   -2.44909775191362
H         1.30114788365315    3.54870152470575   -3.06324557778190
H         1.82744435984676    5.21066820789258   -1.31452008832582
H         1.90191871755362    4.51855043924163    1.05390516522474
H         1.44806310093529    2.17640690797324    1.66754938919993
H         1.03326455168158   -0.04615960191584    1.08299468757713
H        -1.18878856007320    0.73186899049895   -0.70101836033240
H        -0.72982295327636   -2.25063923005165    1.54628120949734
H        -1.83183127729437   -2.41909905525285    3.74121973440541
H        -3.14922660627907   -0.52689617230301    4.61729989574833
H        -3.36565908150937    1.53945680143920    3.28361796741841
H        -2.28367154189353    1.69921926222441    1.07868198257009
H        -6.13677963997766   -0.89678959258235    0.32877767214391
H        -3.97346383600900   -2.38158901692757    0.35815797498593
H         0.56580771971195   -1.85318286969332   -2.49526573361560
H         1.08951177407489   -4.97793300248829   -1.43068970274837
H         5.17733717464674    0.74578826761754    2.55043772421397
H         3.28137655711623   -0.86414757595007    1.72993424641672
54
 energy: -101.645569637917 gnorm: 0.010822548116 xtb: 6.3.3 (4ae9cef)
C         1.09684156211669    1.92620249607709   -1.67941415691031
C         1.36033435045154    3.23813679860243   -2.02719181873414
C         1.65666629559729    4.16887046051823   -1.04489187035025
C         1.69920202100318    3.78400556993015    0.28492612465260
C         1.44005154308625    2.47012921536228    0.63556722300608
C         1.13575798416217    1.53659654393433   -0.34526796220856
C         0.76934519866826    0.12372254599306    0.02771755874793
C        -0.74839232568821   -0.11384325260751   -0.18284138868439
C        -1.46084338149789   -0.26210073558540    1.13675898748400
C        -1.32182513712745   -1.42325180454036    1.88823412249793
C        -1.93520752038838   -1.52184316475488    3.12474617156551
C        -2.67746961462508   -0.46323113481461    3.62223649048321
C        -2.81122923921360    0.69751024245060    2.87831849304626
C        -2.20708830471824    0.79695498932245    1.63718576755520
N        -0.81372477534095   -1.30017496695924   -1.01107983471288
C        -1.92793920968741   -1.83482010617815   -1.56134836490964
C        -3.19828944105107   -1.11615687547478   -1.22496385045818
C        -3.63405660584255   -0.02609348604041   -1.91797214630025
Br       -2.68873288853816    0.90443586886268   -3.24526847011711
S        -5.20920624436709    0.49742444709986   -1.40591935075345
C        -5.26793635928583   -0.77846678537452   -0.25527640738193
C        -4.15116973756950   -1.54793129064377   -0.26924128964850
O        -1.90140482371641   -2.80943226072817   -2.28262246064820
C         0.48210403198450   -1.79474664971427   -1.40666854010385
C         0.75498584919986   -3.20510938497223   -0.83146320163732
O         0.91479113536143   -4.09088858669295   -1.78148769252013
O         0.81155573152918   -3.42015080875787    0.35121843120124
N         1.40467278552137   -0.85310458866715   -0.82982859021543
C         2.72803730582200   -1.00811991962024   -1.05463022438694
C         3.61595704221930   -0.07970617669820   -0.29467975058274
C         4.44870328032451    0.83376560691575   -0.86987758647145
Br        4.50087998669929    1.32582127895126   -2.67204884407255
S         5.47243884246428    1.61655365368533    0.29305901045476
C         4.78839296331952    0.66645079024440    1.55445083042570
C         3.82383926681707   -0.17436723914630    1.10648435717617
O         3.16000517697663   -1.86281697529755   -1.80054217405666
H         0.85852470433841    1.20120568801295   -2.44423899593928
H         1.32802952318699    3.53098154156465   -3.06517265802210
H         1.85170878775189    5.19505323656307   -1.31632631477506
H         1.92889651393204    4.50712392341332    1.05325607641241
H         1.46668101645669    2.16400417220221    1.67208633992257
H         1.02420180651049   -0.06718491576596    1.07871546747505
H        -1.17218004872957    0.74183598079693   -0.72625220146115
H        -0.72672393516250   -2.24080048612035    1.50885359165803
H        -1.82422745792557   -2.42552733974701    3.70601181122565
H        -3.14611903659108   -0.53995962226170    4.59206587715216
H        -3.38124035199621    1.52905664868618    3.26518870090151
H        -2.30317987163559    1.70251900962927    1.05439159769443
H        -6.13936456747197   -0.88607828964782    0.35899611601959
H        -3.98425474838592   -2.38903797978491    0.37807591702210
H         0.57425343601473   -1.85904294547062   -2.50152384118554
H         1.09832999743186   -4.98398693774904   -1.44785022830044
H         5.15571553913820    0.77976787669006    2.55472918889634
H         3.28090494847074   -0.86015287569181    1.73261696287274
54
 energy: -101.646355013332 gnorm: 0.011613634182 xtb: 6.3.3 (4ae9cef)
C         1.11663891206267    1.91703798349465   -1.67893162207860
C         1.38897793788758    3.22677657010867   -2.02783376683435
C         1.68952289637971    4.15513528087997   -1.04451881258796
C         1.72936099468110    3.77066984418382    0.28539643578879
C         1.46044984772065    2.45851714474559    0.63751041387570
C         1.15063775559788    1.52742069957094   -0.34396920492063
C         0.77252717975145    0.11540281631565    0.02035980206893
C        -0.74396536174135   -0.10843112061546   -0.20343742496361
C        -1.46761073699593   -0.25448024091079    1.11010470629964
C        -1.32477227474220   -1.41769546210387    1.85837753334652
C        -1.93848180661640   -1.52448284062220    3.09357895326569
C        -2.68616497200681   -0.47014831952238    3.59213940346852
C        -2.82807075827333    0.69080687731716    2.85046315799295
C        -2.22255318032407    0.79861637655742    1.61003041950199
N        -0.81308757977264   -1.29544449460759   -1.03231411250190
C        -1.94121054142508   -1.85167572937896   -1.53571989962821
C        -3.20080185609383   -1.12255719005283   -1.19311630521106
C        -3.62372463584348   -0.01392006135724   -1.86662984077174
Br       -2.67816546732352    0.91836821305792   -3.19337140497831
S        -5.18912495202629    0.52485013727905   -1.34341492140849
C        -5.26517178143535   -0.76809672840932   -0.21319687946832
C        -4.16112533847106   -1.55690492159355   -0.24405475968730
O        -1.93453982814014   -2.84818131710620   -2.22861912121811
C         0.48157292278594   -1.80024949610113   -1.41896365984086
C         0.74633407960453   -3.21362777358842   -0.84055838550630
O         0.92021977018636   -4.09614215538276   -1.79288351521988
O         0.79615792023154   -3.43216606988112    0.34100796684088
N         1.40740515917529   -0.86146635654609   -0.83977740102684
C         2.73495435406989   -1.01724301042087   -1.04537521209523
C         3.60656532394206   -0.07155157589644   -0.29166741957886
C         4.41017268168346    0.87147368299530   -0.86264270598196
Br        4.45099953674034    1.37039360837802   -2.66456364270964
S         5.41057555818449    1.68283035853588    0.30103514129114
C         4.75785626181510    0.70772404506970    1.55998483198248
C         3.82041635208006   -0.16466998257433    1.11012164012102
O         3.18183593877827   -1.88067248966545   -1.77185457125535
H         0.87731778955928    1.19124826823587   -2.44278992180088
H         1.36244530933061    3.51857179399998   -3.06647495997443
H         1.89063912859098    5.18038484029809   -1.31631722277694
H         1.96510660939251    4.49340711027580    1.05263068611990
H         1.48587244743542    2.15252075261852    1.67433057020234
H         1.01955527355447   -0.08777468897787    1.07053981978240
H        -1.15299965005599    0.75035236541762   -0.75226631426592
H        -0.72616469438511   -2.23118447807129    1.47647906566212
H        -1.82250748551095   -2.42980023859386    3.67141570321308
H        -3.15290739964277   -0.55158568395334    4.56278119394866
H        -3.40508217008550    1.51676622570331    3.23955679138904
H        -2.32504556430089    1.70478913224921    1.02861939100911
H        -6.13703658882409   -0.87136120476014    0.40160233365693
H        -4.00617094515937   -2.41034138244361    0.39028029092278
H         0.58393831198509   -1.86491627621723   -2.51195476821005
H         1.10795089196854   -4.98933407398849   -1.46663999269500
H         5.12288990703708    0.82972515680091    2.56035867867799
H         3.29759151698404   -0.86768292074523    1.73515383876912
54
 energy: -101.647082768009 gnorm: 0.011595989038 xtb: 6.3.3 (4ae9cef)
C         1.13279417960721    1.91521403943935   -1.68079639493673
C         1.41746392023586    3.22260356536076   -2.02819871031317
C         1.72705578023092    4.14625661965121   -1.04344142669269
C         1.76142021522195    3.75896677714282    0.28541810478075
C         1.47898766839422    2.44896681988884    0.63588096445620
C         1.16281660791337    1.52174991633801   -0.34684738275464
C         0.77668453472329    0.10970862883516    0.01119334562666
C        -0.73851096947918   -0.10521988050272   -0.21969411866973
C        -1.47154993912900   -0.24994324750560    1.08941166034935
C        -1.32874274441188   -1.41301904710627    1.83770371473942
C        -1.94749565666580   -1.52526650884859    3.06942981226834
C        -2.70284116260051   -0.47512925563081    3.56486661088981
C        -2.84798355871123    0.68424559428990    2.82244986113554
C        -2.23581829234187    0.79764530001226    1.58567458438915
N        -0.81151533322605   -1.29264007153884   -1.05176189557663
C        -1.95058349880768   -1.86918572727397   -1.50908494253952
C        -3.20233335867286   -1.13314408267894   -1.16329256162815
C        -3.61386695836382   -0.00498742615555   -1.81346576037122
Br       -2.67460218536480    0.92575577406547   -3.14737236630757
S        -5.16523147482678    0.55040256444010   -1.27582645226772
C        -5.25905068752648   -0.76157671776884   -0.16963190274192
C        -4.16922178178528   -1.56976212165927   -0.22122614595689
O        -1.95711146493036   -2.88694818420450   -2.17007332285996
C         0.48207619813278   -1.80458227260608   -1.43282189941507
C         0.74073144086012   -3.21987710124845   -0.85769158492968
O         0.92328298436187   -4.10021953382932   -1.81298808375252
O         0.77675353380961   -3.44952312895064    0.32178214737709
N         1.41171017653946   -0.86873359011427   -0.85119780258778
C         2.74302107838707   -1.02685002310348   -1.03937206337234
C         3.60128420401568   -0.06861277871415   -0.28892057442503
C         4.37441708109288    0.90363397373220   -0.85508320881320
Br        4.41490226678934    1.39874101624259   -2.65833667532767
S         5.34421711743825    1.74903830911345    0.30760587704386
C         4.72533475053058    0.75056219709745    1.56461652683983
C         3.81984563907631   -0.15578582233698    1.11281647128842
O         3.19972524915387   -1.89704922840655   -1.74985194229577
H         0.88984844184103    1.19260131187158   -2.44627255905877
H         1.39685671883258    3.51567155669414   -3.06648895614764
H         1.94027909133839    5.16962115110368   -1.31375353310555
H         2.00513982201633    4.47874157377524    1.05298171673990
H         1.50156944353940    2.14342726988635    1.67282869649841
H         1.02087080218907   -0.10093495558247    1.06025896905022
H        -1.13653534338374    0.75634045564442   -0.77123789845908
H        -0.72655396915036   -2.22467750646253    1.45824403017520
H        -1.82933026044035   -2.43090047446892    3.64563229810084
H        -3.17298644397655   -0.55951173459910    4.53356369321362
H        -3.43363012475221    1.50519864769882    3.20921026094553
H        -2.34273394879809    1.70445971251278    1.00610535078324
H        -6.12841600804949   -0.85961917824993    0.44935269265193
H        -4.03147014632932   -2.44128416670267    0.39307020778887
H         0.59244697683002   -1.86748985591476   -2.52492843421194
H         1.10761873259226   -4.99221326601799   -1.48355464217899
H         5.08307726510915    0.88622618128643    2.56598491961644
H         3.32588639092119   -0.88109106793958    1.73713172495034
54
 energy: -101.647707550574 gnorm: 0.009279445484 xtb: 6.3.3 (4ae9cef)
C         1.14313811780164    1.92092155765815   -1.68483226990931
C         1.44244255097485    3.22610404473281   -2.02782914671057
C         1.76549978599638    4.14284417106736   -1.04108993265956
C         1.79278399827696    3.74998618886501    0.28596212676711
C         1.49477487353076    2.44238638302471    0.63156803824213