62
 energy: -117.711564125366 gnorm: 0.121206191770 xtb: 6.3.3 (4ae9cef)
C        -2.87760700000000   -1.11136900000000   -1.11520000000000
O        -2.09114600000000   -1.04199800000000   -2.22679600000000
C        -2.66799100000000   -1.41420100000000   -3.47444900000000
C        -4.23837100000000   -1.45396800000000   -1.15402700000000
C        -5.00191200000000   -1.51591900000000    0.01432300000000
C        -4.41519900000000   -1.23236900000000    1.23961200000000
C        -3.06676700000000   -0.88677900000000    1.28919600000000
C        -2.26993100000000   -0.81400900000000    0.11926500000000
C        -0.80915400000000   -0.42496200000000    0.31039300000000
C         0.29713300000000   -0.49515300000000   -0.78538600000000
C         0.86763800000000   -1.88762800000000   -1.03962100000000
C         0.80976800000000   -2.39096800000000   -2.35546400000000
C         1.29656400000000   -3.65701800000000   -2.67513400000000
C         1.85644200000000   -4.44824000000000   -1.68337000000000
C         1.94911400000000   -3.96527100000000   -0.37804000000000
C         1.47878100000000   -2.68415200000000   -0.05144300000000
O         1.55998400000000   -2.15670700000000    1.21127700000000
C         2.57136900000000   -2.69791000000000    2.06180100000000
N         1.31733300000000    0.45732000000000   -0.30070800000000
C         2.30592000000000    0.90849700000000   -1.16319700000000
C         3.11059800000000    2.02572900000000   -0.72008300000000
C         2.93198300000000    3.34164600000000   -1.10244200000000
Br        1.55669600000000    4.00904700000000   -2.24266700000000
O         3.86297100000000    4.13682000000000   -0.50728700000000
C         4.66400000000000    3.32702500000000    0.23285600000000
C         4.25138800000000    2.02026200000000    0.13155700000000
O         2.49024600000000    0.42628600000000   -2.27754400000000
C         0.83849100000000    1.17220000000000    0.87074500000000
C         1.52114600000000    0.71043800000000    2.19547600000000
O         0.62971600000000    0.35691200000000    3.16352000000000
O         2.72658800000000    0.68122700000000    2.40015800000000
N        -0.60972700000000    0.92134700000000    0.92597400000000
C        -1.32858300000000    1.99878200000000    0.36623200000000
C        -1.42939900000000    3.18130100000000    1.22208300000000
C        -1.81130600000000    4.45595100000000    0.82189700000000
Br       -2.29135600000000    5.04667100000000   -0.93087100000000
O        -1.78088700000000    5.31980800000000    1.87857300000000
C        -1.38042600000000    4.61959300000000    2.96153700000000
C        -1.16832700000000    3.30298700000000    2.62531900000000
O        -1.80779300000000    1.95248300000000   -0.75861900000000
H        -3.02969100000000   -2.44955700000000   -3.45010900000000
H        -3.46262400000000   -0.71703100000000   -3.76752500000000
H        -1.88257000000000   -1.35752600000000   -4.23279100000000
H        -4.74318400000000   -1.67035700000000   -2.08907200000000
H        -6.05366700000000   -1.78393000000000   -0.03957400000000
H        -5.00449000000000   -1.28255500000000    2.15441100000000
H        -2.63196600000000   -0.67800500000000    2.26219900000000
H        -0.50002900000000   -1.10750300000000    1.11130900000000
H        -0.06187700000000   -0.05330600000000   -1.72198000000000
H         0.39544200000000   -1.77986600000000   -3.15498700000000
H         1.24123800000000   -4.01764600000000   -3.69846700000000
H         2.23144300000000   -5.43889400000000   -1.92417500000000
H         2.39277000000000   -4.61748900000000    0.36644300000000
H         2.29364300000000   -3.69788500000000    2.40777300000000
H         3.54925800000000   -2.70550200000000    1.56478800000000
H         2.64871400000000   -2.05678400000000    2.94379500000000
H         5.46827400000000    3.81934000000000    0.76366700000000
H         4.70583100000000    1.16268300000000    0.61338000000000
H         1.03657400000000    2.24481100000000    0.78698900000000
H        -0.28207500000000    0.37270500000000    2.80254600000000
H        -1.30043600000000    5.18265000000000    3.88251700000000
H        -0.85856100000000    2.53793700000000    3.31941500000000
62
 energy: -117.728987882037 gnorm: 0.044760630241 xtb: 6.3.3 (4ae9cef)
C        -2.86928144585587   -1.09291751633042   -1.11733504081980
O        -2.09105724636502   -1.04252923205501   -2.23063854264088
C        -2.66563749293979   -1.41196923676442   -3.47075153632449
C        -4.22265989658380   -1.44499786030663   -1.14990243413704
C        -4.97803901739344   -1.50631826492984    0.00941690329149
C        -4.38869268575275   -1.22326392592604    1.22734225139156
C        -3.04780082083703   -0.87484311986946    1.26971644993883
C        -2.25927808876127   -0.79201960039043    0.11379457407300
C        -0.79122111337931   -0.44016475985055    0.32957815740889
C         0.28639195022488   -0.50716182375219   -0.78711869276158
C         0.85740174829321   -1.88797724856252   -1.04813295490923
C         0.80175967295996   -2.38863774733065   -2.34791955899706
C         1.29089288161130   -3.64493607563002   -2.66726038739872
C         1.85011439555514   -4.43135921171719   -1.67758804304991
C         1.94562342940035   -3.94715035938818   -0.38274418429263
C         1.47320824229314   -2.67399647172478   -0.05842060205186
O         1.56936070393449   -2.14591734336151    1.20454038799482
C         2.56213314326999   -2.69289573600244    2.06065584005000
N         1.30603566745915    0.44281281340283   -0.29758133899243
C         2.27886574240781    0.88896543535624   -1.15608196442314
C         3.09679601705347    2.02147266888594   -0.69579939339710
C         2.92688178604006    3.32643057880979   -1.08343224347413
Br        1.58730038458392    4.03378607705601   -2.19922685072525
O         3.85652677157420    4.12742362916107   -0.52323217275768
C         4.65316138844937    3.32604927875196    0.22060053603525
C         4.24166195427059    2.02816140630322    0.14512787259392
O         2.45950724722466    0.39347151931933   -2.25151587117890
C         0.83621665437703    1.15577425191561    0.87444603402153
C         1.51095976947964    0.67898233596451    2.18793030133047
O         0.63727494433422    0.36112691896691    3.15777193508018
O         2.69262768339797    0.67971324610266    2.37852364601177
N        -0.60761774704639    0.91749776728925    0.92170204287567
C        -1.33424869979348    1.99242684055448    0.35478248249957
C        -1.41839968347814    3.17424783881035    1.22012383236317
C        -1.80487897470287    4.43691367722925    0.81796398915209
Br       -2.28630283273649    5.05283608628078   -0.88374614753539
O        -1.77634801007486    5.30347140448153    1.84747099310987
C        -1.38685502772336    4.60885882967570    2.93688754501545
C        -1.15083165749607    3.30570067788159    2.61783922614646
O        -1.85463063651806    1.93544086597843   -0.73657489954415
H        -3.03686602471232   -2.44125194420125   -3.44392202088410
H        -3.46512509853191   -0.72299472630698   -3.75900186811144
H        -1.86899678367405   -1.34821165270229   -4.21325219672591
H        -4.71879574985362   -1.66819907129221   -2.08291796985871
H        -6.02508980467735   -1.77693487015206   -0.04358257433322
H        -4.97140969029790   -1.27589792205634    2.13922943144743
H        -2.60786961445960   -0.66968642437823    2.23741469274360
H        -0.45803839862498   -1.12470050435801    1.12207410740975
H        -0.09116130492086   -0.09152173277629   -1.72777941917945
H         0.38771211694849   -1.77520606220137   -3.13456096558449
H         1.23865349264006   -4.00504627988271   -3.68596596414824
H         2.22527011852736   -5.41947825760779   -1.91178135619184
H         2.39300861093190   -4.58626551299797    0.36535739401099
H         2.28787254468216   -3.69500289548600    2.40223246079205
H         3.53460882832826   -2.71623905646609    1.56090567922912
H         2.62949993947304   -2.03428576960587    2.92779356609386
H         5.45596376135626    3.81256147836568    0.74276434460655
H         4.69222558168648    1.17932841392767    0.62170271205389
H         1.04487528739945    2.23200119516075    0.79241943013878
H        -0.27194721076382    0.37439433634763    2.79630617178470
H        -1.31370544693421    5.16574182892843    3.85398993538793
H        -0.84760225527939    2.54438781545613    3.30936026834611
62
 energy: -117.734210002551 gnorm: 0.017211800949 xtb: 6.3.3 (4ae9cef)
C        -2.84876640603145   -1.08836170530730   -1.11918065098237
O        -2.08005072270992   -1.04747929437116   -2.23530545378993
C        -2.65873106141335   -1.40657590264371   -3.46930109990784
C        -4.20088071341328   -1.43183747183551   -1.14777692066201
C        -4.95271941452782   -1.49027933950327    0.00774806156490
C        -4.36283507973366   -1.20441783898345    1.22289567690339
C        -3.02365755651680   -0.86372519927279    1.25893742888661
C        -2.24006608992172   -0.79297028426309    0.11201427406230
C        -0.77832398140283   -0.45137741915219    0.34026760025497
C         0.27627245755488   -0.51190850041748   -0.78583930230115
C         0.84539442588872   -1.88292485207550   -1.05379504595570
C         0.78826140619135   -2.38322761710850   -2.34396293047083
C         1.28104708214864   -3.63442468435633   -2.66315590565514
C         1.84495845494241   -4.41390288595480   -1.67263027344999
C         1.94515649893995   -3.92487801247148   -0.38381351179609
C         1.46736627816258   -2.65798667453402   -0.06236213106503
O         1.57671697127131   -2.12349170380963    1.19775931069165
C         2.54971471875708   -2.68031615943139    2.05951869774474
N         1.29483756697292    0.43401229072886   -0.29522572776473
C         2.25910744018325    0.86616009494006   -1.14981147919916
C         3.08218815185277    2.01307451850386   -0.67566836975484
C         2.91724464361240    3.31129095379169   -1.06914912926968
Br        1.59861418359057    4.06815756763606   -2.14989353517983
O         3.84392990897260    4.11667299303977   -0.53160086047996
C         4.64532352456888    3.32383012467473    0.20917871824629
C         4.23181330990273    2.03058473531687    0.15929056853023
O         2.43734259610341    0.35974949240560   -2.23399882703766
C         0.82775813987987    1.14230672875734    0.87928348252397
C         1.50213574513789    0.67287645962921    2.19202136820848
O         0.63885465823767    0.32673721324009    3.14221261216838
O         2.68088232497213    0.64894898550135    2.35175638239240
N        -0.61127184642810    0.90922372035713    0.91943339922772
C        -1.36053145747563    1.97093965181822    0.34863881315509
C        -1.40188360697455    3.16128663145023    1.21213745223758
C        -1.79152483413227    4.41743795970221    0.80505577083617
Br       -2.28959270854756    5.05017103845740   -0.85707875106311
O        -1.77757597047859    5.28407925990702    1.81725963008239
C        -1.38002580790243    4.60174182567035    2.91122187925177
C        -1.13044959722570    3.30439203973722    2.60752576149632
O        -1.92861291258967    1.90009967349243   -0.71184629272565
H        -3.03638206439664   -2.43311809554028   -3.44682349532288
H        -3.46269334957192   -0.72162941133719   -3.75177796348111
H        -1.85658608383906   -1.33562923925260   -4.20181214399261
H        -4.68681365608674   -1.65938758858636   -2.08241771379501
H        -5.99544991996838   -1.76705094665084   -0.04505784037720
H        -4.93797327900594   -1.26029111127204    2.13442824936124
H        -2.57459270327529   -0.65557714517810    2.22022149929383
H        -0.42556890577253   -1.13508857523986    1.12528124954065
H        -0.12157853690930   -0.11335909799399   -1.72440660746623
H         0.36728331314627   -1.76723675178979   -3.11978745367648
H         1.23107975205100   -3.99534935998687   -3.67865037982394
H         2.22211913724351   -5.40030844620350   -1.89965719588939
H         2.40022492522797   -4.54839945855464    0.36987150195967
H         2.26646133748631   -3.67906716030545    2.40450693609302
H         3.52301668666003   -2.72660317228114    1.56384937133942
H         2.61130000298449   -2.00796132149094    2.91369841999469
H         5.45207632240044    3.80554561842835    0.72185076472260
H         4.67414638116457    1.18759767740590    0.64206216369478
H         1.05049444153927    2.21852805984833    0.80024366775987
H        -0.27124025848847    0.37250202320706    2.78736233268181
H        -1.31844895920045    5.15338464015748    3.82778261865146
H        -0.82829130380785    2.54481144935037    3.29646932877706
62
 energy: -117.735934160662 gnorm: 0.016666531695 xtb: 6.3.3 (4ae9cef)
C        -2.83013282332296   -1.09082673449696   -1.12027863625370
O        -2.06553745652982   -1.05241261447709   -2.23795306731331
C        -2.64788653045458   -1.39968094574254   -3.47151015790341
C        -4.18353993912920   -1.42507287962225   -1.14639969253858
C        -4.93508733336225   -1.47853626338000    0.00981033744061
C        -4.34616971550243   -1.19142622554859    1.22554855651198
C        -3.00561623263474   -0.85983725864124    1.25898365757948
C        -2.22415120682357   -0.80281010124807    0.11268314855469
C        -0.77048707397376   -0.46198073366872    0.34467292558948
C         0.26919052304635   -0.51043884405834   -0.78748598492636
C         0.83794659752015   -1.87636079197762   -1.05968479259256
C         0.77382129939092   -2.38026837059035   -2.34681340931556
C         1.27087507812988   -3.63029986895761   -2.66360487096305
C         1.84407234260538   -4.40136469112259   -1.67125175574323
C         1.95037531723925   -3.90621628901296   -0.38487224833796
C         1.46798989646138   -2.64162247566822   -0.06707763419491
O         1.58071879851882   -2.09837884886695    1.18861757457378
C         2.53553007873984   -2.66289335021068    2.06164791170211
N         1.28604664182674    0.43326443814196   -0.29781008621721
C         2.25257581142222    0.85452829694365   -1.14735304588518
C         3.07340399396763    2.00775036127655   -0.66579107693521
C         2.90904720828545    3.30535697107379   -1.05988079277165
Br        1.58383449329482    4.09586769550318   -2.10596907745329
O         3.84069545501114    4.10933844673562   -0.53300715025113
C         4.64261109179523    3.31981133114472    0.20810921874130
C         4.22560228026922    2.02778160116996    0.16771875347636
O         2.43444232160626    0.34238467640485   -2.22790758252118
C         0.82064278865611    1.13276657096786    0.88134710962216
C         1.49755883670234    0.62541999304153    2.18106694237042
O         0.63516978139446    0.32089898127650    3.14238096676759
O         2.68020347586077    0.62743698966628    2.33735042768720
N        -0.61420300311325    0.89799953499990    0.91945962741461
C        -1.38224937216973    1.94722926124099    0.35076533338214
C        -1.39201046347985    3.14797925758716    1.20242115410736
C        -1.79480741857057    4.39964168264956    0.79190573628745
Br       -2.30446410669661    5.03572176004810   -0.86309394394516
O        -1.77073318620489    5.27209200144051    1.79607400788547
C        -1.36836178496061    4.59815904435598    2.89307392288115
C        -1.11126635294816    3.30113964576072    2.59544236658455
O        -2.00717248020505    1.85397988938680   -0.67914684388690
H        -3.02840096840368   -2.42597784715592   -3.45768965816847
H        -3.45298132310515   -0.71273754496091   -3.74739589175747
H        -1.84601584234210   -1.32271240270315   -4.20270576006646
H        -4.66525251187435   -1.64992915001587   -2.08327021228870
H        -5.97812253223718   -1.75013114886102   -0.04422560043420
H        -4.91928214382998   -1.23800235869848    2.13743623292361
H        -2.54843613159539   -0.64576110586724    2.21538721763028
H        -0.40712324958492   -1.14451423534268    1.12578550072496
H        -0.14188233633509   -0.11316418469934   -1.72005051211570
H         0.34289367245431   -1.76478075134176   -3.11776985566451
H         1.21870387650299   -3.99484738543092   -3.67704777760968
H         2.22478912111970   -5.38686245972415   -1.89323059356853
H         2.41376556662962   -4.51843041578429    0.37251728758000
H         2.23313575884345   -3.65410429517262    2.41464949677901
H         3.51330377558542   -2.73275083708870    1.57517939584472
H         2.59828675884117   -1.98086143515689    2.90719896223521
H         5.45749260882819    3.79716942192682    0.71190279974585
H         4.65961246499413    1.18540311393897    0.65927066922184
H         1.05037563068441    2.20893027359901    0.81215513443378
H        -0.27540284726020    0.36468981215425    2.78839991442791
H        -1.30965681965854    5.14926032287388    3.80930287200132
H        -0.79827615991920    2.54399446998562    3.28201054891471
62
 energy: -117.737213981328 gnorm: 0.016655350513 xtb: 6.3.3 (4ae9cef)
C        -2.81467611993905   -1.09939298421870   -1.11992908760319
O        -2.05158374054326   -1.06141241320829   -2.23835018887343
C        -2.63646676051902   -1.39166365571015   -3.47520632247494
C        -4.17042154812445   -1.42322551302711   -1.14368290618763
C        -4.92260602087229   -1.46694639182914    0.01382474742485
C        -4.33480776913656   -1.18016135485152    1.23065275887253
C        -2.99160119963640   -0.86077753523366    1.26292865334627
C        -2.21128378788285   -0.81749024996213    0.11456637019696
C        -0.76454435969791   -0.47305387125617    0.34636151568443
C         0.26481146843728   -0.50630230872659   -0.79033050430462
C         0.83551029130574   -1.86807375938896   -1.06775451564135
C         0.75978274768156   -2.37899833733554   -2.35242099709644
C         1.26012859633851   -3.62935214960442   -2.66443939572173
C         1.84675858706798   -4.38932389467992   -1.67056440102733
C         1.96164889134132   -3.88644069986011   -0.38679047484232
C         1.47539045653015   -2.62246191476556   -0.07397071445672
O         1.58862274424602   -2.06717702256025    1.17613731577471
C         2.52042495994791   -2.64090057443239    2.06704084480935
N         1.27763158177805    0.43839754904406   -0.30155697164052
C         2.25067193631193    0.85088624066874   -1.14499336596817
C         3.06697498272830    2.00659211363813   -0.65819691373963
C         2.90184756070401    3.30576263465060   -1.04837054855984
Br        1.55822128193609    4.11840319992170   -2.05808739586044
O         3.83982910601782    4.10569527632159   -0.52486843199435
C         4.64339928230503    3.31485879313848    0.21153671591657
C         4.22356977365549    2.02340823307908    0.17054760043235
O         2.44141403169774    0.33341827769398   -2.22252905229963
C         0.81224918763212    1.12754216925321    0.88420125780800
C         1.49008225862490    0.60731413820033    2.18105039459317
O         0.63072412317909    0.27883387630539    3.13542722138987
O         2.67715970656840    0.58230640966644    2.31998318535659
N        -0.61868489739767    0.88656994747272    0.91876320901943
C        -1.40781807462513    1.92117841199894    0.35961739512456
C        -1.38529470560928    3.13590109527386    1.19020491546945
C        -1.79822859239080    4.38382442980790    0.77516859982583
Br       -2.32913401261276    5.00953276893843   -0.88223523293339
O        -1.76390790689674    5.26300987804783    1.77531856345385
C        -1.34871434048858    4.59808984595663    2.87235140337492
C        -1.09109109356649    3.29900448653947    2.57949011139781
O        -2.08187440804821    1.80623078813753   -0.63823355298528
H        -3.01910667363628   -2.41803487451334   -3.47486826936304
H        -3.44029681423133   -0.69881650821820   -3.74187632867430
H        -1.83604934617787   -1.30701687985014   -4.20748785170581
H        -4.65137475324002   -1.64223835865033   -2.08225696112907
H        -5.96808360387728   -1.72743842438857   -0.04174785756523
H        -4.90821863792595   -1.21157133874553    2.14301077428786
H        -2.52637150224366   -0.64113339921673    2.21479512979086
H        -0.39279468647505   -1.15424248201153    1.12445402220324
H        -0.15736505737795   -0.10493475620856   -1.71555648632711
H         0.31560966797307   -1.76752380210319   -3.12022760162255
H         1.20042184382805   -4.00109115403460   -3.67503222294892
H         2.23158672045102   -5.37419411722087   -1.88793177830648
H         2.43446773376145   -4.48857892765244    0.37284537713494
H         2.18988157842610   -3.62125735294568    2.42910972389322
H         3.50396540331971   -2.73879054530712    1.59435850046485
H         2.58845825548845   -1.94989220428771    2.90484730075873
H         5.46747883025852    3.78639348205236    0.70728176543255
H         4.64944657353369    1.17904403966532    0.66822189139370
H         1.04462478537505    2.20244278896568    0.82622510985748
H        -0.28248277143830    0.34888563359371    2.78844057059104
H        -1.28677168794567    5.15099028714789    3.78731661264212
H        -0.76113607589380    2.54539396082520    3.26341477413109
62
 energy: -117.738221863399 gnorm: 0.010417251534 xtb: 6.3.3 (4ae9cef)
C        -2.80806649661046   -1.11599497595440   -1.11826480120182
O        -2.04358390073520   -1.07756341725960   -2.23606882448764
C        -2.63000084470726   -1.38341019132488   -3.47950040200910
C        -4.16697972134499   -1.42709434842709   -1.14023325748545
C        -4.91992498612755   -1.45570097541373    0.01826748041174
C        -4.33180639333123   -1.17136240716343    1.23572372482042
C        -2.98473156193186   -0.86873419753844    1.26775589992423
C        -2.20549102265195   -0.83754384953856    0.11632765097015
C        -0.76249337098237   -0.48417665586128    0.34244947303400
C         0.26396601714810   -0.50127198312145   -0.79576321616320
C         0.83973688007569   -1.85966001479245   -1.07849583647354
C         0.74955412621670   -2.38025370632794   -2.35957526859703
C         1.25098019869460   -3.63217881681351   -2.66493799874859
C         1.85475262257561   -4.37910218775839   -1.67097946932869
C         1.98100145714393   -3.86727336617907   -0.39097541308552
C         1.49052052767708   -2.60332786013935   -0.08381351713968
O         1.60272645341632   -2.03486228232450    1.15989202987301
C         2.50666348322800   -2.61809834381623    2.07406527020302
N         1.27002517942384    0.44840231101758   -0.30648029056513
C         2.25448284050867    0.85509930343914   -1.13956999173314
C         3.06352958784733    2.01065395408793   -0.64846189020829
C         2.89393423986389    3.31330905538475   -1.02671650752270
Br        1.52957239988521    4.13129209145961   -2.00636404367898
O         3.83759318238853    4.10818224181955   -0.50131138747929
C         4.64832301392465    3.31055505320560    0.21966148744543
C         4.22833385085037    2.01886765565985    0.16853112402210
O         2.45661220504467    0.33672941954011   -2.21527358587098
C         0.80286193403322    1.12334006905355    0.88761631355975
C         1.48268819473530    0.57956891288417    2.17641093428259
O         0.62402986141961    0.24302280131045    3.13023422910635
O         2.67040999731780    0.54355717993233    2.31010406252310
N        -0.62556939860508    0.87511756394484    0.91552366957595
C        -1.43378285156889    1.89641766429289    0.37366315541222
C        -1.38251385448170    3.12664472515875    1.17770973205354
C        -1.80164088209449    4.37038526458376    0.75732974080144
Br       -2.35913802804510    4.97143037147435   -0.90549447594165
O        -1.75498359432572    5.25846630494495    1.75286343454326
C        -1.31906221646100    4.60400509474781    2.84748692953140
C        -1.07014603555983    3.30056854881152    2.56130267615972
O        -2.14197267593860    1.76644551764266   -0.59262944574727
H        -3.01482263921893   -2.40922928326129   -3.49830731853570
H        -3.42995008994458   -0.68097023913420   -3.73367421706958
H        -1.83040217658145   -1.28867347443347   -4.21272690453384
H        -4.65020544542734   -1.64046658943462   -2.07924135949304
H        -5.96922619642199   -1.70167030238926   -0.03797454788914
H        -4.90650806687601   -1.18662670403766    2.14855976705639
H        -2.51228580288386   -0.64702953010196    2.21598619290193
H        -0.38421250571110   -1.16395421612451    1.11773625301826
H        -0.16532808889084   -0.09327895008118   -1.71439761593661
H         0.29022836629042   -1.77674591724252   -3.12558359665087
H         1.17752464804638   -4.01494162324291   -3.67126703550830
H         2.24309865314188   -5.36367054371394   -1.88466408162872
H         2.46420210309683   -4.46095061958464    0.36880595339172
H         2.14250886687998   -3.58484012552073    2.44376130309240
H         3.49613104683442   -2.74501627634721    1.62033350615602
H         2.58029183663085   -1.91828966672658    2.90440589969573
H         5.48117963995522    3.77523064403743    0.70823710728049
H         4.65104870040089    1.16976966513343    0.66218721470818
H         1.03347321200864    2.19779813621474    0.84559971949672
H        -0.29002077193719    0.32445525264171    2.78797356628222
H        -1.24510042910631    5.16246405522451    3.75865459713786
H        -0.72203127820197    2.55218578348288    3.24358420224175
62
 energy: -117.739006758751 gnorm: 0.018489269242 xtb: 6.3.3 (4ae9cef)
C        -2.81077517331067   -1.13377101614729   -1.11723275052524
O        -2.04235577562841   -1.09804179153522   -2.23286223029800
C        -2.63052246312684   -1.37488153144837   -3.48352897140542
C        -4.17218985288053   -1.43406210753866   -1.13864678791796
C        -4.92533839094526   -1.44701023409695    0.02005618368380
C        -4.33480255120733   -1.16769093052849    1.23743182125308
C        -2.98407136483429   -0.88190786966969    1.26995863383034
C        -2.20657897580910   -0.85619440423428    0.11625885447381
C        -0.76325185834958   -0.49397124406163    0.33571770713973
C         0.26439875061980   -0.49770760622189   -0.80407713966934
C         0.84776665233072   -1.85291288090199   -1.08971767724406
C         0.74381637070533   -2.38429016119057   -2.36545958950519
C         1.24570950861619   -3.63785621685786   -2.66365121950043
C         1.86786259296670   -4.37112811675387   -1.67111092668792
C         2.00690557537309   -3.84925762434050   -0.39630551115139
C         1.51073829175181   -2.58603943258335   -0.09466845559626
O         1.62256303517007   -2.00538936230668    1.14271354798378
C         2.49561163456880   -2.59893387453402    2.08117539081764
N         1.26308423987568    0.45905920822630   -0.31314938461871
C         2.26133215191194    0.86284651735263   -1.13192334445583
C         3.06270369953887    2.01657301585584   -0.63394861931443
C         2.88404087396065    3.32443321448229   -0.99076090492891
Br        1.50193737012794    4.14004367773931   -1.94571510725310
O         3.83371076350416    4.11399414187740   -0.46418551905115
C         4.65531578031353    3.30624721893347    0.23411612436511
C         4.23868511659956    2.01361179668801    0.16616558083804
O         2.47849346271316    0.34495327152016   -2.20522061433467
C         0.79430870814651    1.11970138936685    0.88872027765902
C         1.47540124110393    0.56110857022485    2.17064712947021
O         0.61741026300995    0.20976454270859    3.12259145624009
O         2.66155015805826    0.51936282788631    2.30443482730640
N        -0.63198344732360    0.86628919103490    0.90912315599189
C        -1.45587297682285    1.87708350651501    0.38743576542042
C        -1.37934763936132    3.12193623749758    1.16611877631535
C        -1.81199670576855    4.35810500485490    0.74120100007788
Br       -2.39348099873564    4.93068020176015   -0.92492173706653
O        -1.74017201918667    5.25982361487750    1.72601249473637
C        -1.28036788281242    4.61774759683370    2.81806537845230
C        -1.03737015789806    3.31046076522927    2.54089915536313
O        -2.22803380850211    1.72233018737495   -0.53490614110980
H        -3.01934432957416   -2.39848429598054   -3.52465421616289
H        -3.42516278974140   -0.66130656693390   -3.72256416631694
H        -1.83054772790232   -1.26891863506305   -4.21599076604943
H        -4.65855047454454   -1.64542793189260   -2.07688293153008
H        -5.97921703161773   -1.67550791136023   -0.03599619893066
H        -4.91124331983731   -1.16867203929508    2.14994250868048
H        -2.50708343371139   -0.66276759564420    2.21638594090221
H        -0.37957175752122   -1.17300262962991    1.10807800686806
H        -0.16820491247519   -0.08568915762649   -1.71940955800232
H         0.27104962930277   -1.79096669397637   -3.13092829460567
H         1.15635494246576   -4.03339360395877   -3.66448001891182
H         2.25951110171529   -5.35525000761378   -1.88206291099419
H         2.50219054301312   -4.43509107651761    0.36177006855906
H         2.09788658351716   -3.55122104055301    2.45338048419572
H         3.49005094850837   -2.75290925418825    1.64983779082709
H         2.57233260625300   -1.89221095288662    2.90535286694301
H         5.49532432049969    3.76425210009946    0.71652115234721
H         4.66702633232359    1.15753248172061    0.64241692728367
H         1.01930400023712    2.19451237145696    0.86198010797575
H        -0.29679394246821    0.29400455394392    2.78520709375928
H        -1.18743534250866    5.18597395976288    3.72211129697513
H        -0.67270614439746    2.56943563224758    3.22313218640280
62
 energy: -117.739815646826 gnorm: 0.010873628262 xtb: 6.3.3 (4ae9cef)
C        -2.82265522041856   -1.15212353792713   -1.11751587057200
O        -2.04886088609652   -1.12138434832526   -2.23011671217519
C        -2.64021054167017   -1.36758275305506   -3.48682049794557
C        -4.18554091055601   -1.44410820790940   -1.13902273531038
C        -4.93773357492490   -1.44338678599786    0.01995776476386