      -----------------------------------------------------------      
     |                   =====================                   |     
     |                           x T B                           |     
     |                   =====================                   |     
     |                         S. Grimme                         |     
     |          Mulliken Center for Theoretical Chemistry        |     
     |                    University of Bonn                     |     
      -----------------------------------------------------------      

   * xtb version 6.3.3 (4ae9cef) compiled by 'conda@95abc7406d43' on 2020-10-14

   xtb is free software: you can redistribute it and/or modify it under
   the terms of the GNU Lesser General Public License as published by
   the Free Software Foundation, either version 3 of the License, or
   (at your option) any later version.
   
   xtb is distributed in the hope that it will be useful,
   but WITHOUT ANY WARRANTY; without even the implied warranty of
   MERCHANTABILITY or FITNESS FOR A PARTICULAR PURPOSE.  See the
   GNU Lesser General Public License for more details.
   
   Cite this work as:
   * C. Bannwarth, E. Caldeweyher, S. Ehlert, A. Hansen, P. Pracht,
     J. Seibert, S. Spicher, S. Grimme, WIREs Comput. Mol. Sci., 2020,
     e01493. DOI: 10.1002/wcms.1493
   
   for GFN2-xTB:
   * S. Grimme, C. Bannwarth, P. Shushkov, J. Chem. Theory Comput., 2017,
     13, 1989-2009. DOI: 10.1021/acs.jctc.7b00118
   for GFN1-xTB:
   * C. Bannwarth, S. Ehlert and S. Grimme., J. Chem. Theory Comput., 2019,
     15, 1652-1671. DOI: 10.1021/acs.jctc.8b01176
   for GFN0-xTB:
   * P. Pracht, E. Caldeweyher, S. Ehlert, S. Grimme, ChemRxiv, 2019, preprint.
     DOI: 10.26434/chemrxiv.8326202.v1
   for GFN-FF:
   * S. Spicher and S. Grimme, Angew. Chem. Int. Ed., 2020, 59, 15665-15673.
     DOI: 10.1002/anie.202004239
   
   for DFT-D4:
   * E. Caldeweyher, C. Bannwarth and S. Grimme, J. Chem. Phys., 2017,
     147, 034112. DOI: 10.1063/1.4993215
   * E. Caldeweyher, S. Ehlert, A. Hansen, H. Neugebauer, S. Spicher,
     C. Bannwarth and S. Grimme, J. Chem. Phys., 2019, 150, 154122.
     DOI: 10.1063/1.5090222
   * E. Caldeweyher, J.-M. Mewes, S. Ehlert and S. Grimme, Phys. Chem. Chem. Phys.
     2020, 22, 8499-8512. DOI: 10.1039/D0CP00502A
   
   for sTDA-xTB:
   * S. Grimme and C. Bannwarth, J. Chem. Phys., 2016, 145, 054103.
     DOI: 10.1063/1.4959605
   
   in the mass-spec context:
   * V. Asgeirsson, C. Bauer and S. Grimme, Chem. Sci., 2017, 8, 4879.
     DOI: 10.1039/c7sc00601b
   * J. Koopman and S. Grimme, ACS Omega 2019, 4, 12, 15120-15133.
     DOI: 10.1021/acsomega.9b02011
   
   for metadynamics refer to:
   * S. Grimme, J. Chem. Theory Comput., 2019, 155, 2847-2862
     DOI: 10.1021/acs.jctc.9b00143
   
   with help from (in alphabetical order)
   C. Bannwarth, F. Bohle, G. Brandenburg, E. Caldeweyher, M. Checinski,
   S. Dohm, S. Ehlert, S. Ehrlich, F. März, H. Neugebauer, J. Pisarek,
   P. Pracht, P. Shushkov, and S. Spicher.
   
 * started run on 2022/03/16 at 23:10:53.825     

           -------------------------------------------------
          |                Calculation Setup                |
           -------------------------------------------------

          program call               : xtb acid_269.xyz --opt --chrg 0 --uhf 0 --gfn 2
          coordinate file            : acid_269.xyz
          omp threads                :                    64
          number of atoms            :                    60
          number of electrons        :                   190
          charge                     :                     0
          spin                       :                   0.0
          first test random number   :      0.50174844560180

   ID    Z sym.   atoms
    1    6 C      1-14, 16-21, 23, 25, 26, 30-33, 35-37
    2    7 N      15, 29
    3    9 F      22, 34
    4    8 O      24, 27, 28, 38
    5    1 H      39-60

           -------------------------------------------------
          |                 G F N 2 - x T B                 |
           -------------------------------------------------

        Reference                      10.1021/acs.jctc.8b01176
      * Hamiltonian:
        H0-scaling (s, p, d)           1.850000    2.230000    2.230000
        zeta-weighting                 0.500000
      * Dispersion:
        s8                             2.700000
        a1                             0.520000
        a2                             5.000000
        s9                             5.000000
      * Repulsion:
        kExp                           1.500000    1.000000
        rExp                           1.000000
      * Coulomb:
        alpha                          2.000000
        third order                    shell-resolved
        anisotropic                    true
        a3                             3.000000
        a5                             4.000000
        cn-shift                       1.200000
        cn-exp                         4.000000
        max-rad                        5.000000


          ...................................................
          :                      SETUP                      :
          :.................................................:
          :  # basis functions                 174          :
          :  # atomic orbitals                 174          :
          :  # shells                           98          :
          :  # electrons                       190          :
          :  max. iterations                   250          :
          :  Hamiltonian                  GFN2-xTB          :
          :  restarted?                      false          :
          :  GBSA solvation                  false          :
          :  PC potential                    false          :
          :  electronic temp.          300.0000000     K    :
          :  accuracy                    1.0000000          :
          :  -> integral cutoff          0.2500000E+02      :
          :  -> integral neglect         0.1000000E-07      :
          :  -> SCF convergence          0.1000000E-05 Eh   :
          :  -> wf. convergence          0.1000000E-03 e    :
          :  Broyden damping             0.4000000          :
          ...................................................

 iter      E             dE          RMSdq      gap      omega  full diag
   1   -108.3159808 -0.108316E+03  0.461E+00    3.29       0.0  T
   2   -108.4713928 -0.155412E+00  0.270E+00    3.07       1.0  T
   3   -108.4718148 -0.422063E-03  0.139E+00    3.54       1.0  T
   4   -108.4969058 -0.250909E-01  0.292E-01    3.12       1.0  T
   5   -108.5001246 -0.321885E-02  0.906E-02    3.14       1.0  T
   6   -108.5002917 -0.167121E-03  0.448E-02    3.17       1.0  T
   7   -108.5003297 -0.379194E-04  0.189E-02    3.16       1.0  T
   8   -108.5003303 -0.635996E-06  0.804E-03    3.17       1.6  T
   9   -108.5003327 -0.237205E-05  0.326E-03    3.17       4.0  T
  10   -108.5003329 -0.231377E-06  0.106E-03    3.17      12.2  T
  11   -108.5003329 -0.199910E-07  0.560E-04    3.17      23.1  T
  12   -108.5003329 -0.339843E-08  0.207E-04    3.17      62.2  T

   *** convergence criteria satisfied after 12 iterations ***

         #    Occupation            Energy/Eh            Energy/eV
      -------------------------------------------------------------
         1        2.0000           -0.8320144             -22.6403
       ...           ...                  ...                  ...
        89        2.0000           -0.4163608             -11.3298
        90        2.0000           -0.4152542             -11.2996
        91        2.0000           -0.4139924             -11.2653
        92        2.0000           -0.4136494             -11.2560
        93        2.0000           -0.4086025             -11.1186
        94        2.0000           -0.4064752             -11.0608
        95        2.0000           -0.4031213             -10.9695 (HOMO)
        96                         -0.2866755              -7.8008 (LUMO)
        97                         -0.2662817              -7.2459
        98                         -0.2629133              -7.1542
        99                         -0.2557273              -6.9587
       100                         -0.2482568              -6.7554
       ...                                ...                  ...
       174                          0.6193139              16.8524
      -------------------------------------------------------------
                  HL-Gap            0.1164459 Eh            3.1687 eV
             Fermi-level           -0.3448984 Eh           -9.3852 eV

 SCC (total)                   0 d,  0 h,  0 min,  0.450 sec
 SCC setup                      ...        0 min,  0.014 sec (  3.113%)
 Dispersion                     ...        0 min,  0.019 sec (  4.275%)
 classical contributions        ...        0 min,  0.022 sec (  4.842%)
 integral evaluation            ...        0 min,  0.078 sec ( 17.407%)
 iterations                     ...        0 min,  0.169 sec ( 37.546%)
 molecular gradient             ...        0 min,  0.131 sec ( 29.187%)
 printout                       ...        0 min,  0.016 sec (  3.606%)

         :::::::::::::::::::::::::::::::::::::::::::::::::::::
         ::                     SUMMARY                     ::
         :::::::::::::::::::::::::::::::::::::::::::::::::::::
         :: total energy            -107.050814996127 Eh    ::
         :: gradient norm              0.090084324868 Eh/a0 ::
         :: HOMO-LUMO gap              3.168653460851 eV    ::
         ::.................................................::
         :: SCC energy              -108.500332928623 Eh    ::
         :: -> isotropic ES            0.139213467049 Eh    ::
         :: -> anisotropic ES          0.002715855571 Eh    ::
         :: -> anisotropic XC          0.034315925627 Eh    ::
         :: -> dispersion             -0.080817739261 Eh    ::
         :: repulsion energy           1.446717512836 Eh    ::
         :: add. restraining           0.000000000000 Eh    ::
         :: total charge               0.000000000000 e     ::
         :::::::::::::::::::::::::::::::::::::::::::::::::::::

      ----------------------------------------------------------- 
     |                   =====================                   |
     |                        A N C O P T                        |
     |                   =====================                   |
     |               Approximate Normal Coordinate               |
     |                Rational Function Optimizer                |
      ----------------------------------------------------------- 

          ...................................................
          :                      SETUP                      :
          :.................................................:
          :   optimization level            normal          :
          :   max. optcycles                   200          :
          :   ANC micro-cycles                  20          :
          :   degrees of freedom               174          :
          :.................................................:
          :   RF solver                   davidson          :
          :   write xtbopt.log                true          :
          :   linear?                        false          :
          :   energy convergence         0.5000000E-05 Eh   :
          :   grad. convergence          0.1000000E-02 Eh/α :
          :   maximium RF displ.         1.0000000          :
          :   Hlow (freq-cutoff)         0.1000000E-01      :
          :   Hmax (freq-cutoff)         5.0000000          :
          :   S6 in model hess.         20.0000000          :
          ...................................................

generating ANC from model Hessian ...
Using Lindh-Hessian (1995)
 Shifting diagonal of input Hessian by    9.7737892599210480E-003
 Lowest  eigenvalues of input Hessian
    0.000000    0.000000    0.000000    0.000000    0.000000    0.000000
    0.010000    0.010085    0.010181    0.010343    0.010624    0.010681
    0.010848    0.010875    0.010953    0.011286    0.011644    0.012118
 Highest eigenvalues
    2.012391    2.078577    2.082192    2.203948    2.247688    2.252233


........................................................................
.............................. CYCLE    1 ..............................
........................................................................
   1   -108.5003329 -0.108500E+03  0.859E-05    3.17       0.0  T
   2   -108.5003329 -0.151829E-09  0.546E-05    3.17     236.4  T
   3   -108.5003329 -0.120636E-09  0.303E-05    3.17     426.2  T
     SCC iter.                  ...        0 min,  0.042 sec
     gradient                   ...        0 min,  0.137 sec
 * total energy  :  -107.0508150 Eh     change       -0.7787548E-09 Eh
   gradient norm :     0.0900833 Eh/α   predicted     0.0000000E+00 (-100.00%)
   displ. norm   :     0.3436098 α      lambda       -0.1648285E-01
   maximum displ.:     0.1075844 α      in ANC's #55, #19, #54, ...

........................................................................
.............................. CYCLE    2 ..............................
........................................................................
   1   -108.5781192 -0.108578E+03  0.159E-01    3.43       0.0  T
   2   -108.5782298 -0.110577E-03  0.983E-02    3.38       1.0  T
   3   -108.5781859  0.438493E-04  0.466E-02    3.39       1.0  T
   4   -108.5782676 -0.816521E-04  0.878E-03    3.38       1.5  T
   5   -108.5782711 -0.350324E-05  0.321E-03    3.38       4.0  T
   6   -108.5782713 -0.259941E-06  0.140E-03    3.38       9.3  T
   7   -108.5782713 -0.168023E-07  0.575E-04    3.38      22.4  T
   8   -108.5782714 -0.624028E-08  0.263E-04    3.38      49.2  T
     SCC iter.                  ...        0 min,  0.111 sec
     gradient                   ...        0 min,  0.160 sec
 * total energy  :  -107.0622013 Eh     change       -0.1138627E-01 Eh
   gradient norm :     0.0331490 Eh/α   predicted    -0.9214478E-02 ( -19.07%)
   displ. norm   :     0.3518774 α      lambda       -0.5463266E-02
   maximum displ.:     0.1477021 α      in ANC's #19, #24, #40, ...

........................................................................
.............................. CYCLE    3 ..............................
........................................................................
   1   -108.6135615 -0.108614E+03  0.117E-01    3.50       0.0  T
   2   -108.6136163 -0.548523E-04  0.727E-02    3.47       1.0  T
   3   -108.6135916  0.246610E-04  0.335E-02    3.48       1.0  T
   4   -108.6136368 -0.451898E-04  0.648E-03    3.47       2.0  T
   5   -108.6136389 -0.205822E-05  0.217E-03    3.47       5.9  T
   6   -108.6136390 -0.644285E-07  0.913E-04    3.47      14.1  T
   7   -108.6136390 -0.122158E-07  0.409E-04    3.47      31.6  T
     SCC iter.                  ...        0 min,  0.096 sec
     gradient                   ...        0 min,  0.114 sec
 * total energy  :  -107.0655635 Eh     change       -0.3362188E-02 Eh
   gradient norm :     0.0121387 Eh/α   predicted    -0.3069859E-02 (  -8.69%)
   displ. norm   :     0.2366189 α      lambda       -0.1115364E-02
   maximum displ.:     0.1061003 α      in ANC's #19, #24, #15, ...

........................................................................
.............................. CYCLE    4 ..............................
........................................................................
   1   -108.6163236 -0.108616E+03  0.766E-02    3.48       0.0  T
   2   -108.6163324 -0.879068E-05  0.458E-02    3.47       1.0  T
   3   -108.6163203  0.120174E-04  0.155E-02    3.47       1.0  T
   4   -108.6163354 -0.150110E-04  0.296E-03    3.47       4.4  T
   5   -108.6163358 -0.410510E-06  0.121E-03    3.47      10.7  T
   6   -108.6163358 -0.113277E-07  0.529E-04    3.47      24.4  T
   7   -108.6163358 -0.388034E-08  0.203E-04    3.47      63.7  T
     SCC iter.                  ...        0 min,  0.096 sec
     gradient                   ...        0 min,  0.167 sec
 * total energy  :  -107.0663156 Eh     change       -0.7521794E-03 Eh
   gradient norm :     0.0073025 Eh/α   predicted    -0.5889285E-03 ( -21.70%)
   displ. norm   :     0.2420442 α      lambda       -0.5789733E-03
   maximum displ.:     0.0944214 α      in ANC's #4, #19, #9, ...

........................................................................
.............................. CYCLE    5 ..............................
........................................................................
   1   -108.6145936 -0.108615E+03  0.720E-02    3.49       0.0  T
   2   -108.6145960 -0.244207E-05  0.422E-02    3.48       1.0  T
   3   -108.6145932  0.280208E-05  0.784E-03    3.48       1.6  T
   4   -108.6145971 -0.385088E-05  0.190E-03    3.48       6.8  T
   5   -108.6145971 -0.525893E-07  0.107E-03    3.48      12.1  T
   6   -108.6145971 -0.162029E-07  0.300E-04    3.48      43.1  T
   7   -108.6145971 -0.111605E-08  0.143E-04    3.48      90.4  T
     SCC iter.                  ...        0 min,  0.095 sec
     gradient                   ...        0 min,  0.143 sec
 * total energy  :  -107.0666990 Eh     change       -0.3833394E-03 Eh
   gradient norm :     0.0052042 Eh/α   predicted    -0.3064965E-03 ( -20.05%)
   displ. norm   :     0.2426611 α      lambda       -0.3446883E-03
   maximum displ.:     0.1143595 α      in ANC's #4, #9, #10, ...

........................................................................
.............................. CYCLE    6 ..............................
........................................................................
   1   -108.6126503 -0.108613E+03  0.721E-02    3.47       0.0  T
   2   -108.6126521 -0.181471E-05  0.425E-02    3.47       1.0  T
   3   -108.6126509  0.115855E-05  0.548E-03    3.47       2.4  T
   4   -108.6126528 -0.186616E-05  0.176E-03    3.47       7.3  T
   5   -108.6126529 -0.472823E-07  0.973E-04    3.47      13.3  T
   6   -108.6126529 -0.114314E-07  0.298E-04    3.47      43.4  T
     SCC iter.                  ...        0 min,  0.082 sec
     gradient                   ...        0 min,  0.138 sec
 * total energy  :  -107.0669505 Eh     change       -0.2515728E-03 Eh
   gradient norm :     0.0069983 Eh/α   predicted    -0.1824982E-03 ( -27.46%)
   displ. norm   :     0.3151140 α      lambda       -0.3575886E-03
   maximum displ.:     0.1534737 α      in ANC's #4, #9, #10, ...

........................................................................
.............................. CYCLE    7 ..............................
........................................................................
   1   -108.6116338 -0.108612E+03  0.844E-02    3.48       0.0  T
   2   -108.6116377 -0.384578E-05  0.495E-02    3.48       1.0  T
   3   -108.6116348  0.285368E-05  0.763E-03    3.47       1.7  T
   4   -108.6116387 -0.390139E-05  0.233E-03    3.47       5.5  T
   5   -108.6116389 -0.192768E-06  0.119E-03    3.47      10.8  T
   6   -108.6116389 -0.116014E-07  0.498E-04    3.47      25.9  T
   7   -108.6116390 -0.444125E-08  0.159E-04    3.47      81.0  T
     SCC iter.                  ...        0 min,  0.112 sec
     gradient                   ...        0 min,  0.115 sec
 * total energy  :  -107.0672242 Eh     change       -0.2737036E-03 Eh
   gradient norm :     0.0067279 Eh/α   predicted    -0.1965486E-03 ( -28.19%)
   displ. norm   :     0.3554725 α      lambda       -0.3629176E-03
   maximum displ.:     0.1761166 α      in ANC's #4, #9, #10, ...

........................................................................
.............................. CYCLE    8 ..............................
........................................................................
   1   -108.6118536 -0.108612E+03  0.951E-02    3.47       0.0  T
   2   -108.6118572 -0.366539E-05  0.557E-02    3.47       1.0  T
   3   -108.6118543  0.296361E-05  0.782E-03    3.47       1.7  T
   4   -108.6118583 -0.407274E-05  0.225E-03    3.47       5.7  T
   5   -108.6118585 -0.163447E-06  0.117E-03    3.47      11.0  T
   6   -108.6118585 -0.834716E-08  0.490E-04    3.47      26.4  T
   7   -108.6118585 -0.550415E-08  0.157E-04    3.47      82.1  T
     SCC iter.                  ...        0 min,  0.095 sec
     gradient                   ...        0 min,  0.134 sec
 * total energy  :  -107.0675013 Eh     change       -0.2770172E-03 Eh
   gradient norm :     0.0065443 Eh/α   predicted    -0.2043908E-03 ( -26.22%)
   displ. norm   :     0.3446205 α      lambda       -0.3285582E-03
   maximum displ.:     0.1734719 α      in ANC's #4, #9, #3, ...

........................................................................
.............................. CYCLE    9 ..............................
........................................................................
   1   -108.6137699 -0.108614E+03  0.900E-02    3.50       0.0  T
   2   -108.6137737 -0.386705E-05  0.526E-02    3.49       1.0  T
   3   -108.6137711  0.263099E-05  0.735E-03    3.49       1.8  T
   4   -108.6137746 -0.346224E-05  0.198E-03    3.49       6.5  T
   5   -108.6137747 -0.162443E-06  0.928E-04    3.49      13.9  T
   6   -108.6137747 -0.272946E-08  0.445E-04    3.49      29.0  T
     SCC iter.                  ...        0 min,  0.086 sec
     gradient                   ...        0 min,  0.130 sec
 * total energy  :  -107.0677363 Eh     change       -0.2350631E-03 Eh
   gradient norm :     0.0044013 Eh/α   predicted    -0.1837895E-03 ( -21.81%)
   displ. norm   :     0.3388891 α      lambda       -0.2246354E-03
   maximum displ.:     0.1665804 α      in ANC's #4, #9, #3, ...

........................................................................
.............................. CYCLE   10 ..............................
........................................................................
   1   -108.6136357 -0.108614E+03  0.916E-02    3.46       0.0  T
   2   -108.6136384 -0.272565E-05  0.538E-02    3.46       1.0  T
   3   -108.6136354  0.297378E-05  0.761E-03    3.47       1.7  T
   4   -108.6136394 -0.397007E-05  0.172E-03    3.46       7.5  T
   5   -108.6136394 -0.555697E-07  0.968E-04    3.46      13.3  T
   6   -108.6136395 -0.554866E-08  0.377E-04    3.46      34.2  T
     SCC iter.                  ...        0 min,  0.086 sec
     gradient                   ...        0 min,  0.137 sec
 * total energy  :  -107.0678812 Eh     change       -0.1448393E-03 Eh
   gradient norm :     0.0059719 Eh/α   predicted    -0.1252184E-03 ( -13.55%)
   displ. norm   :     0.2766927 α      lambda       -0.2268305E-03
   maximum displ.:     0.1237212 α      in ANC's #4, #3, #9, ...

........................................................................
.............................. CYCLE   11 ..............................
........................................................................
   1   -108.6170112 -0.108617E+03  0.715E-02    3.53       0.0  T
   2   -108.6170157 -0.447783E-05  0.421E-02    3.51       1.0  T
   3   -108.6170118  0.392466E-05  0.988E-03    3.52       1.3  T
   4   -108.6170169 -0.508922E-05  0.160E-03    3.51       8.0  T
   5   -108.6170170 -0.693420E-07  0.892E-04    3.51      14.5  T
   6   -108.6170170 -0.149862E-07  0.412E-04    3.51      31.3  T
     SCC iter.                  ...        0 min,  0.087 sec
     gradient                   ...        0 min,  0.136 sec
 * total energy  :  -107.0679917 Eh     change       -0.1105079E-03 Eh
   gradient norm :     0.0075225 Eh/α   predicted    -0.1221216E-03 (  10.51%)
   displ. norm   :     0.2027700 α      lambda       -0.1189824E-03
   maximum displ.:     0.0925779 α      in ANC's #4, #3, #9, ...

........................................................................
.............................. CYCLE   12 ..............................
........................................................................
   1   -108.6156502 -0.108616E+03  0.486E-02    3.49       0.0  T
   2   -108.6156511 -0.921706E-06  0.285E-02    3.49       1.0  T
   3   -108.6156501  0.102263E-05  0.471E-03    3.49       2.7  T
   4   -108.6156514 -0.134175E-05  0.903E-04    3.49      14.3  T
   5   -108.6156514 -0.174353E-07  0.521E-04    3.49      24.8  T
   6   -108.6156514 -0.319838E-08  0.203E-04    3.49      63.7  T
     SCC iter.                  ...        0 min,  0.082 sec
     gradient                   ...        0 min,  0.144 sec
 * total energy  :  -107.0680850 Eh     change       -0.9331313E-04 Eh
   gradient norm :     0.0038566 Eh/α   predicted    -0.6194139E-04 ( -33.62%)
   displ. norm   :     0.2629715 α      lambda       -0.1494815E-03
   maximum displ.:     0.1197212 α      in ANC's #3, #4, #1, ...

........................................................................
.............................. CYCLE   13 ..............................
........................................................................
   1   -108.6149945 -0.108615E+03  0.596E-02    3.47       0.0  T
   2   -108.6149968 -0.223070E-05  0.349E-02    3.48       1.0  T
   3   -108.6149946  0.222604E-05  0.641E-03    3.47       2.0  T
   4   -108.6149972 -0.267402E-05  0.137E-03    3.48       9.4  T
   5   -108.6149973 -0.104146E-06  0.533E-04    3.48      24.2  T
   6   -108.6149973 -0.205651E-08  0.262E-04    3.48      49.2  T
     SCC iter.                  ...        0 min,  0.088 sec
     gradient                   ...        0 min,  0.146 sec
 * total energy  :  -107.0681906 Eh     change       -0.1055666E-03 Eh
   gradient norm :     0.0025627 Eh/α   predicted    -0.7991032E-04 ( -24.30%)
   displ. norm   :     0.2405746 α      lambda       -0.8780997E-04
   maximum displ.:     0.1139359 α      in ANC's #3, #4, #1, ...

........................................................................
.............................. CYCLE   14 ..............................
........................................................................
   1   -108.6144968 -0.108614E+03  0.535E-02    3.48       0.0  T
   2   -108.6144979 -0.109084E-05  0.314E-02    3.48       1.0  T
   3   -108.6144960  0.185920E-05  0.553E-03    3.48       2.3  T
   4   -108.6144983 -0.223565E-05  0.933E-04    3.48      13.8  T
   5   -108.6144983 -0.368703E-07  0.438E-04    3.48      29.5  T
   6   -108.6144983 -0.944127E-09  0.160E-04    3.48      80.8  T
     SCC iter.                  ...        0 min,  0.086 sec
     gradient                   ...        0 min,  0.151 sec
 * total energy  :  -107.0682593 Eh     change       -0.6875432E-04 Eh
   gradient norm :     0.0026416 Eh/α   predicted    -0.4644862E-04 ( -32.44%)
   displ. norm   :     0.2681528 α      lambda       -0.9591736E-04
   maximum displ.:     0.1304809 α      in ANC's #3, #1, #4, ...

........................................................................
.............................. CYCLE   15 ..............................
........................................................................
   1   -108.6148418 -0.108615E+03  0.603E-02    3.48       0.0  T
   2   -108.6148427 -0.886792E-06  0.354E-02    3.48       1.0  T
   3   -108.6148411  0.158972E-05  0.504E-03    3.48       2.6  T
   4   -108.6148431 -0.193014E-05  0.861E-04    3.48      15.0  T
   5   -108.6148431 -0.226566E-07  0.431E-04    3.48      29.9  T
   6   -108.6148431 -0.798011E-09  0.164E-04    3.48      78.9  T
     SCC iter.                  ...        0 min,  0.085 sec
     gradient                   ...        0 min,  0.124 sec
 * total energy  :  -107.0683368 Eh     change       -0.7746185E-04 Eh
   gradient norm :     0.0027231 Eh/α   predicted    -0.5141104E-04 ( -33.63%)
   displ. norm   :     0.3535674 α      lambda       -0.1159983E-03
   maximum displ.:     0.1734920 α      in ANC's #3, #1, #4, ...

........................................................................
.............................. CYCLE   16 ..............................
........................................................................
   1   -108.6150497 -0.108615E+03  0.795E-02    3.49       0.0  T
   2   -108.6150508 -0.111977E-05  0.466E-02    3.49       1.0  T
   3   -108.6150485  0.231315E-05  0.608E-03    3.49       2.1  T
   4   -108.6150513 -0.284234E-05  0.977E-04    3.49      13.2  T
   5   -108.6150513 -0.169733E-07  0.519E-04    3.49      24.9  T
   6   -108.6150513 -0.123424E-08  0.186E-04    3.49      69.4  T
     SCC iter.                  ...        0 min,  0.085 sec
     gradient                   ...        0 min,  0.135 sec
 * total energy  :  -107.0684281 Eh     change       -0.9131691E-04 Eh
   gradient norm :     0.0029620 Eh/α   predicted    -0.6525337E-04 ( -28.54%)
   displ. norm   :     0.3627331 α      lambda       -0.1038734E-03
   maximum displ.:     0.1802365 α      in ANC's #3, #1, #7, ...

........................................................................
.............................. CYCLE   17 ..............................
........................................................................
   1   -108.6153417 -0.108615E+03  0.817E-02    3.49       0.0  T
   2   -108.6153430 -0.134529E-05  0.479E-02    3.49       1.0  T
   3   -108.6153402  0.282413E-05  0.667E-03    3.50       1.9  T
   4   -108.6153436 -0.343885E-05  0.101E-03    3.49      12.8  T
   5   -108.6153436 -0.217151E-07  0.549E-04    3.49      23.5  T
   6   -108.6153437 -0.171700E-08  0.221E-04    3.49      58.4  T
     SCC iter.                  ...        0 min,  0.083 sec
     gradient                   ...        0 min,  0.124 sec
 * total energy  :  -107.0685080 Eh     change       -0.7992827E-04 Eh
   gradient norm :     0.0028607 Eh/α   predicted    -0.5877174E-04 ( -26.47%)
   displ. norm   :     0.3370293 α      lambda       -0.8427840E-04
   maximum displ.:     0.1686604 α      in ANC's #3, #1, #7, ...

........................................................................
.............................. CYCLE   18 ..............................
........................................................................
   1   -108.6156188 -0.108616E+03  0.762E-02    3.49       0.0  T
   2   -108.6156201 -0.136834E-05  0.447E-02    3.49       1.0  T
   3   -108.6156175  0.263799E-05  0.659E-03    3.49       2.0  T
   4   -108.6156207 -0.322114E-05  0.997E-04    3.49      12.9  T
   5   -108.6156207 -0.258078E-07  0.540E-04    3.49      23.9  T
   6   -108.6156207 -0.165744E-08  0.217E-04    3.49      59.5  T
     SCC iter.                  ...        0 min,  0.083 sec
     gradient                   ...        0 min,  0.135 sec
 * total energy  :  -107.0685733 Eh     change       -0.6524917E-04 Eh
   gradient norm :     0.0024484 Eh/α   predicted    -0.4692881E-04 ( -28.08%)
   displ. norm   :     0.3142581 α      lambda       -0.7431231E-04
   maximum displ.:     0.1579240 α      in ANC's #3, #1, #7, ...

........................................................................
.............................. CYCLE   19 ..............................
........................................................................
   1   -108.6161012 -0.108616E+03  0.730E-02    3.49       0.0  T
   2   -108.6161026 -0.137224E-05  0.428E-02    3.49       1.0  T
   3   -108.6160999  0.266441E-05  0.668E-03    3.49       1.9  T
   4   -108.6161031 -0.324943E-05  0.997E-04    3.49      13.0  T
   5   -108.6161032 -0.258342E-07  0.547E-04    3.49      23.6  T
   6   -108.6161032 -0.150588E-08  0.224E-04    3.49      57.6  T
     SCC iter.                  ...        0 min,  0.083 sec
     gradient                   ...        0 min,  0.137 sec
 * total energy  :  -107.0686311 Eh     change       -0.5783067E-04 Eh
   gradient norm :     0.0025217 Eh/α   predicted    -0.4082802E-04 ( -29.40%)
   displ. norm   :     0.3167666 α      lambda       -0.7079636E-04
   maximum displ.:     0.1582153 α      in ANC's #3, #1, #7, ...

........................................................................
.............................. CYCLE   20 ..............................
........................................................................
   1   -108.6161639 -0.108616E+03  0.757E-02    3.49       0.0  T
   2   -108.6161654 -0.152593E-05  0.443E-02    3.49       1.0  T
   3   -108.6161631  0.227403E-05  0.644E-03    3.49       2.0  T
   4   -108.6161660 -0.283198E-05  0.112E-03    3.49      11.5  T
   5   -108.6161660 -0.356902E-07  0.593E-04    3.49      21.8  T
   6   -108.6161660 -0.163983E-08  0.247E-04    3.49      52.2  T
     SCC iter.                  ...        0 min,  0.087 sec
     gradient                   ...        0 min,  0.147 sec
 * total energy  :  -107.0686867 Eh     change       -0.5559234E-04 Eh
   gradient norm :     0.0025090 Eh/α   predicted    -0.3895515E-04 ( -29.93%)
   displ. norm   :     0.3142505 α      lambda       -0.6844900E-04
   maximum displ.:     0.1532237 α      in ANC's #3, #1, #7, ...
 * RMSD in coord.:     0.5967608 α      energy gain  -0.1787169E-01 Eh

generating ANC from model Hessian ...
Using Lindh-Hessian (1995)
 Shifting diagonal of input Hessian by    9.7627783858789084E-003
 Lowest  eigenvalues of input Hessian
    0.000000    0.000000    0.000000    0.000000    0.000000    0.000000
    0.010000    0.010114    0.010245    0.010408    0.010687    0.010748
    0.010921    0.010983    0.011092    0.011416    0.011919    0.012278
 Highest eigenvalues
    2.053896    2.106284    2.115668    2.342479    2.347526    2.403670


........................................................................
.............................. CYCLE   21 ..............................
........................................................................
   1   -108.6166758 -0.108617E+03  0.776E-02    3.50       0.0  T
   2   -108.6166773 -0.151297E-05  0.454E-02    3.49       1.0  T
   3   -108.6166750  0.233029E-05  0.655E-03    3.49       2.0  T
   4   -108.6166779 -0.291128E-05  0.118E-03    3.49      11.0  T
   5   -108.6166779 -0.366658E-07  0.637E-04    3.49      20.3  T
   6   -108.6166779 -0.153275E-08  0.255E-04    3.49      50.7  T
     SCC iter.                  ...        0 min,  0.084 sec
     gradient                   ...        0 min,  0.135 sec
 * total energy  :  -107.0687391 Eh     change       -0.5239026E-04 Eh
   gradient norm :     0.0024783 Eh/α   predicted     0.0000000E+00 (-100.00%)
   displ. norm   :     0.0357135 α      lambda       -0.2604472E-04
   maximum displ.:     0.0169420 α      in ANC's #11, #10, #13, ...

........................................................................
.............................. CYCLE   22 ..............................
........................................................................
   1   -108.6170028 -0.108617E+03  0.101E-02    3.49       0.0  T
   2   -108.6170030 -0.124213E-06  0.599E-03    3.49       2.2  T
   3   -108.6170029  0.926448E-07  0.150E-03    3.49       8.6  T
   4   -108.6170030 -0.116932E-06  0.262E-04    3.49      49.3  T
   5   -108.6170030 -0.288405E-08  0.106E-04    3.49     121.9  T
     SCC iter.                  ...        0 min,  0.077 sec
     gradient                   ...        0 min,  0.120 sec
 * total energy  :  -107.0687607 Eh     change       -0.2163043E-04 Eh
   gradient norm :     0.0011238 Eh/α   predicted    -0.1305717E-04 ( -39.64%)
   displ. norm   :     0.1690941 α      lambda       -0.5166084E-04
   maximum displ.:     0.0829374 α      in ANC's #11, #10, #13, ...

........................................................................
.............................. CYCLE   23 ..............................
........................................................................
   1   -108.6172667 -0.108617E+03  0.445E-02    3.49       0.0  T
   2   -108.6172677 -0.948614E-06  0.261E-02    3.49       1.0  T
   3   -108.6172664  0.123717E-05  0.496E-03    3.49       2.6  T
   4   -108.6172679 -0.151008E-05  0.844E-04    3.49      15.3  T
   5   -108.6172680 -0.237393E-07  0.399E-04    3.49      32.4  T
   6   -108.6172680 -0.150996E-08  0.204E-04    3.49      63.2  T
     SCC iter.                  ...        0 min,  0.087 sec
     gradient                   ...        0 min,  0.114 sec
 * total energy  :  -107.0687936 Eh     change       -0.3292993E-04 Eh
   gradient norm :     0.0030028 Eh/α   predicted    -0.2619917E-04 ( -20.44%)
   displ. norm   :     0.0235858 α      lambda       -0.1263072E-04
   maximum displ.:     0.0115876 α      in ANC's #7, #11, #10, ...

........................................................................
.............................. CYCLE   24 ..............................
........................................................................
   1   -108.6172130 -0.108617E+03  0.619E-03    3.49       0.0  T
   2   -108.6172130 -0.814258E-07  0.371E-03    3.49       3.5  T
   3   -108.6172130  0.728184E-07  0.134E-03    3.49       9.6  T
   4   -108.6172131 -0.944082E-07  0.225E-04    3.49      57.3  T
   5   -108.6172131 -0.299276E-08  0.785E-05    3.49     164.5  T
     SCC iter.                  ...        0 min,  0.069 sec
     gradient                   ...        0 min,  0.135 sec
 * total energy  :  -107.0688045 Eh     change       -0.1087148E-04 Eh
   gradient norm :     0.0019118 Eh/α   predicted    -0.6333232E-05 ( -41.74%)
   displ. norm   :     0.1382090 α      lambda       -0.3021782E-04
   maximum displ.:     0.0690728 α      in ANC's #7, #11, #10, ...

........................................................................
.............................. CYCLE   25 ..............................
........................................................................
   1   -108.6169851 -0.108617E+03  0.344E-02    3.49       0.0  T
   2   -108.6169866 -0.148455E-05  0.204E-02    3.49       1.0  T
   3   -108.6169846  0.194560E-05  0.631E-03    3.49       2.0  T
   4   -108.6169870 -0.239087E-05  0.984E-04    3.49      13.1  T
   5   -108.6169871 -0.526644E-07  0.385E-04    3.49      33.5  T
   6   -108.6169871 -0.267313E-08  0.192E-04    3.49      67.2  T
     SCC iter.                  ...        0 min,  0.082 sec
     gradient                   ...        0 min,  0.134 sec
 * total energy  :  -107.0688237 Eh     change       -0.1918731E-04 Eh
   gradient norm :     0.0022573 Eh/α   predicted    -0.1523763E-04 ( -20.58%)
   displ. norm   :     0.0284591 α      lambda       -0.7234622E-05
   maximum displ.:     0.0156042 α      in ANC's #7, #10, #1, ...

........................................................................
.............................. CYCLE   26 ..............................
........................................................................
   1   -108.6170146 -0.108617E+03  0.757E-03    3.49       0.0  T
   2   -108.6170146 -0.296823E-07  0.446E-03    3.49       2.9  T
   3   -108.6170146  0.251577E-07  0.728E-04    3.49      17.7  T
   4   -108.6170146 -0.314780E-07  0.144E-04    3.49      89.5  T
     SCC iter.                  ...        0 min,  0.055 sec
     gradient                   ...        0 min,  0.133 sec
 * total energy  :  -107.0688300 Eh     change       -0.6318566E-05 Eh
   gradient norm :     0.0015511 Eh/α   predicted    -0.3642644E-05 ( -42.35%)
   displ. norm   :     0.1266548 α      lambda       -0.1763887E-04
   maximum displ.:     0.0726532 α      in ANC's #7, #5, #1, ...

........................................................................
.............................. CYCLE   27 ..............................
........................................................................
   1   -108.6171889 -0.108617E+03  0.344E-02    3.49       0.0  T
   2   -108.6171894 -0.512625E-06  0.203E-02    3.49       1.0  T
   3   -108.6171890  0.446562E-06  0.303E-03    3.49       4.3  T
   4   -108.6171895 -0.561809E-06  0.647E-04    3.49      20.0  T
   5   -108.6171896 -0.153468E-07  0.299E-04    3.49      43.1  T
     SCC iter.                  ...        0 min,  0.069 sec
     gradient                   ...        0 min,  0.129 sec
 * total energy  :  -107.0688435 Eh     change       -0.1353128E-04 Eh
   gradient norm :     0.0014977 Eh/α   predicted    -0.8882800E-05 ( -34.35%)
   displ. norm   :     0.0604768 α      lambda       -0.5501006E-05
   maximum displ.:     0.0374087 α      in ANC's #7, #1, #5, ...

........................................................................
.............................. CYCLE   28 ..............................
........................................................................
   1   -108.6171244 -0.108617E+03  0.168E-02    3.49       0.0  T
   2   -108.6171245 -0.665675E-07  0.987E-03    3.49       1.3  T
   3   -108.6171244  0.130258E-06  0.152E-03    3.49       8.5  T
   4   -108.6171245 -0.161497E-06  0.247E-04    3.49      52.4  T
   5   -108.6171245 -0.103314E-08  0.141E-04    3.49      91.9  T
     SCC iter.                  ...        0 min,  0.107 sec
     gradient                   ...        0 min,  0.131 sec
 * total energy  :  -107.0688509 Eh     change       -0.7340234E-05 Eh
   gradient norm :     0.0010430 Eh/α   predicted    -0.2755088E-05 ( -62.47%)
   displ. norm   :     0.1234174 α      lambda       -0.1224112E-04
   maximum displ.:     0.0758131 α      in ANC's #7, #1, #5, ...

........................................................................
.............................. CYCLE   29 ..............................
........................................................................
   1   -108.6171982 -0.108617E+03  0.354E-02    3.50       0.0  T
   2   -108.6171985 -0.294391E-06  0.208E-02    3.49       1.0  T
   3   -108.6171980  0.546689E-06  0.319E-03    3.50       4.0  T
   4   -108.6171987 -0.680243E-06  0.489E-04    3.49      26.4  T
   5   -108.6171987 -0.394726E-08  0.281E-04    3.49      45.9  T
     SCC iter.                  ...        0 min,  0.084 sec
     gradient                   ...        0 min,  0.120 sec
 * total energy  :  -107.0688647 Eh     change       -0.1381698E-04 Eh
   gradient norm :     0.0005283 Eh/α   predicted    -0.6162311E-05 ( -55.40%)
   displ. norm   :     0.1503806 α      lambda       -0.9565667E-05
   maximum displ.:     0.0924677 α      in ANC's #7, #1, #5, ...

........................................................................
.............................. CYCLE   30 ..............................
........................................................................
   1   -108.6169754 -0.108617E+03  0.432E-02    3.50       0.0  T
   2   -108.6169757 -0.304225E-06  0.254E-02    3.49       1.0  T
   3   -108.6169750  0.649345E-06  0.341E-03    3.50       3.8  T
   4   -108.6169759 -0.811023E-06  0.526E-04    3.49      24.5  T
   5   -108.6169759 -0.283741E-08  0.307E-04    3.49      42.1  T
     SCC iter.                  ...        0 min,  0.069 sec
     gradient                   ...        0 min,  0.141 sec
 * total energy  :  -107.0688760 Eh     change       -0.1132618E-04 Eh
   gradient norm :     0.0010639 Eh/α   predicted    -0.4831226E-05 ( -57.34%)
   displ. norm   :     0.1534098 α      lambda       -0.8877156E-05
   maximum displ.:     0.0938628 α      in ANC's #7, #1, #5, ...

........................................................................
.............................. CYCLE   31 ..............................
........................................................................
   1   -108.6170393 -0.108617E+03  0.441E-02    3.50       0.0  T
   2   -108.6170395 -0.263266E-06  0.259E-02    3.50       1.0  T
   3   -108.6170389  0.643945E-06  0.335E-03    3.50       3.8  T
   4   -108.6170397 -0.800435E-06  0.492E-04    3.50      26.3  T
   5   -108.6170397 -0.904734E-09  0.282E-04    3.50      45.7  T
     SCC iter.                  ...        0 min,  0.069 sec
     gradient                   ...        0 min,  0.130 sec
 * total energy  :  -107.0688875 Eh     change       -0.1144657E-04 Eh
   gradient norm :     0.0011190 Eh/α   predicted    -0.4486257E-05 ( -60.81%)
   displ. norm   :     0.2322181 α      lambda       -0.1387056E-04
   maximum displ.:     0.1406621 α      in ANC's #7, #1, #5, ...

........................................................................
.............................. CYCLE   32 ..............................
........................................................................
   1   -108.6171014 -0.108617E+03  0.664E-02    3.50       0.0  T
   2   -108.6171020 -0.586020E-06  0.390E-02    3.50       1.0  T
   3   -108.6171004  0.159394E-05  0.517E-03    3.50       2.5  T
   4   -108.6171023 -0.195439E-05  0.705E-04    3.50      18.3  T
   5   -108.6171023 -0.173657E-08  0.408E-04    3.50      31.7  T
   6   -108.6171023 -0.296683E-08  0.980E-05    3.50     131.7  T
     SCC iter.                  ...        0 min,  0.083 sec
     gradient                   ...        0 min,  0.142 sec
 * total energy  :  -107.0689047 Eh     change       -0.1721716E-04 Eh
   gradient norm :     0.0009841 Eh/α   predicted    -0.7103181E-05 ( -58.74%)
   displ. norm   :     0.3182128 α      lambda       -0.1734944E-04
   maximum displ.:     0.1917325 α      in ANC's #7, #1, #5, ...

........................................................................
.............................. CYCLE   33 ..............................
........................................................................
   1   -108.6168290 -0.108617E+03  0.904E-02    3.50       0.0  T
   2   -108.6168301 -0.110270E-05  0.530E-02    3.50       1.0  T
   3   -108.6168271  0.301269E-05  0.709E-03    3.50       1.8  T
   4   -108.6168308 -0.368357E-05  0.949E-04    3.50      13.6  T
   5   -108.6168308 -0.412591E-08  0.552E-04    3.50      23.4  T
   6   -108.6168308 -0.501494E-08  0.138E-04    3.50      93.8  T
     SCC iter.                  ...        0 min,  0.081 sec
     gradient                   ...        0 min,  0.147 sec
 * total energy  :  -107.0689244 Eh     change       -0.1972394E-04 Eh
   gradient norm :     0.0011826 Eh/α   predicted    -0.9065517E-05 ( -54.04%)
   displ. norm   :     0.3172448 α      lambda       -0.1799454E-04
   maximum displ.:     0.1895715 α      in ANC's #7, #1, #5, ...

........................................................................
.............................. CYCLE   34 ..............................
........................................................................
   1   -108.6170866 -0.108617E+03  0.888E-02    3.50       0.0  T
   2   -108.6170878 -0.115247E-05  0.521E-02    3.50       1.0  T
   3   -108.6170846  0.318334E-05  0.726E-03    3.51       1.8  T
   4   -108.6170885 -0.387566E-05  0.931E-04    3.50      13.9  T
   5   -108.6170885 -0.475883E-08  0.542E-04    3.50      23.8  T
   6   -108.6170885 -0.412902E-08  0.153E-04    3.50      84.3  T
     SCC iter.                  ...        0 min,  0.085 sec
     gradient                   ...        0 min,  0.171 sec
 * total energy  :  -107.0689441 Eh     change       -0.1967904E-04 Eh
   gradient norm :     0.0011354 Eh/α   predicted    -0.9402757E-05 ( -52.22%)
   displ. norm   :     0.3109032 α      lambda       -0.1937845E-04
   maximum displ.:     0.1827191 α      in ANC's #7, #1, #5, ...

........................................................................
.............................. CYCLE   35 ..............................
........................................................................
   1   -108.6175927 -0.108618E+03  0.863E-02    3.51       0.0  T
   2   -108.6175939 -0.122822E-05  0.506E-02    3.51       1.0  T
   3   -108.6175909  0.304853E-05  0.723E-03    3.51       1.8  T
   4   -108.6175946 -0.373836E-05  0.957E-04    3.51      13.5  T
   5   -108.6175946 -0.665636E-08  0.557E-04    3.51      23.2  T
   6   -108.6175946 -0.324390E-08  0.187E-04    3.51      69.0  T
     SCC iter.                  ...        0 min,  0.081 sec
     gradient                   ...        0 min,  0.146 sec
 * total energy  :  -107.0689668 Eh     change       -0.2267634E-04 Eh
   gradient norm :     0.0009226 Eh/α   predicted    -0.1010675E-04 ( -55.43%)
   displ. norm   :     0.4541598 α      lambda       -0.2465333E-04
   maximum displ.:     0.2691816 α      in ANC's #7, #1, #9, ...

........................................................................
.............................. CYCLE   36 ..............................
........................................................................
   1   -108.6161272 -0.108616E+03  0.127E-01    3.50       0.0  T
   2   -108.6161297 -0.257199E-05  0.746E-02    3.50       1.0  T
   3   -108.6161238  0.594432E-05  0.102E-02    3.50       1.3  T
   4   -108.6161311 -0.735652E-05  0.141E-03    3.50       9.2  T
   5   -108.6161312 -0.146498E-07  0.812E-04    3.50      15.9  T
   6   -108.6161312 -0.596023E-08  0.283E-04    3.50      45.6  T
     SCC iter.                  ...        0 min,  0.082 sec
     gradient                   ...        0 min,  0.151 sec
 * total energy  :  -107.0689895 Eh     change       -0.2270106E-04 Eh
   gradient norm :     0.0024483 Eh/α   predicted    -0.1345871E-04 ( -40.71%)
   displ. norm   :     0.2320569 α      lambda       -0.4771781E-04
   maximum displ.:     0.1097802 α      in ANC's #7, #9, #4, ...

........................................................................
.............................. CYCLE   37 ..............................
........................................................................
   1   -108.6187654 -0.108619E+03  0.636E-02    3.50       0.0  T
   2   -108.6187664 -0.100578E-05  0.373E-02    3.50       1.0  T
   3   -108.6187644  0.198941E-05  0.606E-03    3.50       2.1  T
   4   -108.6187669 -0.250601E-05  0.945E-04    3.50      13.7  T
   5   -108.6187669 -0.767129E-08  0.541E-04    3.50      23.8  T
   6   -108.6187669 -0.218965E-08  0.199E-04    3.50      64.8  T
     SCC iter.                  ...        0 min,  0.082 sec
     gradient                   ...        0 min,  0.139 sec
 * total energy  :  -107.0690091 Eh     change       -0.1964126E-04 Eh
   gradient norm :     0.0021807 Eh/α   predicted    -0.2514460E-04 (  28.02%)
   displ. norm   :     0.2202386 α      lambda       -0.2232385E-04
   maximum displ.:     0.1320253 α      in ANC's #7, #1, #9, ...

........................................................................
.............................. CYCLE   38 ..............................
........................................................................
   1   -108.6172001 -0.108617E+03  0.621E-02    3.50       0.0  T
   2   -108.6172007 -0.544809E-06  0.365E-02    3.50       1.0  T
   3   -108.6171995  0.115932E-05  0.464E-03    3.50       2.8  T
   4   -108.6172010 -0.146289E-05  0.689E-04    3.50      18.7  T
   5   -108.6172010 -0.140271E-08  0.388E-04    3.50      33.3  T
   6   -108.6172010 -0.230963E-08  0.103E-04    3.50     125.9  T
     SCC iter.                  ...        0 min,  0.081 sec
     gradient                   ...        0 min,  0.130 sec
 * total energy  :  -107.0690224 Eh     change       -0.1326417E-04 Eh
   gradient norm :     0.0015794 Eh/α   predicted    -0.1170441E-04 ( -11.76%)
   displ. norm   :     0.0808573 α      lambda       -0.1195530E-04
   maximum displ.:     0.0438653 α      in ANC's #7, #10, #1, ...

........................................................................
.............................. CYCLE   39 ..............................
........................................................................
   1   -108.6176251 -0.108618E+03  0.226E-02    3.52       0.0  T
   2   -108.6176256 -0.466340E-06  0.133E-02    3.51       1.0  T
   3   -108.6176252  0.398434E-06  0.331E-03    3.51       3.9  T
   4   -108.6176257 -0.509738E-06  0.467E-04    3.51      27.6  T
   5   -108.6176257 -0.101339E-07  0.205E-04    3.51      63.0  T
     SCC iter.                  ...        0 min,  0.073 sec
     gradient                   ...        0 min,  0.142 sec
 * total energy  :  -107.0690324 Eh     change       -0.1005848E-04 Eh
   gradient norm :     0.0018768 Eh/α   predicted    -0.5994916E-05 ( -40.40%)
   displ. norm   :     0.1653474 α      lambda       -0.1148603E-04
   maximum displ.:     0.0954621 α      in ANC's #7, #9, #1, ...

........................................................................
.............................. CYCLE   40 ..............................
........................................................................
   1   -108.6175508 -0.108618E+03  0.446E-02    3.51       0.0  T
   2   -108.6175511 -0.342268E-06  0.262E-02    3.51       1.0  T
   3   -108.6175506  0.580855E-06  0.328E-03    3.51       3.9  T
   4   -108.6175513 -0.731491E-06  0.504E-04    3.51      25.6  T
   5   -108.6175513 -0.380219E-08  0.267E-04    3.51      48.4  T
     SCC iter.                  ...        0 min,  0.074 sec
     gradient                   ...        0 min,  0.134 sec
 * total energy  :  -107.0690454 Eh     change       -0.1297790E-04 Eh
   gradient norm :     0.0016470 Eh/α   predicted    -0.5817276E-05 ( -55.18%)
   displ. norm   :     0.1821745 α      lambda       -0.2339907E-04
   maximum displ.:     0.0833207 α      in ANC's #7, #10, #13, ...

........................................................................
.............................. CYCLE   41 ..............................
........................................................................
   1   -108.6189703 -0.108619E+03  0.472E-02    3.51       0.0  T
   2   -108.6189710 -0.676519E-06  0.276E-02    3.51       1.0  T
   3   -108.6189701  0.940515E-06  0.440E-03    3.51       2.9  T
   4   -108.6189713 -0.120446E-05  0.765E-04    3.51      16.9  T
   5   -108.6189713 -0.998139E-08  0.425E-04    3.51      30.4  T
   6   -108.6189713 -0.970559E-09  0.181E-04    3.51      71.4  T
     SCC iter.                  ...        0 min,  0.083 sec
     gradient                   ...        0 min,  0.132 sec
 * total energy  :  -107.0690644 Eh     change       -0.1902085E-04 Eh
   gradient norm :     0.0019869 Eh/α   predicted    -0.1187493E-04 ( -37.57%)
   displ. norm   :     0.5139681 α      lambda       -0.2740544E-04
   maximum displ.:     0.3061171 α      in ANC's #7, #9, #1, ...

........................................................................
.............................. CYCLE   42 ..............................
........................................................................
   1   -108.6146481 -0.108615E+03  0.144E-01    3.50       0.0  T
   2   -108.6146503 -0.222489E-05  0.843E-02    3.50       1.0  T
   3   -108.6146461  0.417688E-05  0.894E-03    3.50       1.4  T
   4   -108.6146516 -0.543215E-05  0.143E-03    3.50       9.0  T
   5   -108.6146516 -0.619977E-08  0.777E-04    3.50      16.6  T
   6   -108.6146516 -0.853227E-08  0.214E-04    3.50      60.3  T
     SCC iter.                  ...        0 min,  0.087 sec
     gradient                   ...        0 min,  0.147 sec
 * total energy  :  -107.0690487 Eh     change        0.1574537E-04 Eh
   gradient norm :     0.0058260 Eh/α   predicted    -0.1531224E-04 (-197.25%)
   displ. norm   :     0.1797920 α      lambda       -0.6951592E-04
   maximum displ.:     0.1048466 α      in ANC's #7, #9, #1, ...
 * RMSD in coord.:     0.4409097 α      energy gain  -0.3620040E-03 Eh

generating ANC from model Hessian ...
Using Lindh-Hessian (1995)
 Shifting diagonal of input Hessian by    9.7566218062349035E-003
 Lowest  eigenvalues of input Hessian
    0.000000    0.000000    0.000000    0.000000    0.000000    0.000000
    0.010000    0.010123    0.010259    0.010421    0.010641    0.010707
    0.010934    0.010981    0.011090    0.011440    0.011865    0.012280
 Highest eigenvalues
    2.053531    2.108279    2.115163    2.344671    2.350514    2.403163


........................................................................
.............................. CYCLE   43 ..............................
........................................................................
   1   -108.6170384 -0.108617E+03  0.504E-02    3.51       0.0  T
   2   -108.6170388 -0.385850E-06  0.296E-02    3.51       1.0  T
   3   -108.6170382  0.627282E-06  0.343E-03    3.51       3.8  T
   4   -108.6170390 -0.811399E-06  0.552E-04    3.51      23.4  T
   5   -108.6170390 -0.255051E-08  0.311E-04    3.51      41.5  T
     SCC iter.                  ...        0 min,  0.069 sec
     gradient                   ...        0 min,  0.133 sec
 * total energy  :  -107.0690900 Eh     change       -0.4128262E-04 Eh
   gradient norm :     0.0025890 Eh/α   predicted     0.0000000E+00 (-100.00%)
   displ. norm   :     0.0238707 α      lambda       -0.2062473E-04
   maximum displ.:     0.0102025 α      in ANC's #10, #13, #11, ...

........................................................................
.............................. CYCLE   44 ..............................
........................................................................
   1   -108.6180263 -0.108618E+03  0.854E-03    3.51       0.0  T
   2   -108.6180263 -0.463495E-07  0.506E-03    3.51       2.6  T
   3   -108.6180263  0.655027E-07  0.113E-03    3.51      11.4  T
   4   -108.6180263 -0.803956E-07  0.189E-04    3.51      68.2  T
   5   -108.6180263 -0.939366E-09  0.105E-04    3.51     122.9  T
     SCC iter.                  ...        0 min,  0.069 sec
     gradient                   ...        0 min,  0.122 sec
 * total energy  :  -107.0691047 Eh     change       -0.1476092E-04 Eh
   gradient norm :     0.0009280 Eh/α   predicted    -0.1032960E-04 ( -30.02%)
   displ. norm   :     0.0661369 α      lambda       -0.1541692E-04
   maximum displ.:     0.0311430 α      in ANC's #10, #13, #11, ...

........................................................................
.............................. CYCLE   45 ..............................
........................................................................
   1   -108.6189841 -0.108619E+03  0.192E-02    3.52       0.0  T
   2   -108.6189843 -0.126244E-06  0.113E-02    3.52       1.1  T
   3   -108.6189840  0.296569E-06  0.217E-03    3.52       5.9  T
   4   -108.6189843 -0.360845E-06  0.361E-04    3.52      35.8  T
   5   -108.6189843 -0.145360E-08  0.201E-04    3.52      64.1  T
     SCC iter.                  ...        0 min,  0.068 sec
     gradient                   ...        0 min,  0.148 sec
 * total energy  :  -107.0691174 Eh     change       -0.1263302E-04 Eh
   gradient norm :     0.0016561 Eh/α   predicted    -0.7733009E-05 ( -38.79%)
   displ. norm   :     0.0661422 α      lambda        0.1118028E-04
   maximum displ.:     0.0311423 α      in ANC's #10, #13, #11, ...

........................................................................
.............................. CYCLE   46 ..............................
........................................................................
   1   -108.6198598 -0.108620E+03  0.192E-02    3.52       0.0  T
   2   -108.6198599 -0.127614E-06  0.113E-02    3.52       1.1  T
   3   -108.6198596  0.299236E-06  0.219E-03    3.52       5.9  T
   4   -108.6198600 -0.364454E-06  0.361E-04    3.52      35.7  T
   5   -108.6198600 -0.140858E-08  0.202E-04    3.52      63.9  T
     SCC iter.                  ...        0 min,  0.073 sec
     gradient                   ...        0 min,  0.119 sec
 * total energy  :  -107.0691092 Eh     change        0.8217460E-05 Eh
   gradient norm :     0.0037611 Eh/α   predicted     0.5600938E-05 ( -31.84%)
   displ. norm   :     0.0161944 α      lambda       -0.1816963E-04
   maximum displ.:     0.0091197 α      in ANC's #13, #18, #11, ...

........................................................................
.............................. CYCLE   47 ..............................
........................................................................
   1   -108.6190002 -0.108619E+03  0.589E-03    3.52       0.0  T
   2   -108.6190002 -0.359096E-07  0.351E-03    3.52       3.7  T
   3   -108.6190002  0.482808E-07  0.101E-03    3.52      12.7  T
   4   -108.6190002 -0.603044E-07  0.163E-04    3.52      79.3  T
   5   -108.6190002 -0.721073E-09  0.885E-05    3.52     145.8  T
     SCC iter.                  ...        0 min,  0.069 sec
     gradient                   ...        0 min,  0.149 sec
 * total energy  :  -107.0691227 Eh     change       -0.1352918E-04 Eh
   gradient norm :     0.0018898 Eh/α   predicted    -0.9095729E-05 ( -32.77%)
   displ. norm   :     0.0364795 α      lambda       -0.1239902E-04
   maximum displ.:     0.0175333 α      in ANC's #9, #10, #3, ...

........................................................................
.............................. CYCLE   48 ..............................
........................................................................
   1   -108.6177411 -0.108618E+03  0.120E-02    3.51       0.0  T
   2   -108.6177412 -0.942769E-07  0.711E-03    3.51       1.8  T
   3   -108.6177411  0.124612E-06  0.168E-03    3.51       7.7  T
   4   -108.6177413 -0.156488E-06  0.241E-04    3.51      53.7  T
   5   -108.6177413 -0.100228E-08  0.133E-04    3.51      97.3  T
     SCC iter.                  ...        0 min,  0.069 sec
     gradient                   ...        0 min,  0.123 sec
 * total energy  :  -107.0691312 Eh     change       -0.8513813E-05 Eh
   gradient norm :     0.0010264 Eh/α   predicted    -0.6206770E-05 ( -27.10%)
   displ. norm   :     0.0363780 α      lambda        0.1573678E-04
   maximum displ.:     0.0175377 α      in ANC's #9, #10, #3, ...

........................................................................
.............................. CYCLE   49 ..............................
........................................................................
   1   -108.6164560 -0.108616E+03  0.120E-02    3.50       0.0  T
   2   -108.6164561 -0.942493E-07  0.711E-03    3.51       1.8  T
   3   -108.6164560  0.123119E-06  0.167E-03    3.51       7.7  T
   4   -108.6164562 -0.154892E-06  0.241E-04    3.51      53.7  T
   5   -108.6164562 -0.974381E-09  0.133E-04    3.51      96.8  T
     SCC iter.                  ...        0 min,  0.076 sec
     gradient                   ...        0 min,  0.123 sec
 * total energy  :  -107.0691194 Eh     change        0.1177696E-04 Eh
   gradient norm :     0.0038189 Eh/α   predicted     0.7870737E-05 ( -33.17%)
   displ. norm   :     0.0153976 α      lambda       -0.1981544E-04
   maximum displ.:     0.0075400 α      in ANC's #13, #18, #11, ...

........................................................................
.............................. CYCLE   50 ..............................
........................................................................
   1   -108.6174059 -0.108617E+03  0.609E-03    3.51       0.0  T
   2   -108.6174059 -0.409520E-07  0.364E-03    3.51       3.6  T
   3   -108.6174058  0.517570E-07  0.109E-03    3.51      11.8  T
   4   -108.6174059 -0.655664E-07  0.168E-04    3.51      76.9  T
   5   -108.6174059 -0.716113E-09  0.921E-05    3.51     140.2  T
     SCC iter.                  ...        0 min,  0.069 sec
     gradient                   ...        0 min,  0.131 sec
 * total energy  :  -107.0691338 Eh     change       -0.1437966E-04 Eh
   gradient norm :     0.0017850 Eh/α   predicted    -0.9911354E-05 ( -31.07%)
   displ. norm   :     0.0523265 α      lambda       -0.1109370E-04
   maximum displ.:     0.0263025 α      in ANC's #10, #9, #3, ...

........................................................................
.............................. CYCLE   51 ..............................
........................................................................
   1   -108.6185691 -0.108619E+03  0.157E-02    3.52       0.0  T
   2   -108.6185692 -0.984383E-07  0.926E-03    3.52       1.4  T
   3   -108.6185690  0.209038E-06  0.193E-03    3.52       6.7  T
   4   -108.6185693 -0.253472E-06  0.285E-04    3.52      45.2  T
   5   -108.6185693 -0.165697E-08  0.164E-04    3.52      78.9  T
     SCC iter.                  ...        0 min,  0.069 sec
     gradient                   ...        0 min,  0.131 sec
 * total energy  :  -107.0691421 Eh     change       -0.8301131E-05 Eh
   gradient norm :     0.0008134 Eh/α   predicted    -0.5559125E-05 ( -33.03%)
   displ. norm   :     0.0547626 α      lambda       -0.4935156E-05
   maximum displ.:     0.0272595 α      in ANC's #9, #10, #7, ...

........................................................................
.............................. CYCLE   52 ..............................
........................................................................
   1   -108.6185071 -0.108619E+03  0.156E-02    3.52       0.0  T
   2   -108.6185071 -0.410803E-07  0.912E-03    3.52       1.4  T
   3   -108.6185070  0.114704E-06  0.136E-03    3.52       9.5  T
   4   -108.6185072 -0.139912E-06  0.184E-04    3.52      70.1  T
   5   -108.6185072 -0.980407E-10  0.105E-04    3.52     122.7  T
     SCC iter.                  ...        0 min,  0.073 sec
     gradient                   ...        0 min,  0.118 sec
 * total energy  :  -107.0691493 Eh     change       -0.7204022E-05 Eh
   gradient norm :     0.0006791 Eh/α   predicted    -0.2472960E-05 ( -65.67%)
   displ. norm   :     0.2561302 α      lambda       -0.2336269E-04
   maximum displ.:     0.1239059 α      in ANC's #9, #10, #7, ...

........................................................................
.............................. CYCLE   53 ..............................
........................................................................
   1   -108.6178007 -0.108618E+03  0.724E-02    3.52       0.0  T
   2   -108.6178016 -0.924532E-06  0.425E-02    3.52       1.0  T
   3   -108.6177989  0.272695E-05  0.655E-03    3.52       2.0  T
   4   -108.6178022 -0.329985E-05  0.843E-04    3.52      15.3  T
   5   -108.6178022 -0.309925E-08  0.488E-04    3.52      26.4  T
   6   -108.6178022 -0.301492E-08  0.149E-04    3.52      86.9  T
     SCC iter.                  ...        0 min,  0.085 sec
     gradient                   ...        0 min,  0.120 sec
 * total energy  :  -107.0691790 Eh     change       -0.2968931E-04 Eh
   gradient norm :     0.0006990 Eh/α   predicted    -0.1203665E-04 ( -59.46%)
   displ. norm   :     0.4808982 α      lambda       -0.3253373E-04
   maximum displ.:     0.2313006 α      in ANC's #10, #9, #7, ...

........................................................................
.............................. CYCLE   54 ..............................
........................................................................
   1   -108.6155365 -0.108616E+03  0.136E-01    3.52       0.0  T
   2   -108.6155398 -0.331636E-05  0.795E-02    3.52       1.0  T
   3   -108.6155290  0.107899E-04  0.128E-02    3.52       1.0  T
   4   -108.6155420 -0.129552E-04  0.156E-03    3.52       8.3  T
   5   -108.6155420 -0.717019E-08  0.899E-04    3.52      14.4  T
   6   -108.6155420 -0.113488E-07  0.268E-04    3.52      48.2  T
     SCC iter.                  ...        0 min,  0.083 sec
     gradient                   ...        0 min,  0.128 sec
 * total energy  :  -107.0692036 Eh     change       -0.2463753E-04 Eh
   gradient norm :     0.0029830 Eh/α   predicted    -0.1794013E-04 ( -27.18%)
   displ. norm   :     0.0401408 α      lambda       -0.1530736E-04
   maximum displ.:     0.0168192 α      in ANC's #3, #10, #9, ...

........................................................................
.............................. CYCLE   55 ..............................
........................................................................
   1   -108.6166981 -0.108617E+03  0.110E-02    3.52       0.0  T
   2   -108.6166982 -0.494038E-07  0.645E-03    3.52       2.0  T
   3   -108.6166981  0.857131E-07  0.135E-03    3.52       9.6  T
   4   -108.6166982 -0.105088E-06  0.180E-04    3.52      71.8  T
   5   -108.6166982 -0.905871E-09  0.968E-05    3.52     133.4  T
     SCC iter.                  ...        0 min,  0.069 sec
     gradient                   ...        0 min,  0.132 sec
 * total energy  :  -107.0692166 Eh     change       -0.1294323E-04 Eh
   gradient norm :     0.0020540 Eh/α   predicted    -0.7666730E-05 ( -40.77%)
   displ. norm   :     0.2319768 α      lambda       -0.3828792E-04
   maximum displ.:     0.1023504 α      in ANC's #10, #9, #3, ...

........................................................................
.............................. CYCLE   56 ..............................
........................................................................
   1   -108.6186875 -0.108619E+03  0.630E-02    3.52       0.0  T
   2   -108.6186884 -0.912133E-06  0.370E-02    3.52       1.0  T
   3   -108.6186859  0.247402E-05  0.637E-03    3.52       2.0  T
   4   -108.6186889 -0.297921E-05  0.792E-04    3.52      16.3  T
   5   -108.6186889 -0.994586E-08  0.470E-04    3.52      27.5  T
   6   -108.6186889 -0.165826E-08  0.137E-04    3.52      94.0  T
     SCC iter.                  ...        0 min,  0.088 sec
     gradient                   ...        0 min,  0.123 sec
 * total energy  :  -107.0692446 Eh     change       -0.2800566E-04 Eh
   gradient norm :     0.0009675 Eh/α   predicted    -0.2017880E-04 ( -27.95%)
   displ. norm   :     0.5939328 α      lambda       -0.3432311E-04
   maximum displ.:     0.2642518 α      in ANC's #10, #9, #7, ...

........................................................................
.............................. CYCLE   57 ..............................
........................................................................
   1   -108.6170210 -0.108617E+03  0.162E-01    3.52       0.0  T
   2   -108.6170267 -0.571062E-05  0.951E-02    3.52       1.0  T
   3   -108.6170075  0.191932E-04  0.171E-02    3.52       1.0  T
   4   -108.6170304 -0.228405E-04  0.191E-03    3.52       6.8  T
   5   -108.6170304 -0.314488E-07  0.114E-03    3.52      11.4  T
   6   -108.6170304 -0.958390E-08  0.344E-04    3.52      37.6  T
   7   -108.6170304 -0.381121E-08  0.108E-04    3.52     119.2  T
     SCC iter.                  ...        0 min,  0.099 sec
     gradient                   ...        0 min,  0.149 sec
 * total energy  :  -107.0692819 Eh     change       -0.3731786E-04 Eh
   gradient norm :     0.0014122 Eh/α   predicted    -0.1985264E-04 ( -46.80%)
   displ. norm   :     0.3790642 α      lambda       -0.3233089E-04
   maximum displ.:     0.1533492 α      in ANC's #7, #1, #3, ...

........................................................................
.............................. CYCLE   58 ..............................
........................................................................
   1   -108.6174242 -0.108617E+03  0.979E-02    3.53       0.0  T
   2   -108.6174270 -0.287297E-05  0.574E-02    3.53       1.0  T
   3   -108.6174185  0.849856E-05  0.115E-02    3.53       1.1  T
   4   -108.6174287 -0.101289E-04  0.133E-03    3.53       9.7  T
   5   -108.6174287 -0.325011E-07  0.781E-04    3.53      16.5  T
   6   -108.6174287 -0.405815E-08  0.249E-04    3.53      51.8  T
     SCC iter.                  ...        0 min,  0.088 sec
     gradient                   ...        0 min,  0.151 sec
 * total energy  :  -107.0693136 Eh     change       -0.3172853E-04 Eh
   gradient norm :     0.0019923 Eh/α   predicted    -0.1720893E-04 ( -45.76%)
   displ. norm   :     0.2565918 α      lambda       -0.2367435E-04
   maximum displ.:     0.1205994 α      in ANC's #1, #7, #3, ...

........................................................................
.............................. CYCLE   59 ..............................
........................................................................
   1   -108.6178537 -0.108618E+03  0.633E-02    3.52       0.0  T
   2   -108.6178553 -0.158966E-05  0.371E-02    3.53       1.0  T
   3   -108.6178511  0.421200E-05  0.818E-03    3.52       1.6  T
   4   -108.6178561 -0.501164E-05  0.983E-04    3.53      13.1  T
   5   -108.6178561 -0.283524E-07  0.543E-04    3.53      23.8  T
   6   -108.6178561 -0.183881E-08  0.213E-04    3.53      60.7  T
     SCC iter.                  ...        0 min,  0.082 sec
     gradient                   ...        0 min,  0.126 sec
 * total energy  :  -107.0693414 Eh     change       -0.2780375E-04 Eh
   gradient norm :     0.0012952 Eh/α   predicted    -0.1218504E-04 ( -56.17%)
   displ. norm   :     0.2664109 α      lambda       -0.2529517E-04
   maximum displ.:     0.1394691 α      in ANC's #1, #7, #2, ...

........................................................................
.............................. CYCLE   60 ..............................
........................................................................
   1   -108.6182231 -0.108618E+03  0.632E-02    3.52       0.0  T
   2   -108.6182248 -0.168699E-05  0.371E-02    3.53       1.0  T
   3   -108.6182192  0.558725E-05  0.934E-03    3.52       1.4  T
   4   -108.6182258 -0.661910E-05  0.947E-04    3.53      13.6  T
   5   -108.6182258 -0.189581E-07  0.549E-04    3.52      23.5  T
   6   -108.6182258 -0.214615E-08  0.183E-04    3.52      70.5  T
     SCC iter.                  ...        0 min,  0.083 sec
     gradient                   ...        0 min,  0.129 sec
 * total energy  :  -107.0693757 Eh     change       -0.3428261E-04 Eh
   gradient norm :     0.0010046 Eh/α   predicted    -0.1304963E-04 ( -61.94%)
   displ. norm   :     0.3562492 α      lambda       -0.4127772E-04
   maximum displ.:     0.2023506 α      in ANC's #1, #7, #2, ...

........................................................................
.............................. CYCLE   61 ..............................
........................................................................
   1   -108.6181519 -0.108618E+03  0.810E-02    3.52       0.0  T
   2   -108.6181553 -0.336993E-05  0.476E-02    3.52       1.0  T
   3   -108.6181437  0.115802E-04  0.136E-02    3.52       1.0  T
   4   -108.6181574 -0.137502E-04  0.129E-03    3.52      10.0  T
   5   -108.6181575 -0.353246E-07  0.747E-04    3.52      17.3  T
   6   -108.6181575 -0.365455E-08  0.272E-04    3.52      47.4  T
     SCC iter.                  ...        0 min,  0.082 sec
     gradient                   ...        0 min,  0.129 sec
 * total energy  :  -107.0694310 Eh     change       -0.5525558E-04 Eh
   gradient norm :     0.0014034 Eh/α   predicted    -0.2180339E-04 ( -60.54%)
   displ. norm   :     0.5183639 α      lambda       -0.6459573E-04
   maximum displ.:     0.3005209 α      in ANC's #1, #2, #7, ...

........................................................................
.............................. CYCLE   62 ..............................
........................................................................
   1   -108.6163051 -0.108616E+03  0.115E-01    3.51       0.0  T
   2   -108.6163135 -0.839931E-05  0.675E-02    3.52       1.0  T
   3   -108.6162865  0.269983E-04  0.211E-02    3.51       1.0  T
   4   -108.6163188 -0.322436E-04  0.200E-03    3.52       6.5  T
   5   -108.6163189 -0.108842E-06  0.111E-03    3.52      11.6  T
   6   -108.6163189 -0.590211E-08  0.475E-04    3.52      27.2  T
   7   -108.6163189 -0.621915E-08  0.163E-04    3.52      79.3  T
     SCC iter.                  ...        0 min,  0.101 sec
     gradient                   ...        0 min,  0.137 sec
 * total energy  :  -107.0695118 Eh     change       -0.8085467E-04 Eh
   gradient norm :     0.0028742 Eh/α   predicted    -0.3616412E-04 ( -55.27%)
   displ. norm   :     0.3672539 α      lambda       -0.8708030E-04
   maximum displ.:     0.2355753 α      in ANC's #1, #2, #12, ...

........................................................................
.............................. CYCLE   63 ..............................
........................................................................
   1   -108.6184670 -0.108618E+03  0.699E-02    3.51       0.0  T
   2   -108.6184716 -0.456961E-05  0.411E-02    3.51       1.0  T
   3   -108.6184608  0.107799E-04  0.140E-02    3.51       1.0  T
   4   -108.6184740 -0.131792E-04  0.162E-03    3.51       8.0  T
   5   -108.6184741 -0.954656E-07  0.837E-04    3.51      15.4  T
   6   -108.6184741 -0.427026E-08  0.396E-04    3.51      32.6  T
     SCC iter.                  ...        0 min,  0.082 sec
     gradient                   ...        0 min,  0.068 sec
 * total energy  :  -107.0695728 Eh     change       -0.6100426E-04 Eh
   gradient norm :     0.0033472 Eh/α   predicted    -0.4941776E-04 ( -18.99%)
   displ. norm   :     0.4645194 α      lambda       -0.1008129E-03
   maximum displ.:     0.2739680 α      in ANC's #1, #2, #7, ...

........................................................................
.............................. CYCLE   64 ..............................
........................................................................
   1   -108.6148478 -0.108615E+03  0.103E-01    3.51       0.0  T
   2   -108.6148548 -0.697752E-05  0.603E-02    3.51       1.0  T
   3   -108.6148320  0.227654E-04  0.196E-02    3.51       1.0  T
   4   -108.6148592 -0.271980E-04  0.170E-03    3.51       7.6  T
   5   -108.6148593 -0.827977E-07  0.928E-04    3.51      13.9  T
   6   -108.6148593 -0.437117E-08  0.438E-04    3.51      29.5  T
     SCC iter.                  ...        0 min,  0.084 sec
     gradient                   ...        0 min,  0.127 sec
 * total energy  :  -107.0696388 Eh     change       -0.6596617E-04 Eh
   gradient norm :     0.0038262 Eh/α   predicted    -0.6128320E-04 (  -7.10%)
   displ. norm   :     0.2416199 α      lambda       -0.6548755E-04
   maximum displ.:     0.1584043 α      in ANC's #1, #2, #13, ...

........................................................................
.............................. CYCLE   65 ..............................
........................................................................
   1   -108.6154105 -0.108615E+03  0.474E-02    3.51       0.0  T
   2   -108.6154117 -0.120168E-05  0.278E-02    3.51       1.0  T
   3   -108.6154075  0.415932E-05  0.826E-03    3.51       1.6  T
   4   -108.6154125 -0.495509E-05  0.781E-04    3.51      16.5  T
   5   -108.6154125 -0.780720E-08  0.464E-04    3.51      27.8  T
   6   -108.6154125 -0.263691E-08  0.200E-04    3.51      64.6  T
     SCC iter.                  ...        0 min,  0.083 sec
     gradient                   ...        0 min,  0.058 sec
 * total energy  :  -107.0696932 Eh     change       -0.5439660E-04 Eh
   gradient norm :     0.0026398 Eh/α   predicted    -0.3465625E-04 ( -36.29%)
   displ. norm   :     0.3353353 α      lambda       -0.9608343E-04
   maximum displ.:     0.2220688 α      in ANC's #1, #2, #13, ...

........................................................................
.............................. CYCLE   66 ..............................
........................................................................
   1   -108.6166534 -0.108617E+03  0.656E-02    3.51       0.0  T
   2   -108.6166553 -0.186519E-05  0.384E-02    3.51       1.0  T
   3   -108.6166488  0.640828E-05  0.102E-02    3.51       1.3  T
   4   -108.6166565 -0.761342E-05  0.104E-03    3.51      12.4  T
   5   -108.6166565 -0.121737E-07  0.615E-04    3.51      21.0  T
   6   -108.6166565 -0.428396E-08  0.236E-04    3.51      54.7  T
     SCC iter.                  ...        0 min,  0.087 sec
     gradient                   ...        0 min,  0.139 sec
 * total energy  :  -107.0697695 Eh     change       -0.7628112E-04 Eh
   gradient norm :     0.0022077 Eh/α   predicted    -0.5344605E-04 ( -29.94%)
   displ. norm   :     0.4275924 α      lambda       -0.9790929E-04
   maximum displ.:     0.2834802 α      in ANC's #1, #2, #13, ...
 * RMSD in coord.:     0.6169312 α      energy gain  -0.7207768E-03 Eh

generating ANC from model Hessian ...
Using Lindh-Hessian (1995)
[...]
       174                          0.6571305              17.8814
      -------------------------------------------------------------
                  HL-Gap            0.1268893 Eh            3.4528 eV
             Fermi-level           -0.3397565 Eh           -9.2452 eV

 SCC (total)                   0 d,  0 h,  0 min,  0.297 sec
 SCC setup                      ...        0 min,  0.014 sec (  4.750%)
 Dispersion                     ...        0 min,  0.015 sec (  4.969%)
 classical contributions        ...        0 min,  0.012 sec (  4.001%)
 integral evaluation            ...        0 min,  0.083 sec ( 28.140%)
 iterations                     ...        0 min,  0.047 sec ( 15.717%)
 molecular gradient             ...        0 min,  0.124 sec ( 41.838%)
 printout                       ...        0 min,  0.002 sec (  0.558%)

         :::::::::::::::::::::::::::::::::::::::::::::::::::::
         ::                     SUMMARY                     ::
         :::::::::::::::::::::::::::::::::::::::::::::::::::::
         :: total energy            -107.070456602802 Eh    ::
         :: gradient norm              0.000247478117 Eh/a0 ::
         :: HOMO-LUMO gap              3.452833706497 eV    ::
         ::.................................................::
         :: SCC energy              -108.617418926217 Eh    ::
         :: -> isotropic ES            0.138806708834 Eh    ::
         :: -> anisotropic ES          0.002009063316 Eh    ::
         :: -> anisotropic XC          0.031820272057 Eh    ::
         :: -> dispersion             -0.085386192165 Eh    ::
         :: repulsion energy           1.543879976267 Eh    ::
         :: add. restraining           0.000000000000 Eh    ::
         :: total charge               0.000000000000 e     ::
         :::::::::::::::::::::::::::::::::::::::::::::::::::::

           -------------------------------------------------
          |                Property Printout                |
           -------------------------------------------------

    * Orbital Energies and Occupations

         #    Occupation            Energy/Eh            Energy/eV
      -------------------------------------------------------------
         1        2.0000           -0.8328868             -22.6640
       ...           ...                  ...                  ...
        83        2.0000           -0.4354858             -11.8502
        84        2.0000           -0.4338784             -11.8064
        85        2.0000           -0.4323115             -11.7638
        86        2.0000           -0.4297597             -11.6944
        87        2.0000           -0.4255975             -11.5811
        88        2.0000           -0.4219026             -11.4806
        89        2.0000           -0.4206874             -11.4475
        90        2.0000           -0.4193487             -11.4111
        91        2.0000           -0.4149085             -11.2902
        92        2.0000           -0.4118365             -11.2066
        93        2.0000           -0.4086403             -11.1197
        94        2.0000           -0.4043398             -11.0026
        95        2.0000           -0.4032012             -10.9717 (HOMO)
        96                         -0.2763119              -7.5188 (LUMO)
        97                         -0.2733629              -7.4386
        98                         -0.2599209              -7.0728
        99                         -0.2566934              -6.9850
       100                         -0.2462415              -6.7006
       101                         -0.2420077              -6.5854
       102                         -0.2370937              -6.4516
       103                         -0.2345904              -6.3835
       104                         -0.2329523              -6.3390
       105                         -0.2209520              -6.0124
       106                         -0.2129496              -5.7947
       ...                                ...                  ...
       174                          0.6571305              17.8814
      -------------------------------------------------------------
                  HL-Gap            0.1268893 Eh            3.4528 eV
             Fermi-level           -0.3397565 Eh           -9.2452 eV

     #   Z          covCN         q      C6AA      α(0)
     1   6 C        2.927    -0.033    28.829     8.805
     2   6 C        2.919    -0.028    28.700     8.785
     3   6 C        2.920    -0.030    28.759     8.794
     4   6 C        2.920    -0.028    28.707     8.786
     5   6 C        2.921    -0.037    28.911     8.817
     6   6 C        2.972    -0.002    28.078     8.692
     7   6 C        3.856     0.033    19.982     6.358
     8   6 C        3.832     0.038    19.913     6.349
     9   6 C        2.974     0.006    27.876     8.661
    10   6 C        2.924    -0.028    28.708     8.787
    11   6 C        2.920    -0.026    28.659     8.779
    12   6 C        2.920    -0.027    28.688     8.783
    13   6 C        2.920    -0.024    28.614     8.772
    14   6 C        2.925    -0.032    28.794     8.800
    15   7 N        2.769    -0.119    23.595     7.214
    16   6 C        2.761     0.278    22.302     7.734
    17   6 C        2.980    -0.012    28.304     8.727
    18   6 C        2.921    -0.041    29.011     8.833
    19   6 C        2.923    -0.029    28.720     8.788
    20   6 C        2.917    -0.047    29.175     8.857
    21   6 C        2.787     0.175    24.228     8.063
    22   9 F        0.787    -0.217    11.410     3.990
    23   6 C        2.920    -0.035    28.861     8.810
    24   8 O        0.859    -0.409    21.868     6.270
    25   6 C        3.782     0.088    19.137     6.232
    26   6 C        2.688     0.351    21.036     7.506
    27   8 O        1.659    -0.359    20.079     6.049
    28   8 O        0.856    -0.380    21.282     6.185
    29   7 N        2.773    -0.110    23.399     7.184
    30   6 C        2.762     0.274    22.364     7.744
    31   6 C        2.979    -0.014    28.367     8.736
    32   6 C        2.918    -0.057    29.406     8.892
    33   6 C        2.787     0.173    24.280     8.071
    34   9 F        0.787    -0.222    11.460     3.999
    35   6 C        2.916    -0.046    29.136     8.851
    36   6 C        2.923    -0.025    28.638     8.776
    37   6 C        2.923    -0.027    28.672     8.781
    38   8 O        0.859    -0.410    21.890     6.273
    39   1 H        0.926     0.047     2.351     2.398
    40   1 H        0.926     0.039     2.455     2.450
    41   1 H        0.926     0.038     2.479     2.462
    42   1 H        0.926     0.042     2.427     2.436
    43   1 H        0.926     0.043     2.406     2.426
    44   1 H        0.924     0.085     1.924     2.169
    45   1 H        0.924     0.076     2.025     2.226
    46   1 H        0.926     0.016     2.790     2.612
    47   1 H        0.926     0.034     2.533     2.489
    48   1 H        0.926     0.038     2.469     2.457
    49   1 H        0.926     0.041     2.441     2.443
    50   1 H        0.926     0.037     2.483     2.464
    51   1 H        0.926     0.035     2.518     2.481
    52   1 H        0.926     0.049     2.334     2.389
    53   1 H        0.926     0.065     2.146     2.291
    54   1 H        0.926     0.083     1.950     2.184
    55   1 H        0.923     0.070     2.088     2.260
    56   1 H        0.804     0.347     0.596     1.213
    57   1 H        0.926     0.070     2.085     2.258
    58   1 H        0.926     0.066     2.127     2.281
    59   1 H        0.926     0.056     2.244     2.342
    60   1 H        0.926     0.062     2.173     2.305

 Mol. C6AA /au·bohr⁶  :      49299.111758
 Mol. C8AA /au·bohr⁸  :    1212756.160946
 Mol. α(0) /au        :        349.570366


Wiberg/Mayer (AO) data.
largest (>0.10) Wiberg bond orders for each atom

 ---------------------------------------------------------------------------
     #   Z sym  total        # sym  WBO       # sym  WBO       # sym  WBO
 ---------------------------------------------------------------------------
     1   6 C    3.990 --     2 C    1.455     6 C    1.402    39 H    0.968
                             4 C    0.113
     2   6 C    3.992 --     1 C    1.455     3 C    1.430    40 H    0.970
                             5 C    0.109
     3   6 C    3.991 --     4 C    1.448     2 C    1.430    41 H    0.971
                             6 C    0.109
     4   6 C    3.991 --     3 C    1.448     5 C    1.433    42 H    0.970
                             1 C    0.113
     5   6 C    3.990 --     4 C    1.433     6 C    1.422    43 H    0.964
                             2 C    0.109
     6   6 C    3.984 --     5 C    1.422     1 C    1.402     7 C    0.985
                             3 C    0.109
     7   6 C    3.957 --     6 C    0.985     8 C    0.960    44 H    0.948
                            29 N    0.947
     8   6 C    3.962 --     9 C    0.986     7 C    0.960    15 N    0.959
                            45 H    0.948
     9   6 C    3.986 --    10 C    1.416    14 C    1.410     8 C    0.986
                            12 C    0.109
    10   6 C    3.992 --    11 C    1.442     9 C    1.416    46 H    0.967
                            13 C    0.111
    11   6 C    3.992 --    10 C    1.442    12 C    1.441    47 H    0.971
                            14 C    0.112
    12   6 C    3.990 --    11 C    1.441    13 C    1.436    48 H    0.971
                             9 C    0.109
    13   6 C    3.991 --    14 C    1.448    12 C    1.436    49 H    0.970
                            10 C    0.111
    14   6 C    3.990 --    13 C    1.448     9 C    1.410    50 H    0.969
                            11 C    0.112
    15   7 N    3.455 --    16 C    1.201    25 C    0.981     8 C    0.959
                            24 O    0.190
    16   6 C    3.948 --    24 O    1.702    15 N    1.201    17 C    0.963
    17   6 C    3.988 --    23 C    1.411    18 C    1.399    16 C    0.963
                            20 C    0.108
    18   6 C    3.991 --    19 C    1.444    17 C    1.399    51 H    0.967
    19   6 C    3.991 --    18 C    1.444    20 C    1.438    52 H    0.969
                            23 C    0.110
    20   6 C    3.989 --    19 C    1.438    21 C    1.395    53 H    0.967
                            17 C    0.108
    21   6 C    3.891 --    23 C    1.398    20 C    1.395    22 F    0.966
    22   9 F    1.099 --    21 C    0.966
    23   6 C    3.987 --    17 C    1.411    21 C    1.398    54 H    0.963
                            19 C    0.110
    24   8 O    2.028 --    16 C    1.702    15 N    0.190
    25   6 C    3.976 --    29 N    1.000    15 N    0.981    55 H    0.925
                            26 C    0.910
    26   6 C    3.921 --    28 O    1.785    27 O    1.154    25 C    0.910
    27   8 O    2.222 --    26 C    1.154    56 H    0.853    28 O    0.181
    28   8 O    2.070 --    26 C    1.785    27 O    0.181
    29   7 N    3.460 --    30 C    1.193    25 C    1.000     7 C    0.947
                            38 O    0.187
    30   6 C    3.947 --    38 O    1.699    29 N    1.193    31 C    0.973
    31   6 C    3.987 --    37 C    1.400    32 C    1.399    30 C    0.973
                            35 C    0.107
    32   6 C    3.988 --    33 C    1.401    31 C    1.399    57 H    0.960
                            36 C    0.109
    33   6 C    3.889 --    32 C    1.401    35 C    1.395    34 F    0.962
    34   9 F    1.094 --    33 C    0.962
    35   6 C    3.988 --    36 C    1.438    33 C    1.395    58 H    0.966
                            31 C    0.107
    36   6 C    3.990 --    37 C    1.444    35 C    1.438    59 H    0.969
                            32 C    0.109
    37   6 C    3.988 --    36 C    1.444    31 C    1.400    60 H    0.967
    38   8 O    2.030 --    30 C    1.699    29 N    0.187
    39   1 H    0.998 --     1 C    0.968
    40   1 H    0.998 --     2 C    0.970
    41   1 H    0.998 --     3 C    0.971
    42   1 H    0.998 --     4 C    0.970
    43   1 H    0.998 --     5 C    0.964
    44   1 H    0.992 --     7 C    0.948
    45   1 H    0.994 --     8 C    0.948
    46   1 H    1.000 --    10 C    0.967
    47   1 H    0.999 --    11 C    0.971
    48   1 H    0.998 --    12 C    0.971
    49   1 H    0.998 --    13 C    0.970
    50   1 H    0.999 --    14 C    0.969
    51   1 H    0.999 --    18 C    0.967
    52   1 H    0.997 --    19 C    0.969
    53   1 H    0.995 --    20 C    0.967
    54   1 H    0.993 --    23 C    0.963
    55   1 H    0.995 --    25 C    0.925
    56   1 H    0.879 --    27 O    0.853
    57   1 H    0.995 --    32 C    0.960
    58   1 H    0.995 --    35 C    0.966
    59   1 H    0.996 --    36 C    0.969
    60   1 H    0.996 --    37 C    0.967
 ---------------------------------------------------------------------------

Topologies differ in total number of bonds
Writing topology from bond orders to xtbtopo.mol

molecular dipole:
                 x           y           z       tot (Debye)
 q only:        0.881      -0.491      -0.860
   full:        1.024      -0.127      -1.002       3.656
molecular quadrupole (traceless):
                xx          xy          yy          xz          yz          zz
 q only:       -8.013       9.030      -6.908      25.244     -11.349      14.921
  q+dip:      -14.714      11.602      -8.749      31.251     -12.672      23.464
   full:       -9.572      10.972      -8.999      29.774     -12.907      18.571

           -------------------------------------------------
          |                Geometry Summary                 |
           -------------------------------------------------

      molecular mass/u    :      512.5046059
   center of mass at/Å    :       -0.0049100       0.2810911       0.0484926
  moments of inertia/u·Å² :        0.4672643E+04   0.5359123E+04   0.5720552E+04
rotational constants/cm⁻¹ :        0.3607729E-02   0.3145595E-02   0.2946854E-02

 * 57 selected distances

     #   Z          #   Z                                           value/Å
     1   6 C        2   6 C                                       1.3816416
     2   6 C        3   6 C                                       1.3858612
     3   6 C        4   6 C                                       1.3831929
     4   6 C        5   6 C                                       1.3860737
     1   6 C        6   6 C                                       1.3924096
     5   6 C        6   6 C                                       1.3879837
     7   6 C        8   6 C                                       1.5403790 (max)
     9   6 C       10   6 C                                       1.3879595
    10   6 C       11   6 C                                       1.3834369
    11   6 C       12   6 C                                       1.3835961
    12   6 C       13   6 C                                       1.3845177
     9   6 C       14   6 C                                       1.3884678
    13   6 C       14   6 C                                       1.3827760
     8   6 C       15   7 N                                       1.4592449
    15   7 N       16   6 C                                       1.3596672
    17   6 C       18   6 C                                       1.3915794
    18   6 C       19   6 C                                       1.3839619
    19   6 C       20   6 C                                       1.3841353
    20   6 C       21   6 C                                       1.3836562
    17   6 C       23   6 C                                       1.3871694
    21   6 C       23   6 C                                       1.3823435
    16   6 C       24   8 O                                       1.2110098
    15   7 N       25   6 C                                       1.4475725
    26   6 C       27   8 O                                       1.3288642
    26   6 C       28   8 O                                       1.1965271
     7   6 C       29   7 N                                       1.4640277
    25   6 C       29   7 N                                       1.4347853
    29   7 N       30   6 C                                       1.3639842
    31   6 C       32   6 C                                       1.3898932
    32   6 C       33   6 C                                       1.3826379
    33   6 C       35   6 C                                       1.3834720
    35   6 C       36   6 C                                       1.3848109
    31   6 C       37   6 C                                       1.3916119
    36   6 C       37   6 C                                       1.3838244
    30   6 C       38   8 O                                       1.2118008
     1   6 C       39   1 H                                       1.0800396
     2   6 C       40   1 H                                       1.0797189
     3   6 C       41   1 H                                       1.0798175
     4   6 C       42   1 H                                       1.0795736
     5   6 C       43   1 H                                       1.0790412
     7   6 C       44   1 H                                       1.0948033
     8   6 C       45   1 H                                       1.0927483
    10   6 C       46   1 H                                       1.0809020
    11   6 C       47   1 H                                       1.0802685
    12   6 C       48   1 H                                       1.0796425
    13   6 C       49   1 H                                       1.0797105
    14   6 C       50   1 H                                       1.0802229
    18   6 C       51   1 H                                       1.0809485
    19   6 C       52   1 H                                       1.0794771
    20   6 C       53   1 H                                       1.0783801
    23   6 C       54   1 H                                       1.0773901
    25   6 C       55   1 H                                       1.0979198
    27   8 O       56   1 H                                       0.9718465 (min)
    32   6 C       57   1 H                                       1.0782916
    35   6 C       58   1 H                                       1.0783501
    36   6 C       59   1 H                                       1.0790396
    37   6 C       60   1 H                                       1.0792881

 * 5 distinct bonds (by element types)

   Z      Z             #   av. dist./Å        max./Å        min./Å
   1 H    6 C          21     1.0816940     1.0979198     1.0773901
   6 C    6 C          25     1.3918957     1.5403790     1.3816416
   6 C    7 N           6     1.4215470     1.4640277     1.3596672
   1 H    8 O           1     0.9718465     0.9718465     0.9718465
   6 C    8 O           4     1.2370505     1.3288642     1.1965271


optimized geometry written to: xtbopt.xyz


           -------------------------------------------------
          | TOTAL ENERGY             -107.070456602802 Eh   |
          | GRADIENT NORM               0.000247478117 Eh/α |
          | HOMO-LUMO GAP               3.452833706497 eV   |
           -------------------------------------------------

------------------------------------------------------------------------
 * finished run on 2022/03/16 at 23:11:27.673     
------------------------------------------------------------------------
 total:
 * wall-time:     0 d,  0 h,  0 min, 33.848 sec
 *  cpu-time:     0 d,  0 h, 14 min,  5.376 sec
 * ratio c/w:    24.976 speedup
 SCF:
 * wall-time:     0 d,  0 h,  0 min,  0.450 sec
 *  cpu-time:     0 d,  0 h,  0 min,  9.216 sec
 * ratio c/w:    20.484 speedup
 ANC optimizer:
 * wall-time:     0 d,  0 h,  0 min, 33.264 sec
 *  cpu-time:     0 d,  0 h, 13 min, 52.336 sec
 * ratio c/w:    25.022 speedup

