60
 energy: -107.050814996906 gnorm: 0.090083284593 xtb: 6.3.3 (4ae9cef)
C         3.13956600000000   -2.05128600000000    1.80498400000000
C         4.06071500000000   -1.99702700000000    2.85283100000000
C         3.69972800000000   -1.41927200000000    4.06558600000000
C         2.41982900000000   -0.89562800000000    4.22949100000000
C         1.49674000000000   -0.94917200000000    3.18142600000000
C         1.83910900000000   -1.53634700000000    1.95083200000000
C         0.89372200000000   -1.60861000000000    0.75252500000000
C        -0.62599000000000   -1.49030200000000    1.06525300000000
C        -1.49427500000000   -2.41906400000000    0.21124700000000
C        -1.29621600000000   -2.59652200000000   -1.16750400000000
C        -2.12158100000000   -3.44745500000000   -1.90668000000000
C        -3.16185500000000   -4.12752500000000   -1.28298100000000
C        -3.38389500000000   -3.95152600000000    0.07919200000000
C        -2.56015900000000   -3.10226600000000    0.81890400000000
N        -0.94618900000000   -0.08773900000000    0.77371500000000
C        -2.16231600000000    0.45780700000000    1.12634900000000
C        -2.58975600000000    1.71006500000000    0.47174500000000
C        -2.74423300000000    1.75396800000000   -0.92102900000000
C        -3.17426700000000    2.93238400000000   -1.53326900000000
C        -3.46080600000000    4.05192900000000   -0.75344700000000
C        -3.32615400000000    3.98449800000000    0.63098500000000
F        -3.60993900000000    5.06623200000000    1.36843000000000
C        -2.90404900000000    2.81924300000000    1.25680800000000
O        -2.92691300000000   -0.06155800000000    1.93416500000000
C         0.18139600000000    0.59806700000000    0.14668200000000
C         0.79767100000000    1.65291100000000    1.12258100000000
O         2.14536900000000    1.68957400000000    1.13740500000000
O         0.17564800000000    2.44952600000000    1.81164000000000
N         1.12657700000000   -0.47324200000000   -0.14988700000000
C         1.97536000000000   -0.57100100000000   -1.22962500000000
C         2.03746900000000    0.55519900000000   -2.17635200000000
C         2.85504100000000    1.65072300000000   -1.91295300000000
C         2.89815600000000    2.68766200000000   -2.83448100000000
F         3.67192300000000    3.75347000000000   -2.59003100000000
C         2.16030900000000    2.63523800000000   -4.01151600000000
C         1.36313500000000    1.52414100000000   -4.28278200000000
C         1.30223100000000    0.47649200000000   -3.36448900000000
O         2.63253000000000   -1.57195200000000   -1.49917000000000
H         3.44880700000000   -2.49642800000000    0.85847500000000
H         5.05797600000000   -2.40447200000000    2.71793600000000
H         4.41555300000000   -1.37447200000000    4.88277600000000
H         2.14051600000000   -0.44187800000000    5.17681900000000
H         0.51677800000000   -0.51248100000000    3.35436300000000
H         1.10704300000000   -2.55379300000000    0.23806400000000
H        -0.84757900000000   -1.70188200000000    2.11657100000000
H        -0.49497200000000   -2.08420000000000   -1.68829700000000
H        -1.94929700000000   -3.58124000000000   -2.97082800000000
H        -3.80363000000000   -4.78972900000000   -1.85721700000000
H        -4.20343800000000   -4.46831700000000    0.57078400000000
H        -2.76793500000000   -2.96223100000000    1.87849600000000
H        -2.55237100000000    0.87051400000000   -1.52395200000000
H        -3.29357400000000    2.97776500000000   -2.61161900000000
H        -3.79810100000000    4.97642100000000   -1.21243900000000
H        -2.80091500000000    2.78902300000000    2.33823600000000
H        -0.12378300000000    1.11511800000000   -0.76371700000000
H         2.37447500000000    2.32382400000000    1.84714500000000
H         3.46251500000000    1.70359800000000   -1.01680500000000
H         2.22368700000000    3.45843900000000   -4.71563200000000
H         0.80420700000000    1.46737000000000   -5.21364700000000
H         0.70040700000000   -0.40258200000000   -3.58209100000000
60
 energy: -107.062201264658 gnorm: 0.033148957210 xtb: 6.3.3 (4ae9cef)
C         3.12448053310807   -2.04417705840968    1.80582817575907
C         4.04249408887742   -1.98942644427362    2.84397937337791
C         3.68750146223279   -1.41725746333530    4.05432076795931
C         2.41532322563583   -0.89289616908490    4.21448398093690
C         1.49837479902731   -0.94092807563218    3.17294182782777
C         1.83646641565293   -1.52823328321618    1.95606794110759
C         0.89063840900747   -1.60383088617742    0.76449982186465
C        -0.62281557592607   -1.49710636747141    1.06172950618293
C        -1.49297758148863   -2.41937840906315    0.21452574264911
C        -1.29355791011472   -2.59077902139142   -1.15409944247752
C        -2.11344516039042   -3.43556777238245   -1.89030464967294
C        -3.15190344911517   -4.11392580705405   -1.27427943135661
C        -3.37285337757588   -3.93715422035862    0.08142144240142
C        -2.55170585640010   -3.09622646375779    0.81742111735690
N        -0.93843442149515   -0.09583994403650    0.76145382421802
C        -2.13994089767992    0.45071870441536    1.12545952680471
C        -2.55166274366872    1.71963345159720    0.46636395143934
C        -2.71974774089663    1.76753289467468   -0.91705350092185
C        -3.17397521174304    2.93051528220123   -1.52231722786376
C        -3.46047104435027    4.04729244541096   -0.75417186657473
C        -3.32172068735060    3.97428568277274    0.62277596223577
F        -3.61374325503560    5.05491451842515    1.36317617845311
C        -2.88444403956131    2.81927124385871    1.24788616234247
O        -2.88994259669598   -0.09685256597355    1.91247150459105
C         0.18668856898266    0.58726244330643    0.14400197339951
C         0.78396311893834    1.63629471850849    1.11677754123668
O         2.12272490922716    1.65748884500556    1.14039696268574
O         0.14204323823950    2.39745690611763    1.79248404767783
N         1.11839791372197   -0.47979100919298   -0.14760719316612
C         1.95053979740284   -0.58419924722898   -1.22267587074900
C         2.00936900695153    0.56844650731671   -2.16281801055631
C         2.83492947116746    1.65563975031149   -1.90819408800501
C         2.89444156244859    2.67806869639622   -2.84097892108874
F         3.66970742788659    3.74579332655800   -2.59333648550339
C         2.16178832371102    2.63338959363854   -4.01531506253455
C         1.37195470943387    1.52588346772556   -4.27791216964127
C         1.29684411369675    0.49169667457118   -3.35737355090357
O         2.61159955413379   -1.58051803112738   -1.45128779111585
H         3.42121460271814   -2.48759701138333    0.86329156919884
H         5.03460024114419   -2.39833986342555    2.70814684509439
H         4.39965899238153   -1.37666350269273    4.86876663550032
H         2.13411349729028   -0.44367773635908    5.15761723498685
H         0.51830012265301   -0.51304713667332    3.33803736539144
H         1.10830271563134   -2.53372433061122    0.22764251328394
H        -0.84287108302716   -1.70433749071268    2.11321819845809
H        -0.48968085447324   -2.07826427216672   -1.66540805447480
H        -1.93964647786288   -3.56664854156193   -2.95026458047885
H        -3.78885855642375   -4.77482494538271   -1.84806742418868
H        -4.18671168765137   -4.45541948369170    0.57036278316398
H        -2.74992515589513   -2.95818078150483    1.87178009681914
H        -2.53213395417312    0.88534567208620   -1.51535832742903
H        -3.29646536111160    2.97276015142219   -2.59544481965541
H        -3.79702288746601    4.96795484008271   -1.20999280112355
H        -2.79105602971688    2.78388689256358    2.32349415940310
H        -0.10894545721359    1.12301576301287   -0.76635829816200
H         2.38038700943759    2.31175886547526    1.81819761184272
H         3.43655772881407    1.70571381029603   -1.01282367992770
H         2.22407011246426    3.45439522813480   -4.71507799495270
H         0.81224208326304    1.47081658813714   -5.20103635690605
H         0.69694129922162   -0.38241762868922   -3.57146374622061
60
 energy: -107.065563452702 gnorm: 0.012138757288 xtb: 6.3.3 (4ae9cef)
C         3.10752594572280   -2.04055192071324    1.79872380813693
C         4.02365044094442   -1.98363690280303    2.83233650637669
C         3.67151647865575   -1.41089496296311    4.04180678809785
C         2.40277032789307   -0.88383498019969    4.19980019304586
C         1.48741231219331   -0.93115885374654    3.16141156909159
C         1.82599119263773   -1.52303657255054    1.95327132677882
C         0.88651435026623   -1.60608124552141    0.76485985436956
C        -0.61681287365348   -1.50000047834795    1.06474449754836
C        -1.48272036709300   -2.42064657469879    0.22513741285126
C        -1.28045839891694   -2.58255848322372   -1.13950812824873
C        -2.09966608027667   -3.41961800402424   -1.87723669256548
C        -3.13921538584791   -4.09778740668924   -1.26606203269020
C        -3.35986200826770   -3.92541441407646    0.08853661832691
C        -2.53822497651239   -3.09292653678166    0.82648146007182
N        -0.93651324731862   -0.10533952680769    0.74227346292710
C        -2.12743134494111    0.43839320246801    1.11953920098890
C        -2.52188981667156    1.72392328639712    0.46402029773865
C        -2.69263851070667    1.77486907422997   -0.91510466858282
C        -3.15831564694854    2.93044293693018   -1.51702144290563
C        -3.45424851382487    4.04549042003018   -0.75491103984169
C        -3.30815314888196    3.96793102103370    0.61837642468568
F        -3.61806978694870    5.04430813068432    1.36381268146675
C        -2.86154573354101    2.81953218339321    1.24440589187628
O        -2.86532084090667   -0.13323987217592    1.89300695299201
C         0.19071340147275    0.57327372592280    0.13793814874566
C         0.76644375838200    1.61052644102106    1.12580854260238
O         2.09783894033977    1.63046196281512    1.13720884779461
O         0.09794488770837    2.34779859940842    1.78942473814930
N         1.11476766069196   -0.48684473258246   -0.14994368373700
C         1.94376009144271   -0.59618757181169   -1.21534740011460
C         1.98858887109425    0.57351624388105   -2.15329284830273
C         2.81521043441369    1.65824919962108   -1.90018015749682
C         2.88112127061751    2.67374623726302   -2.83746456424658
F         3.66981791401196    3.73619179244932   -2.59046009935073
C         2.15908828018063    2.63454664884901   -4.01615583116059
C         1.36557843857979    1.53123554422013   -4.27048202838434
C         1.28191951255708    0.50316965957163   -3.34861019435372
O         2.59685429956651   -1.59605541253149   -1.42132329731174
H         3.39231965104933   -2.48458378451879    0.85746023610967
H         5.01323798530373   -2.39316069043834    2.69597748209499
H         4.38075604175217   -1.37463679377805    4.85537055858660
H         2.12051484099455   -0.43390925101016    5.13965966417040
H         0.50834619713182   -0.50191049168070    3.31532048033343
H         1.11381448203095   -2.52609480021497    0.21509824685008
H        -0.83847698487180   -1.69507296216625    2.11826877765207
H        -0.47480713531041   -2.06535933524872   -1.64093699854844
H        -1.92424571599876   -3.54630154366654   -2.93536559300892
H        -3.77412610822879   -4.75463582935328   -1.84214213290700
H        -4.17418745437408   -4.44174113489617    0.57345711583637
H        -2.72948422550283   -2.95387709444367    1.87844163585572
H        -2.49280687929033    0.89686004982888   -1.51236049765723
H        -3.29549339255520    2.96478448837458   -2.58670434542595
H        -3.80504702086222    4.95985115207729   -1.20654414010590
H        -2.77113956796171    2.78144834963731    2.31667822510529
H        -0.09272685336330    1.12537593970533   -0.77281682160520
H         2.39473305300670    2.29704869069055    1.78559023581595
H         3.40776118682702    1.70913418270468   -1.00128400499754
H         2.23384422394758    3.44932297899071   -4.71827499521647
H         0.81474510418458    1.47175134339272   -5.19540437244934
H         0.67852644397661   -0.36608332192686   -3.55930887185805
60
 energy: -107.066315632097 gnorm: 0.007302487658 xtb: 6.3.3 (4ae9cef)
C         3.09968454975954   -2.04045496108262    1.79379720032268
C         4.01444895330764   -1.98016124214218    2.82755185516381
C         3.66042579143998   -1.40257606430638    4.03502185232153
C         2.39328254290598   -0.86966167998086    4.19021045786111
C         1.47912487958632   -0.91717766009881    3.15081758212093
C         1.82008024474440   -1.51862798095102    1.94797538237819
C         0.88434899324397   -1.60809159004349    0.76198292256892
C        -0.61361391448499   -1.50044166795348    1.06620852881847
C        -1.47621115212422   -2.42394140146523    0.23442225111298
C        -1.27057651692621   -2.57738969502718   -1.13046375578718
C        -2.08996276598954   -3.40963326853476   -1.87185852715227
C        -3.13165307933279   -4.08764175096955   -1.26279717993696
C        -3.35361009824542   -3.92247534527343    0.09311854566142
C        -2.53060757073636   -3.09615007351838    0.83612018067928
N        -0.93883432987772   -0.11163624881339    0.72620265189149
C        -2.12499264493627    0.43046434309839    1.11441773867145
C        -2.50951518008401    1.72304585235455    0.46464174179335
C        -2.67045973741649    1.77692949598636   -0.91545549089722
C        -3.14298154782326    2.92996781483062   -1.51675188602771
C        -3.44961870701064    4.04287368799829   -0.75429309182836
C        -3.29880998823816    3.96413207987981    0.61864081148133
F        -3.61523924408993    5.03880033046559    1.36662963373487
C        -2.84901744111852    2.81806467024724    1.24567751609382
O        -2.86136914025870   -0.15338295197296    1.87989077207521
C         0.19085065351671    0.56663813570280    0.13131781233226
C         0.75919602813931    1.60216729446314    1.12664769802363
O         2.08730890828879    1.62172209438640    1.13468563884495
O         0.07553723048158    2.30997200068814    1.80918376155968
N         1.11171133642951   -0.49139337264455   -0.15642448427774
C         1.94090334829045   -0.60616907053299   -1.21959560278965
C         1.97930887899139    0.56954592410067   -2.15402402870207
C         2.80187101400486    1.65611036043370   -1.89439773245939
C         2.87144765686780    2.67087382567936   -2.83132550543757
F         3.66530863686182    3.73073751126511   -2.58060692245408
C         2.15690419039789    2.63464832288644   -4.01484648829465
C         1.35634984443603    1.53507502558767   -4.26769939710907
C         1.26853027358741    0.50630846519584   -3.34699277573019
O         2.59695491116699   -1.60601925923341   -1.41577166803180
H         3.37779342017680   -2.48869131102614    0.85269785706799
H         5.00345707666139   -2.39118605229865    2.69294941292261
H         4.36790307785991   -1.36692944737517    4.84941755764396
H         2.11003466433360   -0.41552039320229    5.12778715396805
H         0.50025010497356   -0.48450626606874    3.29731853805019
H         1.11397485307748   -2.52760315996333    0.21298170953264
H        -0.83464600576309   -1.68325795945259    2.12209305781202
H        -0.46299075307109   -2.05605484798763   -1.62444941793778
H        -1.91413705157165   -3.53031848374204   -2.93051854754821
H        -3.76800604877200   -4.73861283310269   -1.84289896776452
H        -4.17013180034846   -4.43820669113660    0.57466620311327
H        -2.71670915329006   -2.95895848679717    1.88933196335136
H        -2.45835086803098    0.90227878448782   -1.51382335423700
H        -3.28101853902446    2.96216980393547   -2.58642998649236
H        -3.81048191111025    4.95410188945126   -1.20376816974739
H        -2.75536963032752    2.78031390082750    2.31748460725263
H        -0.08631963016866    1.12515094142355   -0.77829592623274
H         2.40622581466350    2.27691628067557    1.78042258387555
H         3.38795771161322    1.70769144475291   -0.99142698154090
H         2.24169938140424    3.44679070722373   -4.71860931154052
H         0.80556715500753    1.47719039325277   -5.19295543380148
H         0.65679232395198   -0.35780816458305   -3.55583154634269
60
 energy: -107.066698971454 gnorm: 0.005204207500 xtb: 6.3.3 (4ae9cef)
C         3.09529689699051   -2.04168060474788    1.79284618432918
C         4.00831213980547   -1.97619093286928    2.82805160091790
C         3.65141324808275   -1.38918207753931    4.03088799169122
C         2.38609342817254   -0.84913626920275    4.18109828391390
C         1.47355276312342   -0.90024595957410    3.13996970452717
C         1.81671420050268   -1.51459943453838    1.94312081329477
C         0.88271799114836   -1.61101744594015    0.75932262590655
C        -0.61299114428104   -1.50154264860901    1.06590077338596
C        -1.47279003275701   -2.43001181726992    0.24180068639566
C        -1.26449592350054   -2.57469663759874   -1.12425907229184
C        -2.08424392140064   -3.40193326453991   -1.87042941222190
C        -3.12744501674799   -4.08027754123160   -1.26309336181822
C        -3.34943404699603   -3.92549092631641    0.09463689746731
C        -2.52515182852231   -3.10516041216717    0.84371693168065
N        -0.94367905984288   -0.11831065750849    0.70878836307941
C        -2.12574119518488    0.42429599917233    1.10809892659108
C        -2.50253431835577    1.72100763662488    0.46547261119155
C        -2.65031421525092    1.77837036907236   -0.91666382471819
C        -3.12392442086269    2.93112249399317   -1.51825834794536
C        -3.44225398353721    4.04050172145215   -0.75364622678259
C        -3.29105628916212    3.96099116528673    0.61963816189372
F        -3.60894875237925    5.03521022450756    1.36892668096503
C        -2.84093114267539    2.81568993359803    1.24758175840644
O        -2.86285841731732   -0.16546919617332    1.86839843041957
C         0.19047968637528    0.56123246895916    0.12693764730616
C         0.75738714634668    1.58134436133886    1.14434351109212
O         2.08266258118644    1.61803620414196    1.12934879197273
O         0.06666075704771    2.26923560605056    1.84057021245660
N         1.10914393791691   -0.49639946753889   -0.16293278676754
C         1.93952169613779   -0.61429638277455   -1.22605299731991
C         1.97144774169826    0.56294386763326   -2.15784417065137
C         2.79098083613015    1.65053228491914   -1.89098249080847
C         2.86217227910880    2.66758074154565   -2.82470323139152
F         3.65618293981935    3.72680435660216   -2.56730326527413
C         2.15180719978267    2.63510750044728   -4.01116512689441
C         1.34340769977765    1.54026577789277   -4.26492381889442
C         1.25306365116275    0.50830868455137   -3.34706806031887
O         2.59693835695452   -1.61354509113399   -1.42056024299452
H         3.36878233399944   -2.49669730293844    0.85300809177907
H         4.99676953586852   -2.39039768506852    2.69777970475877
H         4.35678214599378   -1.35215045600028    4.84713449100033
H         2.10219056538237   -0.38679683468546    5.11497344948054
H         0.49626796479765   -0.46034151457692    3.27820468932612
H         1.11229383697725   -2.53262075694591    0.21433561279465
H        -0.83314896474020   -1.67115026772494    2.12422159793389
H        -0.45553612779239   -2.04874770429559   -1.61109283836933
H        -1.90814019683598   -3.51624376419118   -2.92999896225881
H        -3.76640834787457   -4.72445460155896   -1.84793826275554
H        -4.16786360067384   -4.44211220268169    0.57259853876758
H        -2.70636794383841   -2.97187972422383    1.89890980046813
H        -2.42648805968722    0.90714188661058   -1.51653221754155
H        -3.25555109753670    2.96424862994126   -2.58899895386168
H        -3.81139587580675    4.94929151775962   -1.20160241485928
H        -2.74457234073241    2.77819619933796    2.31966183477275
H        -0.07823490400349    1.12787952218118   -0.78000163916502
H         2.42210046275709    2.26418746680437    1.77216566017746
H         3.37269708259168    1.70114666784233   -0.98496249151926
H         2.24496988105105    3.44613283060923   -4.71539947032129
H         0.78968724847057    1.48715649062090   -5.18946858959470
H         0.63400293313609   -0.35118102733139   -3.55656778280400
60
 energy: -107.066950544225 gnorm: 0.006998334287 xtb: 6.3.3 (4ae9cef)
C         3.09339205197665   -2.04360230139976    1.79688755829167
C         4.00443569137644   -1.97186434207788    2.83390556604661
C         3.64551860018331   -1.37224446668770    4.03023523798196
C         2.38248578300413   -0.82439417010688    4.17329313776957
C         1.47187788031266   -0.88201357595617    3.13044092321864
C         1.81584425325804   -1.51080832098518    1.94036038461163
C         0.88236962173190   -1.61413035598928    0.75765113052439
C        -0.61396020017206   -1.50411052888672    1.06468418055882
C        -1.47179044968556   -2.43782732824815    0.24558266050461
C        -1.26350983863518   -2.57493373279807   -1.12193912429741
C        -2.08368291282298   -3.39785573133078   -1.87234862699859
C        -3.12680343980037   -4.07772347950363   -1.26622045602165
C        -3.34668867789942   -3.93341328548159    0.09311092022270
C        -2.52134803313983   -3.11781437719828    0.84712552909590
N        -0.94837659612150   -0.12504332325839    0.69439211955716
C        -2.12706150466573    0.42024280259948    1.10192703172348
C        -2.49808237673890    1.71914801893800    0.46520965987425
C        -2.63392756451358    1.78051801338899   -0.91869393865558
C        -3.10418335752820    2.93461068805412   -1.52076416503389
C        -3.43143733646235    4.04015910185461   -0.75365246162160
C        -3.28462570605532    3.95921213358729    0.62017418311550
F        -3.60276275180067    5.03306203102249    1.36995593193110
C        -2.83687049064907    2.81294958810425    1.24840337092174
O        -2.86572897821401   -0.16894928742271    1.86096579141941
C         0.19111201176875    0.55698628860572    0.12652433983643
C         0.76063455032963    1.56726125219149    1.15664402866825
O         2.08414431393260    1.61671022577951    1.12413038777661
O         0.06966752407928    2.22648985097546    1.88225906758640
N         1.10768364729351   -0.50160390316420   -0.16833265484640
C         1.93633078835223   -0.62086437631460   -1.23425961055920
C         1.96392524199256    0.55607423878738   -2.16370677543701
C         2.78323633453831    1.64275644345811   -1.89128234502578
C         2.85351742511303    2.66473507043026   -2.81947266711305
F         3.64576493439095    3.72376955158732   -2.55542424971382
C         2.14299769507534    2.63713592298743   -4.00602395378912
C         1.32924818749379    1.54649215315555   -4.26266758953796
C         1.23856868125698    0.50982169566658   -3.34932455614896
O         2.59464267167595   -1.61890499501536   -1.43136262774592
H         3.36497717583719   -2.50742582096486    0.86021443439232
H         4.99203290685064   -2.39052591645024    2.70975342783012
H         4.34896740304935   -1.33128606023028    4.84836031113873
H         2.09853287248671   -0.35118917531214    5.10213095956665
H         0.49641609875467   -0.43536348004776    3.26139486093594
H         1.11094107748744   -2.53861149723990    0.21715604200979
H        -0.83392676645760   -1.66317453752859    2.12466891603645
H        -0.45479201804412   -2.04449350244747   -1.60391432163533
H        -1.90848185104831   -3.50609297736828   -2.93290098783057
H        -3.76877081996771   -4.71579984448171   -1.85497089652842
H        -4.16523029466329   -4.45286020609421    0.56837695515553
H        -2.69868755389245   -2.99014880267747    1.90410264710668
H        -2.40308813950985    0.91177004424836   -1.51958005388503
H        -3.22579542971661    2.97111061103010   -2.59287988298576
H        -3.80409579741143    4.94797055939879   -1.20078317687084
H        -2.74196446770757    2.77422076151309    2.32105393283387
H        -0.06983820596608    1.13267586927194   -0.77541942613312
H         2.43636647398811    2.24619130726522    1.77458026844096
H         3.36451356602044    1.68950971950904   -0.98475859639087
H         2.23996388520789    3.44926008179519   -4.70857801169310
H         0.77102153295240    1.50008875914770   -5.18539747956210
H         0.61438067751915   -0.34585708168544   -3.56099626062244
60
 energy: -107.067224247791 gnorm: 0.006727945875 xtb: 6.3.3 (4ae9cef)
C         3.09133143162360   -2.04746067734116    1.80642809648087
C         4.00007558258005   -1.96637639125303    2.84531594357245
C         3.64043686817516   -1.34818151888440    4.03209418036940
C         2.38025655052552   -0.79113985013929    4.16457352909238
C         1.47164660716692   -0.86038772562799    3.12042568684152
C         1.81524682813015   -1.50777881857211    1.93955805165561
C         0.88260984121049   -1.61915003661517    0.75659187267550
C        -0.61612948860438   -1.50887116819821    1.06189308915852
C        -1.47219510411338   -2.44782887203481    0.24594303706058
C        -1.26678998994165   -2.57700465815486   -1.12332064665991
C        -2.08729069192660   -3.39607332491880   -1.87743062049669
C        -3.12823123534187   -4.07986114930884   -1.27203166675302
C        -3.34318588269945   -3.94733861948170    0.08905844989151
C        -2.51709873008693   -3.13544835816513    0.84697841051236
N        -0.95271389300257   -0.13324460532597    0.67996053005362
C        -2.12682818492514    0.41788371608407    1.09599567947059
C        -2.49196491310189    1.71834939641984    0.46351736519714
C        -2.61511765864472    1.78522545051170   -0.92192906082562
C        -3.07922006545057    2.94187211688040   -1.52419695892139
C        -3.41410129844109    4.04316027686505   -0.75435498048791
C        -3.27713026814193    3.95879002239091    0.62026931673737
F        -3.59760381417099    5.03117964711501    1.37059228883584
C        -2.83427317641653    2.80994869533674    1.24807426098516
O        -2.86861892238373   -0.16780263648300    1.85471770089862
C         0.19379083093628    0.55157542583970    0.13027245078903
C         0.76764268018784    1.54315769381621    1.17968466256919
O         2.08939059212958    1.61635462330400    1.11681984664862
O         0.08220140726754    2.17490074730602    1.93367778794789
N         1.10696527209763   -0.50891036731970   -0.17260297525255
C         1.93001910506019   -0.62815868932396   -1.24419308191319
C         1.95363227930261    0.54871828307731   -2.17097912885004
C         2.77570889588786    1.63246550746014   -1.89443682466841
C         2.84297425452420    2.66197401418523   -2.81469915711457
F         3.63381251282047    3.72001315513900   -2.54436171915298
C         2.12788339752565    2.64187651434013   -3.99858903549178
C         1.31050002735333    1.55514083508826   -4.25953904336246
C         1.22140534729776    0.51199969984211   -3.35273398536898
O         2.58850763921374   -1.62495909122031   -1.44678624879425
H         3.36307437599268   -2.52403693869587    0.87575559759516
H         4.98612628537766   -2.39162617688468    2.73002154251041
H         4.34199985196896   -1.29953848008035    4.85192489788918
H         2.09701283141541   -0.30188661015915    5.08563875662961
H         0.49829516885204   -0.40702149692042    3.24339728011410
H         1.11070378915834   -2.54647874690275    0.22056339610641
H        -0.83665409218967   -1.65910370339322    2.12288263233538
H        -0.46004451856483   -2.04135418477669   -1.60218357192698
H        -1.91487501556369   -3.49703064854501   -2.93922529060657
H        -3.77343607139986   -4.71220486609143   -1.86396865056075
H        -4.15953278732424   -4.47218469057599    0.56251504372409
H        -2.69039467343778   -3.01624568305986    1.90582954824153
H        -2.38014865756063    0.91842486853863   -1.52353970696949
H        -3.18828694474468    2.98384786001211   -2.59775048046684
H        -3.78572254940417    4.95160060172372   -1.20098280570064
H        -2.74612097960348    2.76756679212709    2.32151188447906
H        -0.05607000617813    1.14114472829022   -0.76442454638521
H         2.45188979918430    2.23053569876865    1.77583105303791
H         3.36064987982124    1.67170791228251   -0.99000264618881
H         2.22415495769731    3.45781832852306   -4.69679869019108
H         0.74661968287780    1.51742734227439   -5.17948734001263
H         0.59321504000270   -0.33996916908864   -3.56776400698330
60
 energy: -107.067501265006 gnorm: 0.006544352167 xtb: 6.3.3 (4ae9cef)
C         3.08819691890206   -2.05297375955463    1.82035384001348
C         3.99492552176772   -1.95951232440427    2.86027756650866
C         3.63664092403125   -1.31874369349378    4.03544554608359
C         2.37863837417915   -0.75469677886288    4.15578265948565
C         1.47107621135568   -0.84062736864684    3.11184442030926
C         1.81378212392659   -1.50686264777681    1.94127859349076
C         0.88357625336526   -1.62571466428999    0.75605871149297
C        -0.61829492085569   -1.51567787559410    1.05770083838915
C        -1.47314975827884   -2.45778994743303    0.24194947532356
C        -1.27386583994495   -2.57987389846967   -1.12899966460768
C        -2.09486884564102   -3.39660688754424   -1.88483316048574
C        -3.13110958827010   -4.08709747758400   -1.27918227941947
C        -3.33838939251524   -3.96509671616415    0.08367099759581
C        -2.51192917537631   -3.15463088672268    0.84288597325153
N        -0.95431481867208   -0.14168750877898    0.66903958500431
C        -2.12358960627181    0.41703356595381    1.09109548588866
C        -2.48288578458105    1.71919027446276    0.45994856988204
C        -2.59503899786435    1.79248799710343   -0.92624159590978
C        -3.05081140558038    2.95277877005225   -1.52772847262936