      -----------------------------------------------------------      
     |                   =====================                   |     
     |                           x T B                           |     
     |                   =====================                   |     
     |                         S. Grimme                         |     
     |          Mulliken Center for Theoretical Chemistry        |     
     |                    University of Bonn                     |     
      -----------------------------------------------------------      

   * xtb version 6.3.3 (4ae9cef) compiled by 'conda@95abc7406d43' on 2020-10-14

   xtb is free software: you can redistribute it and/or modify it under
   the terms of the GNU Lesser General Public License as published by
   the Free Software Foundation, either version 3 of the License, or
   (at your option) any later version.
   
   xtb is distributed in the hope that it will be useful,
   but WITHOUT ANY WARRANTY; without even the implied warranty of
   MERCHANTABILITY or FITNESS FOR A PARTICULAR PURPOSE.  See the
   GNU Lesser General Public License for more details.
   
   Cite this work as:
   * C. Bannwarth, E. Caldeweyher, S. Ehlert, A. Hansen, P. Pracht,
     J. Seibert, S. Spicher, S. Grimme, WIREs Comput. Mol. Sci., 2020,
     e01493. DOI: 10.1002/wcms.1493
   
   for GFN2-xTB:
   * S. Grimme, C. Bannwarth, P. Shushkov, J. Chem. Theory Comput., 2017,
     13, 1989-2009. DOI: 10.1021/acs.jctc.7b00118
   for GFN1-xTB:
   * C. Bannwarth, S. Ehlert and S. Grimme., J. Chem. Theory Comput., 2019,
     15, 1652-1671. DOI: 10.1021/acs.jctc.8b01176
   for GFN0-xTB:
   * P. Pracht, E. Caldeweyher, S. Ehlert, S. Grimme, ChemRxiv, 2019, preprint.
     DOI: 10.26434/chemrxiv.8326202.v1
   for GFN-FF:
   * S. Spicher and S. Grimme, Angew. Chem. Int. Ed., 2020, 59, 15665-15673.
     DOI: 10.1002/anie.202004239
   
   for DFT-D4:
   * E. Caldeweyher, C. Bannwarth and S. Grimme, J. Chem. Phys., 2017,
     147, 034112. DOI: 10.1063/1.4993215
   * E. Caldeweyher, S. Ehlert, A. Hansen, H. Neugebauer, S. Spicher,
     C. Bannwarth and S. Grimme, J. Chem. Phys., 2019, 150, 154122.
     DOI: 10.1063/1.5090222
   * E. Caldeweyher, J.-M. Mewes, S. Ehlert and S. Grimme, Phys. Chem. Chem. Phys.
     2020, 22, 8499-8512. DOI: 10.1039/D0CP00502A
   
   for sTDA-xTB:
   * S. Grimme and C. Bannwarth, J. Chem. Phys., 2016, 145, 054103.
     DOI: 10.1063/1.4959605
   
   in the mass-spec context:
   * V. Asgeirsson, C. Bauer and S. Grimme, Chem. Sci., 2017, 8, 4879.
     DOI: 10.1039/c7sc00601b
   * J. Koopman and S. Grimme, ACS Omega 2019, 4, 12, 15120-15133.
     DOI: 10.1021/acsomega.9b02011
   
   for metadynamics refer to:
   * S. Grimme, J. Chem. Theory Comput., 2019, 155, 2847-2862
     DOI: 10.1021/acs.jctc.9b00143
   
   with help from (in alphabetical order)
   C. Bannwarth, F. Bohle, G. Brandenburg, E. Caldeweyher, M. Checinski,
   S. Dohm, S. Ehlert, S. Ehrlich, F. März, H. Neugebauer, J. Pisarek,
   P. Pracht, P. Shushkov, and S. Spicher.
   
 * started run on 2022/03/17 at 00:39:31.075     

           -------------------------------------------------
          |                Calculation Setup                |
           -------------------------------------------------

          program call               : xtb acid_394.xyz --opt --chrg 0 --uhf 0 --gfn 2
          coordinate file            : acid_394.xyz
          omp threads                :                    64
          number of atoms            :                   114
          number of electrons        :                   322
          charge                     :                     0
          spin                       :                   0.0
          first test random number   :      0.13862092006708

   ID    Z sym.   atoms
    1    6 C      1, 2, 6-15, 19-22, 24-38, 40, 41, 45-59
    2    9 F      3-5, 16-18
    3    7 N      23, 44
    4    8 O      39, 42, 43, 60
    5    1 H      61-114

           -------------------------------------------------
          |                 G F N 2 - x T B                 |
           -------------------------------------------------

        Reference                      10.1021/acs.jctc.8b01176
      * Hamiltonian:
        H0-scaling (s, p, d)           1.850000    2.230000    2.230000
        zeta-weighting                 0.500000
      * Dispersion:
        s8                             2.700000
        a1                             0.520000
        a2                             5.000000
        s9                             5.000000
      * Repulsion:
        kExp                           1.500000    1.000000
        rExp                           1.000000
      * Coulomb:
        alpha                          2.000000
        third order                    shell-resolved
        anisotropic                    true
        a3                             3.000000
        a5                             4.000000
        cn-shift                       1.200000
        cn-exp                         4.000000
        max-rad                        5.000000


          ...................................................
          :                      SETUP                      :
          :.................................................:
          :  # basis functions                 294          :
          :  # atomic orbitals                 294          :
          :  # shells                          174          :
          :  # electrons                       322          :
          :  max. iterations                   250          :
          :  Hamiltonian                  GFN2-xTB          :
          :  restarted?                      false          :
          :  GBSA solvation                  false          :
          :  PC potential                    false          :
          :  electronic temp.          300.0000000     K    :
          :  accuracy                    1.0000000          :
          :  -> integral cutoff          0.2500000E+02      :
          :  -> integral neglect         0.1000000E-07      :
          :  -> SCF convergence          0.1000000E-05 Eh   :
          :  -> wf. convergence          0.1000000E-03 e    :
          :  Broyden damping             0.4000000          :
          ...................................................

 iter      E             dE          RMSdq      gap      omega  full diag
   1   -182.7552867 -0.182755E+03  0.399E+00    3.03       0.0  T
   2   -183.0710535 -0.315767E+00  0.229E+00    2.99       1.0  T
   3   -183.0817348 -0.106813E-01  0.114E+00    2.90       1.0  T
   4   -183.0996881 -0.179533E-01  0.257E-01    2.76       1.0  T
   5   -183.1048389 -0.515074E-02  0.108E-01    2.76       1.0  T
   6   -183.1055440 -0.705159E-03  0.499E-02    2.76       1.0  T
   7   -183.1056486 -0.104580E-03  0.207E-02    2.76       1.0  T
   8   -183.1056609 -0.123560E-04  0.712E-03    2.76       1.3  T
   9   -183.1056643 -0.338693E-05  0.323E-03    2.76       2.9  T
  10   -183.1056648 -0.470870E-06  0.118E-03    2.77       7.9  T
  11   -183.1056649 -0.531071E-07  0.528E-04    2.77      17.7  T
  12   -183.1056649 -0.539555E-08  0.244E-04    2.77      38.4  T

   *** convergence criteria satisfied after 12 iterations ***

         #    Occupation            Energy/Eh            Energy/eV
      -------------------------------------------------------------
         1        2.0000           -0.8754343             -23.8218
       ...           ...                  ...                  ...
       155        2.0000           -0.4015652             -10.9271
       156        2.0000           -0.3970779             -10.8050
       157        2.0000           -0.3959700             -10.7749
       158        2.0000           -0.3955306             -10.7629
       159        2.0000           -0.3891038             -10.5881
       160        2.0000           -0.3875203             -10.5450
       161        2.0000           -0.3814485             -10.3797 (HOMO)
       162                         -0.2798190              -7.6143 (LUMO)
       163                         -0.2744285              -7.4676
       164                         -0.2714087              -7.3854
       165                         -0.2687410              -7.3128
       166                         -0.2635534              -7.1717
       ...                                ...                  ...
       294                          0.6203187              16.8797
      -------------------------------------------------------------
                  HL-Gap            0.1016295 Eh            2.7655 eV
             Fermi-level           -0.3306338 Eh           -8.9970 eV

 SCC (total)                   0 d,  0 h,  0 min,  1.058 sec
 SCC setup                      ...        0 min,  0.011 sec (  1.008%)
 Dispersion                     ...        0 min,  0.016 sec (  1.502%)
 classical contributions        ...        0 min,  0.026 sec (  2.453%)
 integral evaluation            ...        0 min,  0.189 sec ( 17.847%)
 iterations                     ...        0 min,  0.665 sec ( 62.896%)
 molecular gradient             ...        0 min,  0.144 sec ( 13.586%)
 printout                       ...        0 min,  0.007 sec (  0.699%)

         :::::::::::::::::::::::::::::::::::::::::::::::::::::
         ::                     SUMMARY                     ::
         :::::::::::::::::::::::::::::::::::::::::::::::::::::
         :: total energy            -180.932185526043 Eh    ::
         :: gradient norm              0.118234859635 Eh/a0 ::
         :: HOMO-LUMO gap              2.765480428352 eV    ::
         ::.................................................::
         :: SCC energy              -183.105664861625 Eh    ::
         :: -> isotropic ES            0.218786496306 Eh    ::
         :: -> anisotropic ES          0.020466751955 Eh    ::
         :: -> anisotropic XC          0.037123216805 Eh    ::
         :: -> dispersion             -0.148548571534 Eh    ::
         :: repulsion energy           2.166449044057 Eh    ::
         :: add. restraining           0.000000000000 Eh    ::
         :: total charge              -0.000000000000 e     ::
         :::::::::::::::::::::::::::::::::::::::::::::::::::::

      ----------------------------------------------------------- 
     |                   =====================                   |
     |                        A N C O P T                        |
     |                   =====================                   |
     |               Approximate Normal Coordinate               |
     |                Rational Function Optimizer                |
      ----------------------------------------------------------- 

          ...................................................
          :                      SETUP                      :
          :.................................................:
          :   optimization level            normal          :
          :   max. optcycles                   342          :
          :   ANC micro-cycles                  20          :
          :   degrees of freedom               336          :
          :.................................................:
          :   RF solver                   davidson          :
          :   write xtbopt.log                true          :
          :   linear?                        false          :
          :   energy convergence         0.5000000E-05 Eh   :
          :   grad. convergence          0.1000000E-02 Eh/α :
          :   maximium RF displ.         1.0000000          :
          :   Hlow (freq-cutoff)         0.1000000E-01      :
          :   Hmax (freq-cutoff)         5.0000000          :
          :   S6 in model hess.         20.0000000          :
          ...................................................

generating ANC from model Hessian ...
Using Lindh-Hessian (1995)
 Shifting diagonal of input Hessian by    9.9673565902722600E-003
 Lowest  eigenvalues of input Hessian
    0.000000    0.000000    0.000000    0.000000    0.000000    0.000000
    0.010000    0.010004    0.010062    0.010086    0.010124    0.010223
    0.010382    0.010407    0.010419    0.010474    0.010500    0.010580
 Highest eigenvalues
    1.919460    1.941789    1.952545    2.189196    2.211440    2.244219


........................................................................
.............................. CYCLE    1 ..............................
........................................................................
   1   -183.1056649 -0.183106E+03  0.108E-04    2.77       0.0  T
   2   -183.1056649 -0.227544E-09  0.700E-05    2.77     133.8  T
   3   -183.1056649 -0.219387E-09  0.459E-05    2.77     204.0  T
     SCC iter.                  ...        0 min,  0.174 sec
     gradient                   ...        0 min,  0.162 sec
 * total energy  :  -180.9321855 Eh     change       -0.3046637E-08 Eh
   gradient norm :     0.1182391 Eh/α   predicted     0.0000000E+00 (-100.00%)
   displ. norm   :     0.4642735 α      lambda       -0.3085615E-01
   maximum displ.:     0.1367812 α      in ANC's #109, #78, #85, ...

........................................................................
.............................. CYCLE    2 ..............................
........................................................................
   1   -183.2368804 -0.183237E+03  0.155E-01    2.87       0.0  T
   2   -183.2370859 -0.205486E-03  0.929E-02    2.88       1.0  T
   3   -183.2370247  0.612066E-04  0.361E-02    2.89       1.0  T
   4   -183.2371140 -0.893028E-04  0.101E-02    2.88       1.0  T
   5   -183.2371244 -0.104104E-04  0.282E-03    2.89       3.3  T
   6   -183.2371247 -0.306445E-06  0.156E-03    2.89       6.0  T
   7   -183.2371247 -0.354973E-07  0.625E-04    2.89      15.0  T
   8   -183.2371247 -0.300714E-07  0.225E-04    2.89      41.6  T
     SCC iter.                  ...        0 min,  0.444 sec
     gradient                   ...        0 min,  0.145 sec
 * total energy  :  -180.9542302 Eh     change       -0.2204470E-01 Eh
   gradient norm :     0.0438617 Eh/α   predicted    -0.1875365E-01 ( -14.93%)
   displ. norm   :     0.4853365 α      lambda       -0.1166926E-01
   maximum displ.:     0.1560531 α      in ANC's #34, #32, #78, ...

........................................................................
.............................. CYCLE    3 ..............................
........................................................................
   1   -183.3143823 -0.183314E+03  0.112E-01    2.95       0.0  T
   2   -183.3144627 -0.803997E-04  0.682E-02    2.96       1.0  T
   3   -183.3144144  0.483263E-04  0.253E-02    2.97       1.0  T
   4   -183.3144792 -0.647514E-04  0.610E-03    2.97       1.5  T
   5   -183.3144828 -0.366668E-05  0.178E-03    2.97       5.3  T
   6   -183.3144829 -0.748486E-07  0.950E-04    2.97       9.9  T
   7   -183.3144829 -0.120920E-07  0.325E-04    2.97      28.8  T
     SCC iter.                  ...        0 min,  0.390 sec
     gradient                   ...        0 min,  0.142 sec
 * total energy  :  -180.9617900 Eh     change       -0.7559824E-02 Eh
   gradient norm :     0.0154789 Eh/α   predicted    -0.7209014E-02 (  -4.64%)
   displ. norm   :     0.4439977 α      lambda       -0.3540841E-02
   maximum displ.:     0.1986137 α      in ANC's #34, #32, #21, ...

........................................................................
.............................. CYCLE    4 ..............................
........................................................................
   1   -183.3337276 -0.183334E+03  0.679E-02    3.00       0.0  T
   2   -183.3337420 -0.143321E-04  0.413E-02    3.00       1.0  T
   3   -183.3337225  0.194395E-04  0.148E-02    3.00       1.0  T
   4   -183.3337474 -0.249068E-04  0.264E-03    3.00       3.6  T
   5   -183.3337479 -0.483219E-06  0.115E-03    3.00       8.1  T
   6   -183.3337479 -0.128579E-07  0.494E-04    3.00      19.0  T
   7   -183.3337479 -0.582708E-08  0.201E-04    3.00      46.6  T
     SCC iter.                  ...        0 min,  0.392 sec
     gradient                   ...        0 min,  0.143 sec
 * total energy  :  -180.9644447 Eh     change       -0.2654661E-02 Eh
   gradient norm :     0.0129624 Eh/α   predicted    -0.2119439E-02 ( -20.16%)
   displ. norm   :     0.5344423 α      lambda       -0.2623688E-02
   maximum displ.:     0.2306299 α      in ANC's #34, #21, #32, ...

........................................................................
.............................. CYCLE    5 ..............................
........................................................................
   1   -183.3409965 -0.183341E+03  0.781E-02    3.02       0.0  T
   2   -183.3410187 -0.222189E-04  0.468E-02    3.01       1.0  T
   3   -183.3409997  0.190210E-04  0.168E-02    3.01       1.0  T
   4   -183.3410252 -0.254845E-04  0.363E-03    3.01       2.6  T
   5   -183.3410263 -0.110714E-05  0.149E-03    3.01       6.3  T
   6   -183.3410263 -0.227164E-07  0.695E-04    3.01      13.5  T
   7   -183.3410263 -0.221838E-07  0.273E-04    3.01      34.3  T
     SCC iter.                  ...        0 min,  0.395 sec
     gradient                   ...        0 min,  0.141 sec
 * total energy  :  -180.9663951 Eh     change       -0.1950365E-02 Eh
   gradient norm :     0.0103929 Eh/α   predicted    -0.1686565E-02 ( -13.53%)
   displ. norm   :     0.5439917 α      lambda       -0.1795663E-02
   maximum displ.:     0.2129034 α      in ANC's #34, #21, #15, ...

........................................................................
.............................. CYCLE    6 ..............................
........................................................................
   1   -183.3428207 -0.183343E+03  0.692E-02    3.02       0.0  T
   2   -183.3428371 -0.164010E-04  0.412E-02    3.02       1.0  T
   3   -183.3428262  0.109333E-04  0.132E-02    3.02       1.0  T
   4   -183.3428416 -0.154004E-04  0.333E-03    3.02       2.8  T
   5   -183.3428424 -0.843445E-06  0.154E-03    3.02       6.1  T
   6   -183.3428424 -0.340767E-07  0.666E-04    3.02      14.1  T
   7   -183.3428425 -0.210877E-07  0.279E-04    3.02      33.5  T
     SCC iter.                  ...        0 min,  0.394 sec
     gradient                   ...        0 min,  0.141 sec
 * total energy  :  -180.9677399 Eh     change       -0.1344840E-02 Eh
   gradient norm :     0.0103079 Eh/α   predicted    -0.1163531E-02 ( -13.48%)
   displ. norm   :     0.5493619 α      lambda       -0.1427654E-02
   maximum displ.:     0.1781992 α      in ANC's #12, #21, #15, ...

........................................................................
.............................. CYCLE    7 ..............................
........................................................................
   1   -183.3424436 -0.183342E+03  0.789E-02    3.03       0.0  T
   2   -183.3424689 -0.252412E-04  0.461E-02    3.03       1.0  T
   3   -183.3424522  0.166387E-04  0.158E-02    3.02       1.0  T
   4   -183.3424742 -0.220169E-04  0.409E-03    3.02       2.3  T
   5   -183.3424760 -0.175977E-05  0.166E-03    3.02       5.6  T
   6   -183.3424761 -0.808761E-07  0.803E-04    3.02      11.7  T
   7   -183.3424761 -0.152394E-07  0.309E-04    3.02      30.3  T
     SCC iter.                  ...        0 min,  0.393 sec
     gradient                   ...        0 min,  0.146 sec
 * total energy  :  -180.9688597 Eh     change       -0.1119810E-02 Eh
   gradient norm :     0.0148849 Eh/α   predicted    -0.9292703E-03 ( -17.02%)
   displ. norm   :     0.5813050 α      lambda       -0.1493044E-02
   maximum displ.:     0.2249074 α      in ANC's #12, #6, #15, ...

........................................................................
.............................. CYCLE    8 ..............................
........................................................................
   1   -183.3441266 -0.183344E+03  0.762E-02    3.03       0.0  T
   2   -183.3441384 -0.118160E-04  0.448E-02    3.03       1.0  T
   3   -183.3441206  0.177931E-04  0.139E-02    3.02       1.0  T
   4   -183.3441434 -0.228215E-04  0.294E-03    3.02       3.2  T
   5   -183.3441440 -0.579661E-06  0.152E-03    3.02       6.1  T
   6   -183.3441441 -0.624748E-07  0.612E-04    3.02      15.3  T
   7   -183.3441441 -0.125105E-07  0.259E-04    3.02      36.1  T
     SCC iter.                  ...        0 min,  0.387 sec
     gradient                   ...        0 min,  0.134 sec
 * total energy  :  -180.9700699 Eh     change       -0.1210140E-02 Eh
   gradient norm :     0.0116614 Eh/α   predicted    -0.9987898E-03 ( -17.46%)
   displ. norm   :     0.6339249 α      lambda       -0.1545871E-02
   maximum displ.:     0.2665290 α      in ANC's #12, #6, #15, ...

........................................................................
.............................. CYCLE    9 ..............................
........................................................................
   1   -183.3434068 -0.183343E+03  0.102E-01    3.03       0.0  T
   2   -183.3434298 -0.230490E-04  0.595E-02    3.03       1.0  T
   3   -183.3433999  0.299132E-04  0.173E-02    3.03       1.0  T
   4   -183.3434367 -0.368189E-04  0.399E-03    3.03       2.3  T
   5   -183.3434382 -0.143627E-05  0.184E-03    3.03       5.1  T
   6   -183.3434382 -0.660883E-07  0.938E-04    3.03      10.0  T
   7   -183.3434383 -0.235336E-07  0.316E-04    3.03      29.6  T
     SCC iter.                  ...        0 min,  0.392 sec
     gradient                   ...        0 min,  0.154 sec
 * total energy  :  -180.9712949 Eh     change       -0.1225032E-02 Eh
   gradient norm :     0.0164614 Eh/α   predicted    -0.1083548E-02 ( -11.55%)
   displ. norm   :     0.6187025 α      lambda       -0.1604137E-02
   maximum displ.:     0.2971399 α      in ANC's #12, #6, #15, ...

........................................................................
.............................. CYCLE   10 ..............................
........................................................................
   1   -183.3490530 -0.183349E+03  0.865E-02    3.04       0.0  T
   2   -183.3490723 -0.192969E-04  0.510E-02    3.04       1.0  T
   3   -183.3490504  0.219647E-04  0.173E-02    3.04       1.0  T
   4   -183.3490793 -0.288896E-04  0.316E-03    3.04       3.0  T
   5   -183.3490801 -0.878102E-06  0.153E-03    3.04       6.1  T
   6   -183.3490802 -0.472070E-07  0.543E-04    3.04      17.2  T
   7   -183.3490802 -0.921685E-08  0.251E-04    3.04      37.3  T
     SCC iter.                  ...        0 min,  0.396 sec
     gradient                   ...        0 min,  0.154 sec
 * total energy  :  -180.9723744 Eh     change       -0.1079515E-02 Eh
   gradient norm :     0.0109017 Eh/α   predicted    -0.1109098E-02 (   2.74%)
   displ. norm   :     0.6889657 α      lambda       -0.1318148E-02
   maximum displ.:     0.3222919 α      in ANC's #12, #6, #15, ...

........................................................................
.............................. CYCLE   11 ..............................
........................................................................
   1   -183.3433139 -0.183343E+03  0.109E-01    3.06       0.0  T
   2   -183.3433482 -0.342309E-04  0.645E-02    3.06       1.0  T
   3   -183.3433165  0.316246E-04  0.201E-02    3.05       1.0  T
   4   -183.3433588 -0.422341E-04  0.454E-03    3.05       2.1  T
   5   -183.3433604 -0.157328E-05  0.236E-03    3.05       4.0  T
   6   -183.3433605 -0.156764E-06  0.943E-04    3.05       9.9  T
   7   -183.3433605 -0.208754E-07  0.358E-04    3.05      26.1  T
     SCC iter.                  ...        0 min,  0.398 sec
     gradient                   ...        0 min,  0.144 sec
 * total energy  :  -180.9732183 Eh     change       -0.8439277E-03 Eh
   gradient norm :     0.0203780 Eh/α   predicted    -0.9719205E-03 (  15.17%)
   displ. norm   :     0.4363807 α      lambda       -0.9493865E-03
   maximum displ.:     0.2303445 α      in ANC's #12, #6, #4, ...

........................................................................
.............................. CYCLE   12 ..............................
........................................................................
   1   -183.3469355 -0.183347E+03  0.636E-02    3.07       0.0  T
   2   -183.3469499 -0.143764E-04  0.373E-02    3.07       1.0  T
   3   -183.3469357  0.141880E-04  0.133E-02    3.07       1.0  T
   4   -183.3469532 -0.175649E-04  0.289E-03    3.07       3.2  T
   5   -183.3469543 -0.109070E-05  0.106E-03    3.07       8.8  T
   6   -183.3469544 -0.290681E-07  0.571E-04    3.07      16.4  T
   7   -183.3469544 -0.809248E-08  0.205E-04    3.07      45.7  T
     SCC iter.                  ...        0 min,  0.393 sec
     gradient                   ...        0 min,  0.161 sec
 * total energy  :  -180.9739364 Eh     change       -0.7180254E-03 Eh
   gradient norm :     0.0188120 Eh/α   predicted    -0.5651131E-03 ( -21.30%)
   displ. norm   :     0.5678268 α      lambda       -0.1298913E-02
   maximum displ.:     0.3217682 α      in ANC's #12, #6, #4, ...

........................................................................
.............................. CYCLE   13 ..............................
........................................................................
   1   -183.3535218 -0.183354E+03  0.722E-02    3.09       0.0  T
   2   -183.3535565 -0.346951E-04  0.430E-02    3.09       1.0  T
   3   -183.3535464  0.100374E-04  0.180E-02    3.09       1.0  T
   4   -183.3535647 -0.183000E-04  0.336E-03    3.09       2.8  T
   5   -183.3535659 -0.113385E-05  0.147E-03    3.09       6.4  T
   6   -183.3535659 -0.731079E-07  0.621E-04    3.09      15.1  T
   7   -183.3535659 -0.109545E-07  0.271E-04    3.09      34.6  T
     SCC iter.                  ...        0 min,  0.395 sec
     gradient                   ...        0 min,  0.153 sec
 * total energy  :  -180.9746825 Eh     change       -0.7461305E-03 Eh
   gradient norm :     0.0112207 Eh/α   predicted    -0.8588663E-03 (  15.11%)
   displ. norm   :     0.6029679 α      lambda       -0.9263282E-03
   maximum displ.:     0.3229065 α      in ANC's #12, #6, #4, ...

........................................................................
.............................. CYCLE   14 ..............................
........................................................................
   1   -183.3501726 -0.183350E+03  0.862E-02    3.10       0.0  T
   2   -183.3501901 -0.175022E-04  0.513E-02    3.10       1.0  T
   3   -183.3501638  0.263089E-04  0.171E-02    3.10       1.0  T
   4   -183.3501971 -0.332229E-04  0.341E-03    3.10       2.7  T
   5   -183.3501981 -0.104263E-05  0.169E-03    3.10       5.5  T
   6   -183.3501981 -0.331946E-07  0.661E-04    3.10      14.2  T
   7   -183.3501982 -0.184187E-07  0.224E-04    3.10      41.7  T
     SCC iter.                  ...        0 min,  0.391 sec
     gradient                   ...        0 min,  0.134 sec
 * total energy  :  -180.9754014 Eh     change       -0.7188796E-03 Eh
   gradient norm :     0.0108280 Eh/α   predicted    -0.6315584E-03 ( -12.15%)
   displ. norm   :     0.5742827 α      lambda       -0.8505550E-03
   maximum displ.:     0.3017465 α      in ANC's #12, #6, #4, ...

........................................................................
.............................. CYCLE   15 ..............................
........................................................................
   1   -183.3507259 -0.183351E+03  0.805E-02    3.10       0.0  T
   2   -183.3507406 -0.147251E-04  0.473E-02    3.10       1.0  T
   3   -183.3507209  0.196831E-04  0.136E-02    3.10       1.0  T
   4   -183.3507441 -0.232053E-04  0.326E-03    3.10       2.9  T
   5   -183.3507454 -0.121942E-05  0.132E-03    3.10       7.1  T
   6   -183.3507454 -0.307321E-07  0.685E-04    3.10      13.7  T
   7   -183.3507454 -0.158172E-07  0.262E-04    3.10      35.8  T
     SCC iter.                  ...        0 min,  0.395 sec
     gradient                   ...        0 min,  0.143 sec
 * total energy  :  -180.9760085 Eh     change       -0.6071027E-03 Eh
   gradient norm :     0.0158603 Eh/α   predicted    -0.5655346E-03 (  -6.85%)
   displ. norm   :     0.5900048 α      lambda       -0.7105815E-03
   maximum displ.:     0.3142866 α      in ANC's #12, #6, #4, ...

........................................................................
.............................. CYCLE   16 ..............................
........................................................................
   1   -183.3485346 -0.183349E+03  0.735E-02    3.10       0.0  T
   2   -183.3485447 -0.100493E-04  0.434E-02    3.10       1.0  T
   3   -183.3485274  0.172277E-04  0.124E-02    3.10       1.0  T
   4   -183.3485485 -0.211131E-04  0.261E-03    3.10       3.6  T
   5   -183.3485490 -0.504297E-06  0.130E-03    3.10       7.2  T
   6   -183.3485491 -0.315025E-07  0.560E-04    3.10      16.7  T
   7   -183.3485491 -0.130480E-07  0.247E-04    3.10      37.9  T
     SCC iter.                  ...        0 min,  0.391 sec
     gradient                   ...        0 min,  0.157 sec
 * total energy  :  -180.9765537 Eh     change       -0.5451875E-03 Eh
   gradient norm :     0.0140766 Eh/α   predicted    -0.4789729E-03 ( -12.15%)
   displ. norm   :     0.5273284 α      lambda       -0.8487220E-03
   maximum displ.:     0.2019868 α      in ANC's #12, #4, #6, ...

........................................................................
.............................. CYCLE   17 ..............................
........................................................................
   1   -183.3584343 -0.183358E+03  0.739E-02    3.09       0.0  T
   2   -183.3584698 -0.355152E-04  0.436E-02    3.08       1.0  T
   3   -183.3584607  0.908895E-05  0.136E-02    3.08       1.0  T
   4   -183.3584723 -0.116476E-04  0.387E-03    3.08       2.4  T
   5   -183.3584742 -0.183640E-05  0.136E-03    3.08       6.9  T
   6   -183.3584743 -0.130516E-06  0.708E-04    3.08      13.2  T
   7   -183.3584743 -0.797758E-08  0.268E-04    3.08      34.9  T
     SCC iter.                  ...        0 min,  0.390 sec
     gradient                   ...        0 min,  0.137 sec
 * total energy  :  -180.9768495 Eh     change       -0.2958753E-03 Eh
   gradient norm :     0.0199180 Eh/α   predicted    -0.5423767E-03 (  83.31%)
   displ. norm   :     0.4445854 α      lambda       -0.7405568E-03
   maximum displ.:     0.2148337 α      in ANC's #12, #6, #4, ...

........................................................................
.............................. CYCLE   18 ..............................
........................................................................
   1   -183.3536455 -0.183354E+03  0.655E-02    3.09       0.0  T
   2   -183.3537077 -0.622228E-04  0.372E-02    3.09       1.0  T
   3   -183.3537057  0.196485E-05  0.153E-02    3.09       1.0  T
   4   -183.3537083 -0.252470E-05  0.522E-03    3.09       1.8  T
   5   -183.3537119 -0.365268E-05  0.138E-03    3.09       6.8  T
   6   -183.3537120 -0.119628E-06  0.688E-04    3.09      13.6  T
   7   -183.3537120 -0.708761E-08  0.238E-04    3.09      39.3  T
     SCC iter.                  ...        0 min,  0.390 sec
     gradient                   ...        0 min,  0.147 sec
 * total energy  :  -180.9772656 Eh     change       -0.4160099E-03 Eh
   gradient norm :     0.0114854 Eh/α   predicted    -0.4434672E-03 (   6.60%)
   displ. norm   :     0.3725557 α      lambda       -0.3512650E-03
   maximum displ.:     0.1642731 α      in ANC's #12, #6, #4, ...

........................................................................
.............................. CYCLE   19 ..............................
........................................................................
   1   -183.3504529 -0.183350E+03  0.497E-02    3.09       0.0  T
   2   -183.3504775 -0.246140E-04  0.300E-02    3.09       1.0  T
   3   -183.3504737  0.375790E-05  0.132E-02    3.09       1.0  T
   4   -183.3504810 -0.727570E-05  0.332E-03    3.09       2.8  T
   5   -183.3504825 -0.143150E-05  0.115E-03    3.09       8.1  T
   6   -183.3504826 -0.100495E-06  0.604E-04    3.09      15.5  T
   7   -183.3504826 -0.234078E-08  0.217E-04    3.09      43.2  T
     SCC iter.                  ...        0 min,  0.389 sec
     gradient                   ...        0 min,  0.146 sec
 * total energy  :  -180.9774375 Eh     change       -0.1719580E-03 Eh
   gradient norm :     0.0132492 Eh/α   predicted    -0.2000116E-03 (  16.31%)
   displ. norm   :     0.2068205 α      lambda       -0.3208022E-03
   maximum displ.:     0.0812367 α      in ANC's #4, #1, #5, ...

........................................................................
.............................. CYCLE   20 ..............................
........................................................................
   1   -183.3543749 -0.183354E+03  0.273E-02    3.09       0.0  T
   2   -183.3543812 -0.626482E-05  0.161E-02    3.09       1.0  T
   3   -183.3543807  0.467598E-06  0.702E-03    3.09       1.3  T
   4   -183.3543824 -0.170247E-05  0.104E-03    3.09       9.0  T
   5   -183.3543825 -0.756355E-07  0.531E-04    3.09      17.7  T
   6   -183.3543825 -0.168750E-07  0.266E-04    3.09      35.2  T
     SCC iter.                  ...        0 min,  0.337 sec
     gradient                   ...        0 min,  0.158 sec
 * total energy  :  -180.9776656 Eh     change       -0.2280844E-03 Eh
   gradient norm :     0.0077396 Eh/α   predicted    -0.1672667E-03 ( -26.66%)
   displ. norm   :     0.3607000 α      lambda       -0.2851338E-03
   maximum displ.:     0.1549243 α      in ANC's #4, #1, #8, ...
 * RMSD in coord.:     0.7412267 α      energy gain  -0.4548007E-01 Eh

generating ANC from model Hessian ...
Using Lindh-Hessian (1995)
 Shifting diagonal of input Hessian by    9.9686762779171607E-003
 Lowest  eigenvalues of input Hessian
    0.000000    0.000000    0.000000    0.000000    0.000000    0.000000
    0.010000    0.010015    0.010075    0.010158    0.010207    0.010362
    0.010479    0.010503    0.010568    0.010594    0.010631    0.010752
 Highest eigenvalues
    2.028661    2.029755    2.034099    2.330006    2.335611    2.374068


........................................................................
.............................. CYCLE   21 ..............................
........................................................................
   1   -183.3570757 -0.183357E+03  0.471E-02    3.10       0.0  T
   2   -183.3570797 -0.401428E-05  0.277E-02    3.10       1.0  T
   3   -183.3570754  0.422837E-05  0.713E-03    3.10       1.3  T
   4   -183.3570808 -0.537014E-05  0.147E-03    3.10       6.4  T
   5   -183.3570810 -0.175977E-06  0.714E-04    3.10      13.1  T
   6   -183.3570810 -0.106962E-07  0.328E-04    3.10      28.6  T
     SCC iter.                  ...        0 min,  0.342 sec
     gradient                   ...        0 min,  0.149 sec
 * total energy  :  -180.9778510 Eh     change       -0.1853732E-03 Eh
   gradient norm :     0.0070008 Eh/α   predicted     0.0000000E+00 (-100.00%)
   displ. norm   :     0.1115659 α      lambda       -0.2899693E-03
   maximum displ.:     0.0394900 α      in ANC's #12, #34, #46, ...

........................................................................
.............................. CYCLE   22 ..............................
........................................................................
   1   -183.3565710 -0.183357E+03  0.310E-02    3.10       0.0  T
   2   -183.3565728 -0.176336E-05  0.181E-02    3.10       1.0  T
   3   -183.3565713  0.148674E-05  0.459E-03    3.10       2.0  T
   4   -183.3565733 -0.205474E-05  0.113E-03    3.10       8.3  T
   5   -183.3565734 -0.860278E-07  0.642E-04    3.10      14.6  T
   6   -183.3565734 -0.948538E-08  0.224E-04    3.10      41.8  T
     SCC iter.                  ...        0 min,  0.345 sec
     gradient                   ...        0 min,  0.151 sec
 * total energy  :  -180.9781067 Eh     change       -0.2557531E-03 Eh
   gradient norm :     0.0036186 Eh/α   predicted    -0.1468446E-03 ( -42.58%)
   displ. norm   :     0.4902340 α      lambda       -0.9841919E-03
   maximum displ.:     0.1715790 α      in ANC's #12, #34, #46, ...

........................................................................
.............................. CYCLE   23 ..............................
........................................................................
   1   -183.3501910 -0.183350E+03  0.126E-01    3.09       0.0  T
   2   -183.3502169 -0.258760E-04  0.740E-02    3.09       1.0  T
   3   -183.3502045  0.124318E-04  0.131E-02    3.09       1.0  T
   4   -183.3502237 -0.191902E-04  0.483E-03    3.09       1.9  T
   5   -183.3502254 -0.174616E-05  0.254E-03    3.09       3.7  T
   6   -183.3502255 -0.106995E-06  0.107E-03    3.09       8.8  T
   7   -183.3502256 -0.517565E-07  0.318E-04    3.09      29.5  T
   8   -183.3502256 -0.800483E-08  0.129E-04    3.09      72.4  T
     SCC iter.                  ...        0 min,  0.447 sec
     gradient                   ...        0 min,  0.147 sec
 * total energy  :  -180.9786839 Eh     change       -0.5771576E-03 Eh
   gradient norm :     0.0193788 Eh/α   predicted    -0.6103615E-03 (   5.75%)
   displ. norm   :     0.1235544 α      lambda       -0.3693360E-03
   maximum displ.:     0.0543028 α      in ANC's #12, #34, #5, ...

........................................................................
.............................. CYCLE   24 ..............................
........................................................................
   1   -183.3528322 -0.183353E+03  0.222E-02    3.10       0.0  T
   2   -183.3528359 -0.376801E-05  0.131E-02    3.10       1.0  T
   3   -183.3528353  0.596478E-06  0.501E-03    3.10       1.9  T
   4   -183.3528366 -0.121810E-05  0.978E-04    3.10       9.6  T
   5   -183.3528366 -0.612687E-07  0.551E-04    3.10      17.0  T
   6   -183.3528366 -0.182677E-07  0.292E-04    3.10      32.0  T
     SCC iter.                  ...        0 min,  0.334 sec
     gradient                   ...        0 min,  0.075 sec
 * total energy  :  -180.9789873 Eh     change       -0.3034304E-03 Eh
   gradient norm :     0.0111416 Eh/α   predicted    -0.1874917E-03 ( -38.21%)
   displ. norm   :     0.4746940 α      lambda       -0.8144300E-03
   maximum displ.:     0.1980709 α      in ANC's #12, #34, #33, ...

........................................................................
.............................. CYCLE   25 ..............................
........................................................................
   1   -183.3536732 -0.183354E+03  0.984E-02    3.10       0.0  T
   2   -183.3536941 -0.208595E-04  0.575E-02    3.10       1.0  T
   3   -183.3536839  0.101646E-04  0.125E-02    3.11       1.0  T
   4   -183.3536993 -0.153713E-04  0.380E-03    3.10       2.5  T
   5   -183.3537004 -0.107354E-05  0.202E-03    3.10       4.6  T
   6   -183.3537004 -0.828722E-07  0.956E-04    3.10       9.8  T
   7   -183.3537005 -0.360926E-07  0.281E-04    3.10      33.3  T
     SCC iter.                  ...        0 min,  0.394 sec
     gradient                   ...        0 min,  0.136 sec
 * total energy  :  -180.9795449 Eh     change       -0.5575682E-03 Eh
   gradient norm :     0.0149940 Eh/α   predicted    -0.4990762E-03 ( -10.49%)
   displ. norm   :     0.2869785 α      lambda       -0.6702397E-03
   maximum displ.:     0.1254702 α      in ANC's #12, #2, #5, ...

........................................................................
.............................. CYCLE   26 ..............................
........................................................................
   1   -183.3609402 -0.183361E+03  0.509E-02    3.12       0.0  T
   2   -183.3609690 -0.287308E-04  0.304E-02    3.12       1.0  T
   3   -183.3609694 -0.464599E-06  0.143E-02    3.12       1.0  T
   4   -183.3609752 -0.579149E-05  0.199E-03    3.12       4.7  T
   5   -183.3609754 -0.187388E-06  0.115E-03    3.12       8.1  T
   6   -183.3609754 -0.375445E-07  0.502E-04    3.12      18.7  T
   7   -183.3609754 -0.601426E-08  0.182E-04    3.12      51.4  T
     SCC iter.                  ...        0 min,  0.391 sec
     gradient                   ...        0 min,  0.139 sec
 * total energy  :  -180.9798263 Eh     change       -0.2814682E-03 Eh
   gradient norm :     0.0086993 Eh/α   predicted    -0.3629065E-03 (  28.93%)
   displ. norm   :     0.4867231 α      lambda       -0.6073865E-03
   maximum displ.:     0.1956592 α      in ANC's #12, #2, #5, ...

........................................................................
.............................. CYCLE   27 ..............................
........................................................................
   1   -183.3554624 -0.183355E+03  0.924E-02    3.08       0.0  T
   2   -183.3554911 -0.286141E-04  0.552E-02    3.09       1.0  T
   3   -183.3554775  0.135898E-04  0.170E-02    3.09       1.0  T
   4   -183.3555002 -0.227541E-04  0.354E-03    3.10       2.6  T
   5   -183.3555007 -0.435749E-06  0.227E-03    3.10       4.1  T
   6   -183.3555009 -0.202523E-06  0.767E-04    3.10      12.2  T
   7   -183.3555009 -0.179429E-07  0.262E-04    3.10      35.7  T
     SCC iter.                  ...        0 min,  0.389 sec
     gradient                   ...        0 min,  0.142 sec
 * total energy  :  -180.9800062 Eh     change       -0.1798678E-03 Eh
   gradient norm :     0.0194088 Eh/α   predicted    -0.3756389E-03 ( 108.84%)
   displ. norm   :     0.1278897 α      lambda       -0.4056765E-03
   maximum displ.:     0.0501807 α      in ANC's #34, #12, #33, ...

........................................................................
.............................. CYCLE   28 ..............................
........................................................................
   1   -183.3584960 -0.183358E+03  0.324E-02    3.12       0.0  T
   2   -183.3585060 -0.100255E-04  0.196E-02    3.11       1.0  T
   3   -183.3585055  0.519581E-06  0.844E-03    3.11       1.1  T
   4   -183.3585082 -0.274709E-05  0.132E-03    3.11       7.1  T
   5   -183.3585083 -0.460189E-07  0.850E-04    3.11      11.0  T
   6   -183.3585083 -0.358473E-07  0.384E-04    3.11      24.4  T
     SCC iter.                  ...        0 min,  0.339 sec
     gradient                   ...        0 min,  0.149 sec
 * total energy  :  -180.9802136 Eh     change       -0.2073857E-03 Eh
   gradient norm :     0.0052867 Eh/α   predicted    -0.2061607E-03 (  -0.59%)
   displ. norm   :     0.2013553 α      lambda       -0.2129473E-03
   maximum displ.:     0.0741152 α      in ANC's #2, #12, #5, ...

........................................................................
.............................. CYCLE   29 ..............................
........................................................................
   1   -183.3584968 -0.183358E+03  0.302E-02    3.11       0.0  T
   2   -183.3585067 -0.988445E-05  0.174E-02    3.11       1.0  T
   3   -183.3585066  0.160263E-06  0.741E-03    3.11       1.3  T
   4   -183.3585079 -0.134371E-05  0.143E-03    3.12       6.6  T
   5   -183.3585080 -0.135236E-06  0.650E-04    3.12      14.4  T
   6   -183.3585081 -0.178863E-07  0.381E-04    3.12      24.6  T
     SCC iter.                  ...        0 min,  0.333 sec
     gradient                   ...        0 min,  0.143 sec
 * total energy  :  -180.9803913 Eh     change       -0.1777235E-03 Eh
   gradient norm :     0.0031609 Eh/α   predicted    -0.1107904E-03 ( -37.66%)
   displ. norm   :     0.6001088 α      lambda       -0.4867934E-03
   maximum displ.:     0.2100839 α      in ANC's #2, #5, #12, ...

........................................................................
.............................. CYCLE   30 ..............................
........................................................................
   1   -183.3560227 -0.183356E+03  0.816E-02    3.11       0.0  T
   2   -183.3560305 -0.777940E-05  0.480E-02    3.11       1.0  T
   3   -183.3560253  0.518430E-05  0.866E-03    3.11       1.1  T
   4   -183.3560344 -0.904127E-05  0.287E-03    3.11       3.3  T
   5   -183.3560346 -0.208968E-06  0.162E-03    3.11       5.8  T
   6   -183.3560346 -0.637187E-07  0.588E-04    3.11      15.9  T
   7   -183.3560346 -0.213477E-07  0.211E-04    3.11      44.5  T
     SCC iter.                  ...        0 min,  0.391 sec
     gradient                   ...        0 min,  0.135 sec
 * total energy  :  -180.9807454 Eh     change       -0.3541223E-03 Eh
   gradient norm :     0.0098974 Eh/α   predicted    -0.3310543E-03 (  -6.51%)
   displ. norm   :     0.4261658 α      lambda       -0.3083803E-03
   maximum displ.:     0.1542541 α      in ANC's #2, #18, #5, ...

........................................................................
.............................. CYCLE   31 ..............................
........................................................................
   1   -183.3560503 -0.183356E+03  0.491E-02    3.10       0.0  T
   2   -183.3560534 -0.311627E-05  0.289E-02    3.10       1.0  T
   3   -183.3560503  0.307454E-05  0.640E-03    3.10       1.5  T
   4   -183.3560549 -0.460400E-05  0.169E-03    3.10       5.6  T
   5   -183.3560550 -0.616283E-07  0.102E-03    3.10       9.2  T
   6   -183.3560550 -0.327575E-07  0.290E-04    3.10      32.3  T
   7   -183.3560550 -0.357664E-08  0.138E-04    3.10      68.1  T
     SCC iter.                  ...        0 min,  0.391 sec
     gradient                   ...        0 min,  0.143 sec
 * total energy  :  -180.9809914 Eh     change       -0.2459408E-03 Eh
   gradient norm :     0.0104561 Eh/α   predicted    -0.1821996E-03 ( -25.92%)
   displ. norm   :     0.4485857 α      lambda       -0.4605258E-03
   maximum displ.:     0.1825514 α      in ANC's #18, #2, #14, ...

........................................................................
.............................. CYCLE   32 ..............................
........................................................................
   1   -183.3599104 -0.183360E+03  0.467E-02    3.11       0.0  T
   2   -183.3599235 -0.131531E-04  0.275E-02    3.11       1.0  T
   3   -183.3599212  0.235717E-05  0.109E-02    3.11       1.0  T
   4   -183.3599268 -0.559183E-05  0.169E-03    3.11       5.6  T
   5   -183.3599269 -0.101761E-06  0.103E-03    3.11       9.1  T
   6   -183.3599269 -0.266012E-07  0.298E-04    3.11      31.4  T
   7   -183.3599269 -0.323556E-08  0.124E-04    3.11      75.4  T
     SCC iter.                  ...        0 min,  0.395 sec
     gradient                   ...        0 min,  0.147 sec
 * total energy  :  -180.9812739 Eh     change       -0.2825328E-03 Eh
   gradient norm :     0.0085607 Eh/α   predicted    -0.2766020E-03 (  -2.10%)
   displ. norm   :     0.6638499 α      lambda       -0.4605222E-03
   maximum displ.:     0.2484440 α      in ANC's #2, #18, #5, ...

........................................................................
.............................. CYCLE   33 ..............................
........................................................................
   1   -183.3552707 -0.183355E+03  0.825E-02    3.09       0.0  T
   2   -183.3552853 -0.146194E-04  0.486E-02    3.10       1.0  T
   3   -183.3552779  0.740526E-05  0.108E-02    3.10       1.0  T
   4   -183.3552895 -0.116328E-04  0.314E-03    3.10       3.0  T
   5   -183.3552900 -0.466652E-06  0.180E-03    3.10       5.2  T
   6   -183.3552901 -0.588967E-07  0.820E-04    3.10      11.4  T
   7   -183.3552901 -0.260055E-07  0.227E-04    3.10      41.2  T
     SCC iter.                  ...        0 min,  0.385 sec
     gradient                   ...        0 min,  0.144 sec
 * total energy  :  -180.9815062 Eh     change       -0.2323271E-03 Eh
   gradient norm :     0.0151680 Eh/α   predicted    -0.3317365E-03 (  42.79%)
   displ. norm   :     0.1403531 α      lambda       -0.2427979E-03
   maximum displ.:     0.0644528 α      in ANC's #14, #18, #2, ...

........................................................................
.............................. CYCLE   34 ..............................
........................................................................
   1   -183.3582595 -0.183358E+03  0.169E-02    3.11       0.0  T
   2   -183.3582634 -0.393886E-05  0.999E-03    3.11       1.0  T
   3   -183.3582634  0.703973E-07  0.428E-03    3.11       2.2  T
   4   -183.3582638 -0.496951E-06  0.789E-04    3.11      11.9  T
   5   -183.3582639 -0.311019E-07  0.407E-04    3.11      23.0  T
     SCC iter.                  ...        0 min,  0.282 sec
     gradient                   ...        0 min,  0.145 sec
 * total energy  :  -180.9816897 Eh     change       -0.1834601E-03 Eh
   gradient norm :     0.0068011 Eh/α   predicted    -0.1237925E-03 ( -32.52%)
   displ. norm   :     0.4651944 α      lambda       -0.3085362E-03
   maximum displ.:     0.1844212 α      in ANC's #18, #2, #14, ...

........................................................................
.............................. CYCLE   35 ..............................
........................................................................
   1   -183.3596546 -0.183360E+03  0.507E-02    3.11       0.0  T
   2   -183.3596611 -0.643298E-05  0.298E-02    3.11       1.0  T
   3   -183.3596586  0.246325E-05  0.765E-03    3.11       1.2  T
   4   -183.3596627 -0.411361E-05  0.158E-03    3.11       5.9  T
   5   -183.3596628 -0.741447E-07  0.970E-04    3.11       9.7  T
   6   -183.3596628 -0.271314E-07  0.421E-04    3.11      22.3  T
     SCC iter.                  ...        0 min,  0.337 sec
     gradient                   ...        0 min,  0.153 sec
 * total energy  :  -180.9819256 Eh     change       -0.2358571E-03 Eh
   gradient norm :     0.0043880 Eh/α   predicted    -0.1876521E-03 ( -20.44%)
   displ. norm   :     0.5637928 α      lambda       -0.2669043E-03
   maximum displ.:     0.2231749 α      in ANC's #18, #2, #14, ...

........................................................................
.............................. CYCLE   36 ..............................
........................................................................
   1   -183.3576311 -0.183358E+03  0.609E-02    3.10       0.0  T
   2   -183.3576360 -0.482976E-05  0.358E-02    3.10       1.0  T
   3   -183.3576334  0.257382E-05  0.613E-03    3.10       1.5  T
   4   -183.3576374 -0.403459E-05  0.209E-03    3.10       4.5  T
   5   -183.3576377 -0.260995E-06  0.109E-03    3.10       8.6  T
   6   -183.3576377 -0.123547E-07  0.483E-04    3.10      19.4  T
   7   -183.3576377 -0.140793E-07  0.134E-04    3.10      70.1  T
     SCC iter.                  ...        0 min,  0.394 sec
     gradient                   ...        0 min,  0.164 sec
 * total energy  :  -180.9821242 Eh     change       -0.1986288E-03 Eh
   gradient norm :     0.0079578 Eh/α   predicted    -0.1758710E-03 ( -11.46%)
   displ. norm   :     0.4898516 α      lambda       -0.3822439E-03
   maximum displ.:     0.1900516 α      in ANC's #14, #18, #2, ...

........................................................................
.............................. CYCLE   37 ..............................
........................................................................
   1   -183.3592725 -0.183359E+03  0.580E-02    3.10       0.0  T
   2   -183.3593003 -0.278226E-04  0.342E-02    3.11       1.0  T
   3   -183.3592978  0.245341E-05  0.130E-02    3.11       1.0  T
   4   -183.3593040 -0.621196E-05  0.243E-03    3.11       3.9  T
   5   -183.3593045 -0.463085E-06  0.117E-03    3.11       8.0  T
   6   -183.3593046 -0.889887E-07  0.636E-04    3.11      14.7  T
   7   -183.3593046 -0.876165E-08  0.172E-04    3.11      54.4  T
     SCC iter.                  ...        0 min,  0.394 sec
     gradient                   ...        0 min,  0.129 sec
 * total energy  :  -180.9823376 Eh     change       -0.2133642E-03 Eh
   gradient norm :     0.0070086 Eh/α   predicted    -0.2369812E-03 (  11.07%)
   displ. norm   :     0.4995286 α      lambda       -0.2474077E-03
   maximum displ.:     0.1956023 α      in ANC's #2, #18, #14, ...

........................................................................
.............................. CYCLE   38 ..............................
........................................................................
   1   -183.3559611 -0.183356E+03  0.562E-02    3.10       0.0  T
   2   -183.3559683 -0.718197E-05  0.332E-02    3.10       1.0  T
   3   -183.3559632  0.512363E-05  0.882E-03    3.10       1.1  T
   4   -183.3559706 -0.736632E-05  0.201E-03    3.10       4.7  T
   5   -183.3559708 -0.232784E-06  0.117E-03    3.10       8.0  T
   6   -183.3559708 -0.390084E-07  0.515E-04    3.10      18.2  T
   7   -183.3559708 -0.756748E-08  0.137E-04    3.10      68.4  T
     SCC iter.                  ...        0 min,  0.393 sec
     gradient                   ...        0 min,  0.144 sec
 * total energy  :  -180.9824965 Eh     change       -0.1589480E-03 Eh
   gradient norm :     0.0092363 Eh/α   predicted    -0.1545723E-03 (  -2.75%)
   displ. norm   :     0.2497076 α      lambda       -0.2617418E-03
   maximum displ.:     0.0828864 α      in ANC's #3, #2, #18, ...

........................................................................
.............................. CYCLE   39 ..............................
........................................................................
   1   -183.3595035 -0.183360E+03  0.331E-02    3.10       0.0  T
   2   -183.3595120 -0.851149E-05  0.194E-02    3.10       1.0  T
   3   -183.3595104  0.163588E-05  0.651E-03    3.10       1.4  T
   4   -183.3595126 -0.221711E-05  0.215E-03    3.10       4.4  T
   5   -183.3595132 -0.583911E-06  0.647E-04    3.10      14.5  T
   6   -183.3595132 -0.105247E-07  0.336E-04    3.10      27.9  T
     SCC iter.                  ...        0 min,  0.339 sec
     gradient                   ...        0 min,  0.147 sec
 * total energy  :  -180.9826517 Eh     change       -0.1552283E-03 Eh
   gradient norm :     0.0083894 Eh/α   predicted    -0.1390381E-03 ( -10.43%)
   displ. norm   :     0.2734152 α      lambda       -0.1948526E-03
   maximum displ.:     0.1006070 α      in ANC's #2, #3, #18, ...

........................................................................
.............................. CYCLE   40 ..............................
........................................................................
   1   -183.3597559 -0.183360E+03  0.356E-02    3.10       0.0  T
   2   -183.3597683 -0.123950E-04  0.207E-02    3.10       1.0  T
   3   -183.3597675  0.785238E-06  0.734E-03    3.10       1.3  T
   4   -183.3597689 -0.139554E-05  0.222E-03    3.10       4.2  T
   5   -183.3597695 -0.561194E-06  0.731E-04    3.10      12.8  T
   6   -183.3597695 -0.201086E-07  0.406E-04    3.10      23.1  T
     SCC iter.                  ...        0 min,  0.341 sec
     gradient                   ...        0 min,  0.139 sec
 * total energy  :  -180.9827794 Eh     change       -0.1276564E-03 Eh
   gradient norm :     0.0068895 Eh/α   predicted    -0.1047131E-03 ( -17.97%)
   displ. norm   :     0.2422549 α      lambda       -0.1370236E-03
   maximum displ.:     0.0960344 α      in ANC's #3, #2, #18, ...

........................................................................
.............................. CYCLE   41 ..............................
........................................................................
   1   -183.3601774 -0.183360E+03  0.294E-02    3.10       0.0  T
   2   -183.3601808 -0.345166E-05  0.173E-02    3.10       1.0  T
   3   -183.3601791  0.167737E-05  0.584E-03    3.10       1.6  T
   4   -183.3601816 -0.250582E-05  0.117E-03    3.10       8.0  T
   5   -183.3601818 -0.113055E-06  0.579E-04    3.10      16.2  T
   6   -183.3601818 -0.115987E-07  0.282E-04    3.10      33.2  T
     SCC iter.                  ...        0 min,  0.336 sec
     gradient                   ...        0 min,  0.142 sec
 * total energy  :  -180.9828818 Eh     change       -0.1024460E-03 Eh
   gradient norm :     0.0056595 Eh/α   predicted    -0.7253509E-04 ( -29.20%)
   displ. norm   :     0.3255026 α      lambda       -0.1564676E-03
   maximum displ.:     0.1370893 α      in ANC's #3, #2, #18, ...

........................................................................
.............................. CYCLE   42 ..............................
........................................................................
   1   -183.3606627 -0.183361E+03  0.383E-02    3.10       0.0  T
   2   -183.3606656 -0.285042E-05  0.225E-02    3.10       1.0  T
   3   -183.3606631  0.250357E-05  0.563E-03    3.10       1.7  T
   4   -183.3606664 -0.335732E-05  0.126E-03    3.10       7.4  T
   5   -183.3606665 -0.961359E-07  0.676E-04    3.10      13.8  T
   6   -183.3606665 -0.890304E-08  0.314E-04    3.10      29.9  T
     SCC iter.                  ...        0 min,  0.335 sec
     gradient                   ...        0 min,  0.141 sec
 * total energy  :  -180.9829903 Eh     change       -0.1084966E-03 Eh
   gradient norm :     0.0078555 Eh/α   predicted    -0.8652483E-04 ( -20.25%)
   displ. norm   :     0.3133647 α      lambda       -0.1735991E-03
   maximum displ.:     0.1423701 α      in ANC's #3, #2, #18, ...
 * RMSD in coord.:     0.5884602 α      energy gain  -0.5324736E-02 Eh

generating ANC from model Hessian ...
Using Lindh-Hessian (1995)
 Shifting diagonal of input Hessian by    9.9751162159171566E-003
 Lowest  eigenvalues of input Hessian
    0.000000    0.000000    0.000000    0.000000    0.000000    0.000000
    0.010000    0.010027    0.010087    0.010166    0.010189    0.010378
    0.010472    0.010494    0.010579    0.010607    0.010624    0.010723
 Highest eigenvalues
    2.024231    2.026314    2.029990    2.315744    2.338812    2.385588


........................................................................
.............................. CYCLE   43 ..............................
........................................................................
   1   -183.3606661 -0.183361E+03  0.392E-02    3.10       0.0  T
   2   -183.3606730 -0.689177E-05  0.229E-02    3.10       1.0  T
   3   -183.3606707  0.222242E-05  0.724E-03    3.10       1.3  T
   4   -183.3606740 -0.326854E-05  0.156E-03    3.10       6.0  T
   5   -183.3606742 -0.229389E-06  0.707E-04    3.10      13.3  T
   6   -183.3606743 -0.200649E-07  0.362E-04    3.10      25.9  T
     SCC iter.                  ...        0 min,  0.339 sec
     gradient                   ...        0 min,  0.152 sec
 * total energy  :  -180.9830914 Eh     change       -0.1010993E-03 Eh
   gradient norm :     0.0075047 Eh/α   predicted     0.0000000E+00 (-100.00%)
   displ. norm   :     0.0686108 α      lambda       -0.1471898E-03
   maximum displ.:     0.0197932 α      in ANC's #62, #21, #5, ...

........................................................................
.............................. CYCLE   44 ..............................
........................................................................
   1   -183.3618848 -0.183362E+03  0.191E-02    3.10       0.0  T
   2   -183.3618856 -0.799108E-06  0.112E-02    3.10       1.0  T
   3   -183.3618851  0.508758E-06  0.256E-03    3.10       3.7  T
   4   -183.3618858 -0.680044E-06  0.742E-04    3.10      12.6  T
   5   -183.3618858 -0.427887E-07  0.372E-04    3.10      25.2  T
     SCC iter.                  ...        0 min,  0.280 sec
     gradient                   ...        0 min,  0.142 sec
 * total energy  :  -180.9832035 Eh     change       -0.1120572E-03 Eh
   gradient norm :     0.0029898 Eh/α   predicted    -0.7397391E-04 ( -33.99%)
   displ. norm   :     0.1689433 α      lambda       -0.1957622E-03
   maximum displ.:     0.0487319 α      in ANC's #21, #5, #62, ...

........................................................................
.............................. CYCLE   45 ..............................
........................................................................
   1   -183.3625211 -0.183363E+03  0.375E-02    3.10       0.0  T
   2   -183.3625231 -0.193427E-05  0.220E-02    3.10       1.0  T
   3   -183.3625216  0.151683E-05  0.441E-03    3.10       2.1  T
   4   -183.3625238 -0.227175E-05  0.130E-03    3.10       7.2  T
   5   -183.3625239 -0.725956E-07  0.741E-04    3.10      12.6  T
   6   -183.3625239 -0.952204E-08  0.291E-04    3.10      32.1  T
     SCC iter.                  ...        0 min,  0.335 sec
     gradient                   ...        0 min,  0.143 sec
 * total energy  :  -180.9833377 Eh     change       -0.1342111E-03 Eh
   gradient norm :     0.0039417 Eh/α   predicted    -0.1007857E-03 ( -24.91%)
   displ. norm   :     0.1703725 α      lambda       -0.1107490E-03
   maximum displ.:     0.0559458 α      in ANC's #5, #21, #4, ...

........................................................................
.............................. CYCLE   46 ..............................
........................................................................
   1   -183.3616020 -0.183362E+03  0.345E-02    3.10       0.0  T
   2   -183.3616033 -0.136740E-05  0.203E-02    3.10       1.0  T
   3   -183.3616020  0.131219E-05  0.404E-03    3.10       2.3  T
   4   -183.3616040 -0.197662E-05  0.110E-03    3.10       8.5  T
   5   -183.3616040 -0.228164E-07  0.665E-04    3.10      14.1  T
   6   -183.3616040 -0.134648E-07  0.192E-04    3.10      48.7  T
     SCC iter.                  ...        0 min,  0.337 sec
     gradient                   ...        0 min,  0.136 sec
 * total energy  :  -180.9834184 Eh     change       -0.8069700E-04 Eh
   gradient norm :     0.0051137 Eh/α   predicted    -0.5701369E-04 ( -29.35%)
   displ. norm   :     0.1995642 α      lambda       -0.1103363E-03
   maximum displ.:     0.0729668 α      in ANC's #5, #4, #1, ...

........................................................................
.............................. CYCLE   47 ..............................
........................................................................
   1   -183.3606623 -0.183361E+03  0.333E-02    3.10       0.0  T
   2   -183.3606634 -0.112072E-05  0.196E-02    3.10       1.0  T
   3   -183.3606624  0.952311E-06  0.353E-03    3.10       2.7  T
   4   -183.3606640 -0.153222E-05  0.101E-03    3.10       9.2  T
   5   -183.3606640 -0.137228E-07  0.599E-04    3.10      15.6  T
   6   -183.3606640 -0.116083E-07  0.162E-04    3.10      57.9  T
     SCC iter.                  ...        0 min,  0.336 sec
     gradient                   ...        0 min,  0.140 sec
 * total energy  :  -180.9835017 Eh     change       -0.8333609E-04 Eh
   gradient norm :     0.0047094 Eh/α   predicted    -0.5736569E-04 ( -31.16%)
   displ. norm   :     0.2436592 α      lambda       -0.1258804E-03
   maximum displ.:     0.0954335 α      in ANC's #5, #4, #1, ...

........................................................................
.............................. CYCLE   48 ..............................
........................................................................
   1   -183.3600254 -0.183360E+03  0.334E-02    3.10       0.0  T
   2   -183.3600267 -0.126616E-05  0.197E-02    3.10       1.0  T
   3   -183.3600258  0.819007E-06  0.353E-03    3.10       2.7  T
   4   -183.3600272 -0.137391E-05  0.997E-04    3.10       9.4  T
   5   -183.3600272 -0.194170E-07  0.597E-04    3.10      15.7  T
   6   -183.3600273 -0.100239E-07  0.176E-04    3.10      53.2  T
     SCC iter.                  ...        0 min,  0.340 sec
     gradient                   ...        0 min,  0.134 sec
 * total energy  :  -180.9835989 Eh     change       -0.9714682E-04 Eh
   gradient norm :     0.0038854 Eh/α   predicted    -0.6669006E-04 ( -31.35%)
   displ. norm   :     0.3228779 α      lambda       -0.1346261E-03
   maximum displ.:     0.1298736 α      in ANC's #5, #4, #1, ...

........................................................................
.............................. CYCLE   49 ..............................
........................................................................
   1   -183.3595429 -0.183360E+03  0.393E-02    3.10       0.0  T
   2   -183.3595448 -0.184757E-05  0.231E-02    3.10       1.0  T
   3   -183.3595440  0.751887E-06  0.372E-03    3.10       2.5  T
   4   -183.3595455 -0.141399E-05  0.119E-03    3.10       7.9  T
   5   -183.3595455 -0.470293E-07  0.654E-04    3.10      14.3  T
   6   -183.3595455 -0.631348E-08  0.238E-04    3.10      39.4  T
     SCC iter.                  ...        0 min,  0.334 sec
     gradient                   ...        0 min,  0.173 sec
 * total energy  :  -180.9837064 Eh     change       -0.1075573E-03 Eh
   gradient norm :     0.0039569 Eh/α   predicted    -0.7450718E-04 ( -30.73%)
   displ. norm   :     0.3877563 α      lambda       -0.1538534E-03
   maximum displ.:     0.1612964 α      in ANC's #5, #4, #1, ...

........................................................................
.............................. CYCLE   50 ..............................
........................................................................
   1   -183.3600072 -0.183360E+03  0.405E-02    3.09       0.0  T
   2   -183.3600097 -0.252866E-05  0.238E-02    3.09       1.0  T
   3   -183.3600086  0.113836E-05  0.458E-03    3.09       2.0  T
   4   -183.3600105 -0.191640E-05  0.125E-03    3.09       7.5  T
   5   -183.3600105 -0.583059E-07  0.700E-04    3.09      13.4  T
   6   -183.3600105 -0.110454E-07  0.270E-04    3.09      34.7  T
     SCC iter.                  ...        0 min,  0.338 sec
     gradient                   ...        0 min,  0.142 sec
 * total energy  :  -180.9838278 Eh     change       -0.1213974E-03 Eh
   gradient norm :     0.0043739 Eh/α   predicted    -0.8849954E-04 ( -27.10%)
   displ. norm   :     0.4577451 α      lambda       -0.1572891E-03
   maximum displ.:     0.1963951 α      in ANC's #5, #4, #1, ...

........................................................................
.............................. CYCLE   51 ..............................
........................................................................
   1   -183.3595180 -0.183360E+03  0.478E-02    3.09       0.0  T
   2   -183.3595210 -0.302905E-05  0.282E-02    3.09       1.0  T
   3   -183.3595192  0.179989E-05  0.491E-03    3.09       1.9  T
   4   -183.3595220 -0.278814E-05  0.159E-03    3.09       5.9  T
   5   -183.3595221 -0.130656E-06  0.832E-04    3.09      11.3  T
   6   -183.3595221 -0.374607E-08  0.374E-04    3.09      25.0  T
     SCC iter.                  ...        0 min,  0.336 sec
     gradient                   ...        0 min,  0.142 sec
 * total energy  :  -180.9839457 Eh     change       -0.1179038E-03 Eh
   gradient norm :     0.0058842 Eh/α   predicted    -0.9514730E-04 ( -19.30%)
   displ. norm   :     0.4280541 α      lambda       -0.2233125E-03
   maximum displ.:     0.1916638 α      in ANC's #5, #1, #4, ...

........................................................................
.............................. CYCLE   52 ..............................
........................................................................
   1   -183.3633742 -0.183363E+03  0.377E-02    3.09       0.0  T
   2   -183.3633844 -0.102391E-04  0.222E-02    3.09       1.0  T
   3   -183.3633830  0.142856E-05  0.899E-03    3.08       1.0  T
   4   -183.3633864 -0.341637E-05  0.153E-03    3.08       6.1  T
   5   -183.3633866 -0.195463E-06  0.754E-04    3.08      12.4  T
   6   -183.3633867 -0.359699E-07  0.358E-04    3.08      26.2  T
     SCC iter.                  ...        0 min,  0.342 sec
     gradient                   ...        0 min,  0.154 sec
 * total energy  :  -180.9840578 Eh     change       -0.1120597E-03 Eh
   gradient norm :     0.0077253 Eh/α   predicted    -0.1321223E-03 (  17.90%)
   displ. norm   :     0.3886626 α      lambda       -0.1590126E-03
   maximum displ.:     0.1799836 α      in ANC's #5, #4, #1, ...

........................................................................
.............................. CYCLE   53 ..............................
........................................................................
   1   -183.3620384 -0.183362E+03  0.384E-02    3.08       0.0  T
   2   -183.3620419 -0.342143E-05  0.228E-02    3.08       1.0  T
   3   -183.3620389  0.294395E-05  0.644E-03    3.08       1.5  T
   4   -183.3620431 -0.419785E-05  0.138E-03    3.08       6.8  T
   5   -183.3620432 -0.102535E-06  0.821E-04    3.08      11.4  T
   6   -183.3620432 -0.139933E-07  0.280E-04    3.08      33.4  T
     SCC iter.                  ...        0 min,  0.336 sec
     gradient                   ...        0 min,  0.149 sec
 * total energy  :  -180.9841777 Eh     change       -0.1199230E-03 Eh
   gradient norm :     0.0046596 Eh/α   predicted    -0.9151658E-04 ( -23.69%)
   displ. norm   :     0.3216077 α      lambda       -0.1503538E-03
   maximum displ.:     0.1611041 α      in ANC's #5, #1, #4, ...

........................................................................
.............................. CYCLE   54 ..............................
........................................................................
   1   -183.3618300 -0.183362E+03  0.282E-02    3.08       0.0  T
   2   -183.3618312 -0.122406E-05  0.167E-02    3.08       1.0  T
   3   -183.3618300  0.122173E-05  0.375E-03    3.08       2.5  T
   4   -183.3618317 -0.172703E-05  0.933E-04    3.08      10.0  T
   5   -183.3618317 -0.330977E-07  0.511E-04    3.08      18.3  T
   6   -183.3618317 -0.553516E-08  0.235E-04    3.08      39.9  T
     SCC iter.                  ...        0 min,  0.331 sec
     gradient                   ...        0 min,  0.142 sec
 * total energy  :  -180.9842970 Eh     change       -0.1192984E-03 Eh
   gradient norm :     0.0060094 Eh/α   predicted    -0.8296053E-04 ( -30.46%)
   displ. norm   :     0.4136919 α      lambda       -0.2025144E-03
   maximum displ.:     0.2108753 α      in ANC's #5, #1, #4, ...

........................................................................
.............................. CYCLE   55 ..............................
........................................................................
   1   -183.3617447 -0.183362E+03  0.341E-02    3.09       0.0  T
   2   -183.3617470 -0.232905E-05  0.202E-02    3.09       1.0  T
   3   -183.3617455  0.156938E-05  0.455E-03    3.09       2.1  T
   4   -183.3617478 -0.232504E-05  0.116E-03    3.09       8.0  T
   5   -183.3617479 -0.786335E-07  0.560E-04    3.09      16.7  T
   6   -183.3617479 -0.538512E-08  0.279E-04    3.09      33.6  T
     SCC iter.                  ...        0 min,  0.339 sec
     gradient                   ...        0 min,  0.121 sec
 * total energy  :  -180.9844651 Eh     change       -0.1680440E-03 Eh
   gradient norm :     0.0051681 Eh/α   predicted    -0.1185878E-03 ( -29.43%)
   displ. norm   :     0.5581110 α      lambda       -0.2503940E-03
   maximum displ.:     0.2869360 α      in ANC's #5, #1, #4, ...

........................................................................
.............................. CYCLE   56 ..............................
........................................................................
   1   -183.3602335 -0.183360E+03  0.449E-02    3.09       0.0  T
   2   -183.3602377 -0.425492E-05  0.267E-02    3.09       1.0  T
   3   -183.3602349  0.286533E-05  0.654E-03    3.09       1.4  T
   4   -183.3602393 -0.447987E-05  0.142E-03    3.09       6.6  T
   5   -183.3602394 -0.875072E-07  0.779E-04    3.09      12.0  T
   6   -183.3602394 -0.154847E-07  0.284E-04    3.09      33.0  T
     SCC iter.                  ...        0 min,  0.335 sec
     gradient                   ...        0 min,  0.146 sec
 * total energy  :  -180.9846757 Eh     change       -0.2106554E-03 Eh
   gradient norm :     0.0055722 Eh/α   predicted    -0.1642053E-03 ( -22.05%)
   displ. norm   :     0.5915759 α      lambda       -0.2620209E-03
   maximum displ.:     0.3108186 α      in ANC's #5, #1, #4, ...

........................................................................
.............................. CYCLE   57 ..............................
........................................................................
   1   -183.3593562 -0.183359E+03  0.463E-02    3.09       0.0  T
   2   -183.3593618 -0.558599E-05  0.275E-02    3.09       1.0  T
   3   -183.3593578  0.397560E-05  0.738E-03    3.09       1.3  T
   4   -183.3593637 -0.586306E-05  0.158E-03    3.09       5.9  T
   5   -183.3593638 -0.141734E-06  0.836E-04    3.09      11.2  T
   6   -183.3593639 -0.207395E-07  0.379E-04    3.09      24.7  T
     SCC iter.                  ...        0 min,  0.330 sec
     gradient                   ...        0 min,  0.158 sec
 * total energy  :  -180.9848923 Eh     change       -0.2165440E-03 Eh
   gradient norm :     0.0058951 Eh/α   predicted    -0.1768823E-03 ( -18.32%)
   displ. norm   :     0.5900220 α      lambda       -0.2483049E-03
   maximum displ.:     0.3157269 α      in ANC's #5, #1, #4, ...

........................................................................
.............................. CYCLE   58 ..............................
........................................................................
   1   -183.3587518 -0.183359E+03  0.449E-02    3.09       0.0  T
   2   -183.3587564 -0.458229E-05  0.267E-02    3.09       1.0  T
   3   -183.3587520  0.445522E-05  0.746E-03    3.09       1.3  T
   4   -183.3587583 -0.636167E-05  0.154E-03    3.09       6.1  T
   5   -183.3587584 -0.111584E-06  0.863E-04    3.09      10.9  T
   6   -183.3587585 -0.276041E-07  0.323E-04    3.09      29.0  T
     SCC iter.                  ...        0 min,  0.339 sec
     gradient                   ...        0 min,  0.136 sec
 * total energy  :  -180.9851021 Eh     change       -0.2098123E-03 Eh
   gradient norm :     0.0059009 Eh/α   predicted    -0.1673778E-03 ( -20.23%)
   displ. norm   :     0.5463906 α      lambda       -0.2633166E-03
   maximum displ.:     0.2994484 α      in ANC's #5, #1, #4, ...

........................................................................
.............................. CYCLE   59 ..............................
........................................................................
   1   -183.3607217 -0.183361E+03  0.417E-02    3.09       0.0  T
   2   -183.3607268 -0.514005E-05  0.249E-02    3.09       1.0  T
   3   -183.3607220  0.481490E-05  0.789E-03    3.09       1.2  T
   4   -183.3607287 -0.668612E-05  0.164E-03    3.09       5.7  T
   5   -183.3607288 -0.150202E-06  0.886E-04    3.09      10.6  T
   6   -183.3607289 -0.385461E-07  0.355E-04    3.09      26.4  T
     SCC iter.                  ...        0 min,  0.341 sec
     gradient                   ...        0 min,  0.148 sec
 * total energy  :  -180.9853130 Eh     change       -0.2109313E-03 Eh
   gradient norm :     0.0051222 Eh/α   predicted    -0.1709898E-03 ( -18.94%)
   displ. norm   :     0.6496554 α      lambda       -0.2699598E-03
   maximum displ.:     0.3490713 α      in ANC's #5, #1, #4, ...

........................................................................
.............................. CYCLE   60 ..............................
........................................................................
   1   -183.3582627 -0.183358E+03  0.494E-02    3.08       0.0  T
   2   -183.3582689 -0.615322E-05  0.296E-02    3.08       1.0  T
   3   -183.3582622  0.669714E-05  0.843E-03    3.07       1.1  T
   4   -183.3582714 -0.917606E-05  0.203E-03    3.07       4.6  T
   5   -183.3582716 -0.215026E-06  0.105E-03    3.07       8.9  T
   6   -183.3582716 -0.374821E-07  0.419E-04    3.07      22.3  T
   7   -183.3582716 -0.541024E-08  0.208E-04    3.07      45.0  T
     SCC iter.                  ...        0 min,  0.393 sec
     gradient                   ...        0 min,  0.147 sec
 * total energy  :  -180.9854944 Eh     change       -0.1814221E-03 Eh
   gradient norm :     0.0086830 Eh/α   predicted    -0.1919495E-03 (   5.80%)
   displ. norm   :     0.4488118 α      lambda       -0.3544717E-03
   maximum displ.:     0.2275022 α      in ANC's #5, #1, #12, ...

........................................................................
.............................. CYCLE   61 ..............................
........................................................................
   1   -183.3654251 -0.183365E+03  0.447E-02    3.08       0.0  T
   2   -183.3654392 -0.141104E-04  0.269E-02    3.08       1.0  T
   3   -183.3654352  0.392949E-05  0.107E-02    3.08       1.0  T
   4   -183.3654419 -0.662695E-05  0.244E-03    3.08       3.8  T
   5   -183.3654425 -0.640293E-06  0.988E-04    3.08       9.5  T
   6   -183.3654425 -0.468437E-07  0.412E-04    3.08      22.8  T
     SCC iter.                  ...        0 min,  0.338 sec
     gradient                   ...        0 min,  0.148 sec
 * total energy  :  -180.9856637 Eh     change       -0.1692720E-03 Eh
   gradient norm :     0.0070028 Eh/α   predicted    -0.2129382E-03 (  25.80%)
   displ. norm   :     0.5055606 α      lambda       -0.1981249E-03
   maximum displ.:     0.2753105 α      in ANC's #5, #1, #4, ...

........................................................................
.............................. CYCLE   62 ..............................
........................................................................
   1   -183.3612944 -0.183361E+03  0.355E-02    3.07       0.0  T
   2   -183.3613007 -0.632647E-05  0.212E-02    3.07       1.0  T
   3   -183.3612986  0.208910E-05  0.648E-03    3.07       1.4  T
   4   -183.3613019 -0.329776E-05  0.178E-03    3.07       5.3  T
   5   -183.3613022 -0.339197E-06  0.755E-04    3.07      12.4  T
   6   -183.3613023 -0.162592E-07  0.352E-04    3.07      26.6  T
     SCC iter.                  ...        0 min,  0.339 sec
     gradient                   ...        0 min,  0.141 sec
 * total energy  :  -180.9858139 Eh     change       -0.1501798E-03 Eh
   gradient norm :     0.0062472 Eh/α   predicted    -0.1243849E-03 ( -17.18%)
   displ. norm   :     0.3975516 α      lambda       -0.2174665E-03
   maximum displ.:     0.2064001 α      in ANC's #1, #5, #4, ...

........................................................................
.............................. CYCLE   63 ..............................
........................................................................
   1   -183.3585475 -0.183359E+03  0.286E-02    3.07       0.0  T
   2   -183.3585534 -0.585599E-05  0.170E-02    3.07       1.0  T
   3   -183.3585524  0.987703E-06  0.617E-03    3.07       1.5  T
   4   -183.3585542 -0.180675E-05  0.154E-03    3.07       6.1  T
   5   -183.3585545 -0.258464E-06  0.639E-04    3.07      14.7  T
   6   -183.3585545 -0.233343E-07  0.326E-04    3.07      28.7  T
     SCC iter.                  ...        0 min,  0.336 sec
     gradient                   ...        0 min,  0.152 sec
 * total energy  :  -180.9859601 Eh     change       -0.1462339E-03 Eh
   gradient norm :     0.0061934 Eh/α   predicted    -0.1259198E-03 ( -13.89%)
   displ. norm   :     0.3683244 α      lambda       -0.1820842E-03
   maximum displ.:     0.1977392 α      in ANC's #1, #5, #12, ...

........................................................................
.............................. CYCLE   64 ..............................
........................................................................
   1   -183.3605587 -0.183361E+03  0.260E-02    3.07       0.0  T
[...]
   112   1 H        0.925     0.043     2.415     2.430
   113   1 H        0.925     0.029     2.594     2.519
   114   1 H        0.926     0.044     2.400     2.423

 Mol. C6AA /au·bohr⁶  :     136067.203061
 Mol. C8AA /au·bohr⁸  :    3165125.068469
 Mol. α(0) /au        :        564.819930


Wiberg/Mayer (AO) data.
largest (>0.10) Wiberg bond orders for each atom

 ---------------------------------------------------------------------------
     #   Z sym  total        # sym  WBO       # sym  WBO       # sym  WBO
 ---------------------------------------------------------------------------
     1   6 C    3.970 --     6 C    1.412    10 C    1.386     2 C    0.951
                             8 C    0.105
     2   6 C    3.822 --     3 F    0.951     1 C    0.951     4 F    0.944
                             5 F    0.937
     3   9 F    1.074 --     2 C    0.951
     4   9 F    1.072 --     2 C    0.944
     5   9 F    1.067 --     2 C    0.937
     6   6 C    3.987 --     7 C    1.442     1 C    1.412    61 H    0.965
                             9 C    0.109
     7   6 C    3.988 --     6 C    1.442     8 C    1.432    62 H    0.968
                            10 C    0.108
     8   6 C    3.989 --     9 C    1.448     7 C    1.432    63 H    0.968
                             1 C    0.105
     9   6 C    3.988 --     8 C    1.448    10 C    1.407    64 H    0.964
                             6 C    0.109
    10   6 C    3.986 --     9 C    1.407     1 C    1.386    11 C    0.992
                             7 C    0.108
    11   6 C    3.970 --    10 C    0.992    44 N    0.969    12 C    0.949
                            65 H    0.948
    12   6 C    3.970 --    13 C    0.990    23 N    0.963    66 H    0.953
                            11 C    0.949
    13   6 C    3.986 --    22 C    1.406    14 C    1.387    12 C    0.990
                            20 C    0.108
    14   6 C    3.968 --    19 C    1.410    13 C    1.387    15 C    0.951
                            21 C    0.104
    15   6 C    3.819 --    16 F    0.954    18 F    0.954    14 C    0.951
                            17 F    0.921
    16   9 F    1.076 --    15 C    0.954
    17   9 F    1.047 --    15 C    0.921
    18   9 F    1.085 --    15 C    0.954
    19   6 C    3.987 --    20 C    1.445    14 C    1.410    67 H    0.966
                            22 C    0.110
    20   6 C    3.989 --    19 C    1.445    21 C    1.431    68 H    0.969
                            13 C    0.108
    21   6 C    3.990 --    22 C    1.450    20 C    1.431    69 H    0.969
                            14 C    0.104
    22   6 C    3.986 --    21 C    1.450    13 C    1.406    70 H    0.958
                            19 C    0.110
    23   7 N    3.452 --    24 C    1.191    40 C    0.987    12 C    0.963
                            39 O    0.187
    24   6 C    3.939 --    39 O    1.700    23 N    1.191    25 C    0.963
    25   6 C    3.985 --    26 C    1.416    38 C    1.392    24 C    0.963
                            32 C    0.104
    26   6 C    3.989 --    25 C    1.416    27 C    1.400    71 H    0.963
                            33 C    0.108
    27   6 C    3.985 --    32 C    1.426    26 C    1.400    28 C    0.983
                            38 C    0.104
    28   6 C    3.990 --    29 C    1.000    31 C    0.987    30 C    0.987
                            27 C    0.983
    29   6 C    3.996 --    28 C    1.000    74 H    0.985    73 H    0.984
                            72 H    0.984
    30   6 C    3.995 --    28 C    0.987    77 H    0.987    75 H    0.984
                            76 H    0.984
    31   6 C    3.995 --    28 C    0.987    78 H    0.986    80 H    0.984
                            79 H    0.983
    32   6 C    3.990 --    27 C    1.426    33 C    1.403    81 H    0.958
                            25 C    0.104
    33   6 C    3.985 --    38 C    1.423    32 C    1.403    34 C    0.983
                            26 C    0.108
    34   6 C    3.990 --    37 C    1.000    36 C    0.989    35 C    0.986
                            33 C    0.983
    35   6 C    3.996 --    84 H    0.986    34 C    0.986    83 H    0.984
                            82 H    0.984
    36   6 C    3.995 --    34 C    0.989    85 H    0.987    86 H    0.984
                            87 H    0.983
    37   6 C    3.996 --    34 C    1.000    88 H    0.985    90 H    0.984
                            89 H    0.984
    38   6 C    3.988 --    33 C    1.423    25 C    1.392    91 H    0.964
                            27 C    0.104
    39   8 O    2.028 --    24 C    1.700    23 N    0.187
    40   6 C    3.961 --    23 N    0.987    44 N    0.973    92 H    0.941
                            41 C    0.908
    41   6 C    3.921 --    43 O    1.744    42 O    1.174    40 C    0.908
    42   8 O    2.236 --    41 C    1.174    93 H    0.851    43 O    0.177
    43   8 O    2.040 --    41 C    1.744    42 O    0.177
    44   7 N    3.450 --    45 C    1.202    40 C    0.973    11 C    0.969
                            60 O    0.184
    45   6 C    3.936 --    60 O    1.686    44 N    1.202    46 C    0.960
    46   6 C    3.986 --    59 C    1.423    47 C    1.390    45 C    0.960
                            53 C    0.105
    47   6 C    3.988 --    48 C    1.426    46 C    1.390    94 H    0.962
                            54 C    0.105
    48   6 C    3.985 --    47 C    1.426    53 C    1.398    49 C    0.983
                            59 C    0.107
    49   6 C    3.990 --    51 C    1.000    50 C    0.988    52 C    0.986
                            48 C    0.983
    50   6 C    3.995 --    49 C    0.988    96 H    0.985    97 H    0.984
                            95 H    0.983
    51   6 C    3.996 --    49 C    1.000    99 H    0.985    98 H    0.984
                           100 H    0.984
    52   6 C    3.995 --   101 H    0.987    49 C    0.986   103 H    0.984
                           102 H    0.984
    53   6 C    3.990 --    54 C    1.432    48 C    1.398   104 H    0.958
                            46 C    0.105
    54   6 C    3.985 --    53 C    1.432    59 C    1.394    55 C    0.983
                            47 C    0.105
    55   6 C    3.990 --    56 C    1.000    58 C    0.988    57 C    0.985
                            54 C    0.983
    56   6 C    3.996 --    55 C    1.000   106 H    0.985   105 H    0.984
                           107 H    0.984
    57   6 C    3.995 --   109 H    0.987    55 C    0.985   110 H    0.984
                           108 H    0.983
    58   6 C    3.996 --    55 C    0.988   112 H    0.984   113 H    0.984
                           111 H    0.983
    59   6 C    3.989 --    46 C    1.423    54 C    1.394   114 H    0.963
                            48 C    0.107
    60   8 O    2.045 --    45 C    1.686    44 N    0.184
    61   1 H    0.995 --     6 C    0.965
    62   1 H    0.996 --     7 C    0.968
    63   1 H    0.996 --     8 C    0.968
    64   1 H    0.997 --     9 C    0.964
    65   1 H    0.996 --    11 C    0.948
    66   1 H    0.995 --    12 C    0.953
    67   1 H    0.995 --    19 C    0.966
    68   1 H    0.996 --    20 C    0.969
    69   1 H    0.996 --    21 C    0.969
    70   1 H    0.994 --    22 C    0.958
    71   1 H    0.998 --    26 C    0.963
    72   1 H    0.998 --    29 C    0.984
    73   1 H    0.999 --    29 C    0.984
    74   1 H    0.999 --    29 C    0.985
    75   1 H    0.997 --    30 C    0.984
    76   1 H    0.998 --    30 C    0.984
    77   1 H    0.999 --    30 C    0.987
    78   1 H    0.998 --    31 C    0.986
    79   1 H    0.999 --    31 C    0.983
    80   1 H    0.998 --    31 C    0.984
    81   1 H    0.998 --    32 C    0.958
    82   1 H    0.997 --    35 C    0.984
    83   1 H    0.999 --    35 C    0.984
    84   1 H    0.999 --    35 C    0.986
    85   1 H    0.999 --    36 C    0.987
    86   1 H    0.998 --    36 C    0.984
    87   1 H    0.999 --    36 C    0.983
    88   1 H    0.998 --    37 C    0.985
    89   1 H    0.999 --    37 C    0.984
    90   1 H    0.998 --    37 C    0.984
    91   1 H    0.997 --    38 C    0.964
    92   1 H    0.993 --    40 C    0.941
    93   1 H    0.879 --    42 O    0.851
    94   1 H    0.998 --    47 C    0.962
    95   1 H    0.999 --    50 C    0.983
    96   1 H    0.999 --    50 C    0.985
    97   1 H    0.997 --    50 C    0.984
    98   1 H    0.998 --    51 C    0.984
    99   1 H    0.999 --    51 C    0.985
   100   1 H    0.998 --    51 C    0.984
   101   1 H    0.999 --    52 C    0.987
   102   1 H    0.999 --    52 C    0.984
   103   1 H    0.997 --    52 C    0.984
   104   1 H    0.998 --    53 C    0.958
   105   1 H    0.999 --    56 C    0.984
   106   1 H    0.999 --    56 C    0.985
   107   1 H    0.998 --    56 C    0.984
   108   1 H    0.998 --    57 C    0.983
   109   1 H    0.999 --    57 C    0.987
   110   1 H    0.997 --    57 C    0.984
   111   1 H    0.999 --    58 C    0.983
   112   1 H    0.997 --    58 C    0.984
   113   1 H    0.999 --    58 C    0.984
   114   1 H    0.997 --    59 C    0.963
 ---------------------------------------------------------------------------

Topologies differ in total number of bonds
Writing topology from bond orders to xtbtopo.mol

molecular dipole:
                 x           y           z       tot (Debye)
 q only:        1.811      -0.617       1.157
   full:        1.761      -0.712       1.078       5.552
molecular quadrupole (traceless):
                xx          xy          yy          xz          yz          zz
 q only:       34.167      26.860     -31.534      -5.829      17.114      -2.633
  q+dip:       30.160      32.754     -36.281      -8.158      18.429       6.121
   full:       31.983      28.165     -33.550      -6.393      15.892       1.566

           -------------------------------------------------
          |                Geometry Summary                 |
           -------------------------------------------------

      molecular mass/u    :      836.9455688
   center of mass at/Å    :       -0.0435263       0.4961829      -0.1544493
  moments of inertia/u·Å² :        0.8265740E+04   0.1527931E+05   0.1683400E+05
rotational constants/cm⁻¹ :        0.2039458E-02   0.1103298E-02   0.1001404E-02

 * 106 selected distances

     #   Z          #   Z                                           value/Å
     2   6 C        3   9 F                                       1.3421534
     2   6 C        4   9 F                                       1.3423723
     2   6 C        5   9 F                                       1.3482313
     1   6 C        6   6 C                                       1.3916510
     6   6 C        7   6 C                                       1.3809650
     7   6 C        8   6 C                                       1.3823018
     8   6 C        9   6 C                                       1.3799600
     1   6 C       10   6 C                                       1.3982672
     9   6 C       10   6 C                                       1.3916165
    13   6 C       14   6 C                                       1.3950982
    15   6 C       16   9 F                                       1.3401455
    15   6 C       17   9 F                                       1.3587566
    15   6 C       18   9 F                                       1.3391151
    14   6 C       19   6 C                                       1.3904992
    19   6 C       20   6 C                                       1.3817426
    20   6 C       21   6 C                                       1.3846201
    13   6 C       22   6 C                                       1.3917689
    21   6 C       22   6 C                                       1.3816487
    12   6 C       23   7 N                                       1.4559272
    23   7 N       24   6 C                                       1.3629933
    25   6 C       26   6 C                                       1.3836514
    26   6 C       27   6 C                                       1.3900375
    28   6 C       29   6 C                                       1.5308515
    28   6 C       30   6 C                                       1.5346833
    28   6 C       31   6 C                                       1.5360926 (max)
    27   6 C       32   6 C                                       1.3871524
    32   6 C       33   6 C                                       1.3937432
    34   6 C       35   6 C                                       1.5359889
    34   6 C       36   6 C                                       1.5349061
    34   6 C       37   6 C                                       1.5309415
    25   6 C       38   6 C                                       1.3881467
    33   6 C       38   6 C                                       1.3861368
    24   6 C       39   8 O                                       1.2117255
    23   7 N       40   6 C                                       1.4399539
    41   6 C       42   8 O                                       1.3200483
    41   6 C       43   8 O                                       1.2025945
    11   6 C       44   7 N                                       1.4489613
    40   6 C       44   7 N                                       1.4487702
    44   7 N       45   6 C                                       1.3603360
    46   6 C       47   6 C                                       1.3890238
    47   6 C       48   6 C                                       1.3859193
    49   6 C       50   6 C                                       1.5353364
    49   6 C       51   6 C                                       1.5313679
    49   6 C       52   6 C                                       1.5351651
    48   6 C       53   6 C                                       1.3937783
    53   6 C       54   6 C                                       1.3862736
    55   6 C       56   6 C                                       1.5310759
    55   6 C       57   6 C                                       1.5353061
    55   6 C       58   6 C                                       1.5343775
    46   6 C       59   6 C                                       1.3827102
    54   6 C       59   6 C                                       1.3913785
    45   6 C       60   8 O                                       1.2142646
     6   6 C       61   1 H                                       1.0787919
     7   6 C       62   1 H                                       1.0788121
     8   6 C       63   1 H                                       1.0787553
     9   6 C       64   1 H                                       1.0790227
    11   6 C       65   1 H                                       1.0982194
    12   6 C       66   1 H                                       1.0939733
    19   6 C       67   1 H                                       1.0788537
    20   6 C       68   1 H                                       1.0788435
    21   6 C       69   1 H                                       1.0793589
    22   6 C       70   1 H                                       1.0808550
    26   6 C       71   1 H                                       1.0791664
    29   6 C       72   1 H                                       1.0880924
    29   6 C       73   1 H                                       1.0876360
    29   6 C       74   1 H                                       1.0876414
    30   6 C       75   1 H                                       1.0879871
    30   6 C       76   1 H                                       1.0863610
    30   6 C       77   1 H                                       1.0880742
    31   6 C       78   1 H                                       1.0879685
    31   6 C       79   1 H                                       1.0861501
    31   6 C       80   1 H                                       1.0878846
    32   6 C       81   1 H                                       1.0766324
    35   6 C       82   1 H                                       1.0879397
    35   6 C       83   1 H                                       1.0869282
    35   6 C       84   1 H                                       1.0885750
    36   6 C       85   1 H                                       1.0877192
    36   6 C       86   1 H                                       1.0879619
    36   6 C       87   1 H                                       1.0861929
    37   6 C       88   1 H                                       1.0873357
    37   6 C       89   1 H                                       1.0873714
    37   6 C       90   1 H                                       1.0882731
    38   6 C       91   1 H                                       1.0771483
    40   6 C       92   1 H                                       1.1005289
    42   8 O       93   1 H                                       0.9706383 (min)
    47   6 C       94   1 H                                       1.0780676
    50   6 C       95   1 H                                       1.0860836
    50   6 C       96   1 H                                       1.0878041
    50   6 C       97   1 H                                       1.0878908
    51   6 C       98   1 H                                       1.0880618
    51   6 C       99   1 H                                       1.0882206
    51   6 C      100   1 H                                       1.0870934
    52   6 C      101   1 H                                       1.0876986
    52   6 C      102   1 H                                       1.0863729
    52   6 C      103   1 H                                       1.0878622
    53   6 C      104   1 H                                       1.0764984
    56   6 C      105   1 H                                       1.0874105
    56   6 C      106   1 H                                       1.0879078
    56   6 C      107   1 H                                       1.0879706
    57   6 C      108   1 H                                       1.0860975
    57   6 C      109   1 H                                       1.0879460
    57   6 C      110   1 H                                       1.0878800
    58   6 C      111   1 H                                       1.0859264
    58   6 C      112   1 H                                       1.0878090
    58   6 C      113   1 H                                       1.0878484
    59   6 C      114   1 H                                       1.0780790

 * 6 distinct bonds (by element types)

   Z      Z             #   av. dist./Å        max./Å        min./Å
   1 H    6 C          53     1.0856902     1.1005289     1.0764984
   6 C    6 C          36     1.4365051     1.5360926     1.3799600
   6 C    7 N           6     1.4194903     1.4559272     1.3603360
   1 H    8 O           1     0.9706383     0.9706383     0.9706383
   6 C    8 O           4     1.2371582     1.3200483     1.2025945
   6 C    9 F           6     1.3451290     1.3587566     1.3391151


optimized geometry written to: xtbopt.xyz


           -------------------------------------------------
          | TOTAL ENERGY             -180.987314408343 Eh   |
          | GRADIENT NORM               0.000430042910 Eh/α |
          | HOMO-LUMO GAP               3.053881243151 eV   |
           -------------------------------------------------

------------------------------------------------------------------------
 * finished run on 2022/03/17 at 00:40:48.805     
------------------------------------------------------------------------
 total:
 * wall-time:     0 d,  0 h,  1 min, 17.729 sec
 *  cpu-time:     0 d,  0 h, 19 min,  0.225 sec
 * ratio c/w:    14.669 speedup
 SCF:
 * wall-time:     0 d,  0 h,  0 min,  1.059 sec
 *  cpu-time:     0 d,  0 h,  0 min, 11.338 sec
 * ratio c/w:    10.707 speedup
 ANC optimizer:
 * wall-time:     0 d,  0 h,  1 min, 16.522 sec
 *  cpu-time:     0 d,  0 h, 18 min, 44.715 sec
 * ratio c/w:    14.698 speedup

