60
 energy: -126.157419296886 gnorm: 0.111429945268 xtb: 6.3.3 (4ae9cef)
C        -1.97439400000000    1.29548800000000   -1.94938000000000
C        -1.71610600000000    2.39497400000000   -0.93886700000000
F        -2.86106600000000    3.02822100000000   -0.55168900000000
F        -0.91048700000000    3.37021900000000   -1.44795800000000
F        -1.11672400000000    2.01272200000000    0.22023800000000
C        -2.77099800000000    1.67906900000000   -3.05628700000000
C        -3.07278200000000    0.79492100000000   -4.08879100000000
C        -2.58077900000000   -0.49886700000000   -4.04467400000000
C        -1.79043800000000   -0.90264900000000   -2.96955000000000
C        -1.46882500000000   -0.02824500000000   -1.90372100000000
C        -0.59859100000000   -0.62488700000000   -0.80151200000000
C         0.80552200000000    0.04032500000000   -0.67959600000000
C         1.89292500000000   -0.68399200000000   -1.47043000000000
C         2.56099500000000   -0.07285700000000   -2.56493100000000
C         2.23679000000000    1.32874000000000   -3.04741800000000
F         0.90751100000000    1.48286700000000   -3.30571900000000
F         2.55536800000000    2.30015300000000   -2.15354100000000
F         2.86843800000000    1.66766600000000   -4.20769900000000
C         3.56613700000000   -0.79165900000000   -3.24475500000000
C         3.90531400000000   -2.09020900000000   -2.87104300000000
C         3.24471600000000   -2.69540700000000   -1.81163200000000
C         2.25258600000000   -2.00100300000000   -1.11950600000000
N         1.05064700000000    0.09389700000000    0.76552800000000
C         2.06049500000000    0.88747900000000    1.27739400000000
C         2.04279500000000    1.13132500000000    2.71352600000000
C         1.38127100000000    2.20659800000000    3.27869800000000
S         1.50654800000000    2.22949200000000    4.98383000000000
C         2.50409200000000    0.84082700000000    4.98412100000000
C         2.72284700000000    0.36248500000000    3.71121700000000
O         2.91934900000000    1.40411300000000    0.57146700000000
C        -0.09607200000000   -0.40967900000000    1.52089800000000
C         0.21540900000000   -1.79385300000000    2.18224500000000
O         1.51705700000000   -2.15059600000000    2.19151700000000
O        -0.59897300000000   -2.54939200000000    2.69256500000000
N        -1.16640600000000   -0.52720500000000    0.53714200000000
C        -2.41954200000000   -1.03095500000000    0.84493000000000
C        -3.01055800000000   -0.63129500000000    2.12418400000000
C        -3.81975500000000   -1.48459800000000    2.85461600000000
S        -4.39017200000000   -0.78772200000000    4.30718500000000
C        -3.61383700000000    0.69403200000000    3.96286500000000
C        -2.92932500000000    0.65165400000000    2.76810200000000
O        -3.02890300000000   -1.76017000000000    0.06731200000000
H        -3.16347600000000    2.69548300000000   -3.11369900000000
H        -3.69111700000000    1.11719200000000   -4.92286000000000
H        -2.81473600000000   -1.19998200000000   -4.84195600000000
H        -1.43436200000000   -1.93296700000000   -2.96408100000000
H        -0.48894500000000   -1.70383800000000   -0.97633200000000
H         0.76113400000000    1.08657400000000   -0.99285100000000
H         4.09648500000000   -0.33549300000000   -4.08045800000000
H         4.68450300000000   -2.62591300000000   -3.40760600000000
H         3.50732300000000   -3.70860600000000   -1.51620700000000
H         1.76498400000000   -2.50792500000000   -0.29195700000000
H         0.81881200000000    2.97727900000000    2.76756000000000
H         2.88885400000000    0.44929900000000    5.91640500000000
H         3.34154100000000   -0.50132100000000    3.49863600000000
H        -0.37051400000000    0.28213100000000    2.31638000000000
H         1.52290600000000   -3.01218400000000    2.66207800000000
H        -4.08952400000000   -2.50266300000000    2.60430600000000
H        -3.70973000000000    1.52901200000000    4.64394000000000
H        -2.40621900000000    1.51189300000000    2.36782200000000
60
 energy: -126.172576509552 gnorm: 0.043449672434 xtb: 6.3.3 (4ae9cef)
C        -1.96996407397107    1.27436430319668   -1.94881235219654
C        -1.71496219445269    2.37609972203617   -0.94905959980542
F        -2.85839263773599    3.00135709113356   -0.57748652384442
F        -0.92269464540892    3.34725526482335   -1.46218831305134
F        -1.12450551350015    2.01955674783136    0.21216357367506
C        -2.75723619651716    1.67131159773170   -3.03859252495951
C        -3.06100345524230    0.79843323740689   -4.06672769029597
C        -2.57083387371364   -0.49347658859734   -4.02289039617667
C        -1.78930900147345   -0.89535751496614   -2.95242316126849
C        -1.47027286679216   -0.03795960570492   -1.89359075879459
C        -0.59328596401771   -0.62735210963626   -0.79914995866743
C         0.80451223468010    0.04234253590539   -0.68368572766374
C         1.88891881462019   -0.67999957863694   -1.46870019381287
C         2.55683742155941   -0.08318027140332   -2.55332071125315
C         2.22851437635109    1.31070679692237   -3.03363868568028
F         0.90726305222741    1.46478113545493   -3.30464183123769
F         2.54460698970331    2.28348800532856   -2.15757376998438
F         2.86396534244591    1.63206219456118   -4.18357790258303
C         3.55358922967213   -0.78588335748262   -3.23342275600511
C         3.89282185816253   -2.07577204135164   -2.86308987387199
C         3.23435070120665   -2.67576802662451   -1.80474705422379
C         2.24725792422081   -1.98268591722837   -1.11967377457384
N         1.04954597934372    0.08411072398124    0.76189157577673
C         2.04977836026452    0.87795861766394    1.26694560062419
C         2.02312853510573    1.12115206521538    2.72397306211735
C         1.36482777130223    2.18728945178834    3.27764823482428
S         1.52436152820836    2.24132868041510    4.98054412571786
C         2.50384644772471    0.83767816713194    4.97148649721646
C         2.69995500435244    0.35515146665047    3.71222336931378
O         2.90495812403029    1.36204815675681    0.55517328547187
C        -0.08549061575071   -0.40879177991103    1.51703931204151
C         0.20402714365304   -1.78288669105098    2.17487835991041
O         1.49780405886494   -2.13624788671179    2.18236719731664
O        -0.62538995331871   -2.50255595607143    2.66908204692597
N        -1.15791647261749   -0.51227237426620    0.54588766504167
C        -2.40792827419552   -1.02351718500313    0.84523831923922
C        -2.99754168929531   -0.63229655862234    2.13633860863522
C        -3.80550622380975   -1.48527654882556    2.84711244085378
S        -4.39034179412352   -0.78984017279385    4.29107423767442
C        -3.60437546752507    0.69114929947659    3.94406836210666
C        -2.90263630376645    0.63889295930629    2.77873655977028
O        -3.01431803852912   -1.71337672405550    0.04434294797561
H        -3.14197259266591    2.68348788342565   -3.08243142090143
H        -3.67597660241390    1.12462618209308   -4.89514061756686
H        -2.80061662926799   -1.19096392331996   -4.81806673354811
H        -1.42633418710437   -1.91430294162695   -2.94140880574804
H        -0.46980142722184   -1.69917264116220   -1.01768251388211
H         0.76027817197368    1.08348239359399   -1.01647357760059
H         4.07359091883564   -0.32432693515605   -4.06330258208166
H         4.66777098148670   -2.60736121906626   -3.39932369094341
H         3.49145270860170   -3.68557987060822   -1.51100590336044
H         1.75952795744300   -2.47447786758934   -0.29016289449948
H         0.81171055445524    2.95368582021931    2.76629607220082
H         2.89223039921504    0.45086926134132    5.89547292977320
H         3.31869262551292   -0.49798056944266    3.49183603351684
H        -0.35712907462210    0.27709062508341    2.32674376352845
H         1.53784367350204   -2.99331999865161    2.65073717072326
H        -4.06601140649094   -2.49642163000285    2.59521273739177
H        -3.70582730696581    1.52310063029949    4.61694271902922
H        -2.39039640621578    1.49354146879551    2.37053649168984
60
 energy: -126.177207044811 gnorm: 0.012739075598 xtb: 6.3.3 (4ae9cef)
C        -1.96122725525739    1.25652785649005   -1.93984969358651
C        -1.71156990509115    2.36274712039442   -0.94952539787119
F        -2.85797354758731    2.97663342752477   -0.59453994664048
F        -0.93363021287242    3.32788269941268   -1.47594444013809
F        -1.12462661361943    2.03258828083779    0.21256908380189
C        -2.74484306553167    1.66497482664519   -3.01702266293504
C        -3.05089075115453    0.79966412246308   -4.04608595612612
C        -2.56264985089147   -0.49322530497391   -4.00423214454199
C        -1.78496616309261   -0.89704891676775   -2.93754750054866
C        -1.46476015025480   -0.04847216456995   -1.88298189614485
C        -0.58465046018286   -0.62921654669052   -0.79569751434925
C         0.80218927896064    0.04997492203287   -0.68380130921140
C         1.88312917910829   -0.67213067866883   -1.46025729569365
C         2.54793673995014   -0.08626666019531   -2.54229345388944
C         2.21376982425836    1.30077104133145   -3.02663833136280
F         0.89708921656289    1.44293687097973   -3.30821032007249
F         2.51915058043647    2.27376450760157   -2.16254295452562
F         2.85057055233089    1.61085689546338   -4.16809373115042
C         3.54115080321136   -0.77960524026158   -3.22169188586691
C         3.87993392054384   -2.06600148234092   -2.85002111435164
C         3.22201583524031   -2.66169415800094   -1.78980803672952
C         2.24011158720056   -1.96665902109072   -1.10671317030419
N         1.05016070916488    0.07997553604282    0.75856929321808
C         2.05148987938092    0.86652628550683    1.25371943505265
C         2.00996492620926    1.11350176046366    2.72513760490832
C         1.35234718333711    2.17478370775609    3.26965145164925
S         1.52622328244931    2.24264168652524    4.97388729648275
C         2.50746107893588    0.83611885856706    4.95899888467693
C         2.68540684189522    0.34640238245660    3.70704054000783
O         2.90884545460112    1.32220649775151    0.53550573846838
C        -0.07735515554167   -0.40325432918558    1.51013412231828
C         0.18685741447072   -1.77324060987271    2.16776461885822
O         1.47549675042068   -2.11953940419640    2.17615423007552
O        -0.66707332509262   -2.46490996710968    2.64472562259446
N        -1.14975958909097   -0.49702711606545    0.54690034243875
C        -2.40076069227790   -1.00988820455726    0.82945236757089
C        -2.97935027766308   -0.63661562249262    2.13762044444612
C        -3.78601465328369   -1.49067797488536    2.83501420772596
S        -4.38763357902457   -0.79381921586466    4.27158781813914
C        -3.58759649228041    0.68683572826493    3.92813646473417
C        -2.87731133974881    0.62964372147204    2.77697221518875
O        -3.00743803119184   -1.66230526585622    0.00401673950045
H        -3.11779465363356    2.67780614909471   -3.04664737980645
H        -3.66147903930807    1.13175433891685   -4.87112620820947
H        -2.78841414161325   -1.18705231249114   -4.79924912792981
H        -1.41910140937705   -1.91112051327991   -2.91922505493473
H        -0.45249955330314   -1.69650808490606   -1.03205208270933
H         0.75554750672947    1.08809416957533   -1.02534415521870
H         4.05269238201325   -0.31267707539445   -4.04850797300414
H         4.65209058418193   -2.59552597031530   -3.38591315971925
H         3.47596036266839   -3.66827785729488   -1.49416108121244
H         1.74936538313318   -2.44296895733806   -0.27296076158603
H         0.79165355065159    2.93121622359806    2.75942821585260
H         2.89667090372527    0.45280827412446    5.88016674567692
H         3.28975912103347   -0.51132782456278    3.47922806896946
H        -0.34454673184889    0.27990016646374    2.33040242239016
H         1.55876722803055   -2.97403165372954    2.63879390060929
H        -4.03894203015989   -2.49865821134457    2.58014214701593
H        -3.69477587035570    1.51618487683971    4.59804406593844
H        -2.35417552050518    1.47402140970643    2.36892265206097
60
 energy: -126.178375264259 gnorm: 0.009869987170 xtb: 6.3.3 (4ae9cef)
C        -1.95398393397342    1.24797548214201   -1.92930699644092
C        -1.70774655993999    2.35863973771425   -0.94296915179043
F        -2.85900544074953    2.96370557097163   -0.59435930378467
F        -0.93932862444373    3.32243063694491   -1.48173867724224
F        -1.11743706386271    2.04539929525365    0.21983259283872
C        -2.73728293721393    1.66113148011944   -3.00395641117915
C        -3.04418447922290    0.79869949881453   -4.03533554307335
C        -2.55826389759766   -0.49568594813186   -3.99624982165606
C        -1.78064342703873   -0.90368969657403   -2.93179315031393
C        -1.45840612247676   -0.05560955034970   -1.87769615685623
C        -0.57777113000957   -0.62888278447614   -0.79351415570490
C         0.80083413458463    0.05741748051640   -0.68237572228473
C         1.88002550670815   -0.66387821630192   -1.45321293317380
C         2.54045042126291   -0.08322878291890   -2.53840203537017
C         2.19526725963380    1.29876365505129   -3.03014506464544
F         0.87806693638293    1.42153503705617   -3.31957443993412
F         2.48332089470193    2.27664211751758   -2.16988008667382
F         2.83296234629644    1.60765908613440   -4.16836928469881
C         3.53468287603900   -0.77733723611516   -3.21444834950679
C         3.87342863592331   -2.06223027641236   -2.83557026984322
C         3.21726038060455   -2.65320279510710   -1.77100152963862
C         2.23737929718723   -1.95532838203847   -1.08941055763655
N         1.04974877185399    0.08202266379756    0.75746439614546
C         2.06005237324155    0.85734397348636    1.24628494944540
C         2.00771235743599    1.10871058899077    2.71989510844607
C         1.34576605149500    2.16775283327529    3.26092407769949
S         1.52516584221802    2.23988489914422    4.96655282313044
C         2.50593669969428    0.83048466089740    4.95203311392722
C         2.68095251973659    0.33872924449026    3.70081329912876
O         2.92707060272361    1.29215335927989    0.52630921243912
C        -0.07690716833916   -0.39535652406129    1.50762887526585
C         0.17429777267591   -1.76827273798133    2.16477649403911
O         1.46048829686614   -2.11070344471280    2.17983485447428
O        -0.69563792660854   -2.45044443693330    2.62666611472083
N        -1.14609851550498   -0.48669130369261    0.54357285964978
C        -2.39956514815920   -0.99587042750165    0.81083493386606
C        -2.96883996870344   -0.63989218872525    2.12832413719353
C        -3.77675777891587   -1.49499638788695    2.81992294910339
S        -4.37724367851631   -0.80025218968129    4.25931823337998
C        -3.57288862075363    0.68199898509881    3.91920072505225
C        -2.85673091858846    0.62306035112416    2.77181157553150
O        -3.01269278548342   -1.61610350237229   -0.03484733437732
H        -3.10553077789433    2.67541328372150   -3.02433868314618
H        -3.65400650163184    1.13504281802655   -4.85827283761917
H        -2.78450367890096   -1.18778975922690   -4.79170851929654
H        -1.41437308463244   -1.91786485422653   -2.91009443781581
H        -0.43929387408498   -1.69547266196098   -1.02568530994070
H         0.74976550465289    1.09492769325263   -1.02389999159113
H         4.04250919723345   -0.31049585526524   -4.04284807596590
H         4.64385858767982   -2.59373864023630   -3.37078491873303
H         3.46933798123733   -3.65856523281611   -1.47142972289635
H         1.74580365836948   -2.42043615471709   -0.24966509123329
H         0.77496841718882    2.91733263968658    2.75133204216346
H         2.89882177079713    0.45189675192534    5.87365361252381
H         3.27601874155654   -0.52446050706057    3.46873892927706
H        -0.34056176960560    0.28845200267045    2.33018058762414
H         1.56822313096516   -2.96471756416814    2.63597601306835
H        -4.02370473187424   -2.50401318079676    2.56297606320744
H        -3.68226453420280    1.50977835065045    4.59032043610910
H        -2.31852388801744    1.46022504469455    2.36770655461278
60
 energy: -126.179030436013 gnorm: 0.006993233179 xtb: 6.3.3 (4ae9cef)
C        -1.94737734786447    1.24254290717988   -1.92041391776214
C        -1.70391008030522    2.35647627063790   -0.93523199435329
F        -2.85981364098550    2.95180898459867   -0.58474767479702
F        -0.94581583727436    3.32298067308793   -1.48488028402160
F        -1.10500284209154    2.05713444825751    0.22652230164086
C        -2.73228854438284    1.65800246082372   -2.99452000721188
C        -3.03944572059111    0.79742198373252   -4.02758665300256
C        -2.55516005774612   -0.49795639645644   -3.99226440008288
C        -1.77561141268824   -0.90988499053061   -2.93079285344162
C        -1.45190056947208   -0.06089778689278   -1.87650204742882
C        -0.57221327743364   -0.62716076903294   -0.79270320945544
C         0.80010704852833    0.06485743727924   -0.68082766587710
C         1.88004579591120   -0.65411926119694   -1.44655049614974
C         2.53376033485643   -0.07948226341144   -2.53823000812696
C         2.17177221631265    1.29552365876062   -3.04048824725398
F         0.85254454140597    1.39103831086879   -3.34004334870859
F         2.43340695991630    2.28263642944204   -2.18202582884406
F         2.81191560863684    1.60822500416095   -4.17555157279155
C         3.52970383740621   -0.77746880973514   -3.20967658047019
C         3.87022509745148   -2.05921188491436   -2.81913854999864
C         3.21820354283394   -2.64359298771327   -1.74780835892360
C         2.24015147966045   -1.94189419470459   -1.06844088506453
N         1.04808915495303    0.08622518599625    0.75757335801832
C         2.07285062010858    0.84392606402713    1.24288529906903
C         2.01167115209512    1.10244197253735    2.71396762657737
C         1.34322143633443    2.15921261793567    3.25216816837714
S         1.51610904131442    2.22850661960614    4.95961396416487
C         2.50352157419333    0.82228137422469    4.94752182664638
C         2.68510763781045    0.33299118679625    3.69584518309386
O         2.95154424564143    1.25748125839264    0.52353757412262
C        -0.08056026112005   -0.38684445472679    1.50653808464734
C         0.16308032464422   -1.76474529302169    2.16308556345297
O         1.44785807534435   -2.10133760427674    2.19073700427799
O        -0.71771146663844   -2.44593605941511    2.60568956064006
N        -1.14532074479123   -0.47681416961436    0.53839769914331
C        -2.40397435870138   -0.97451935971432    0.78954536439058
C        -2.96357105269102   -0.64037449643326    2.11514285799613
C        -3.77117258640499   -1.49774495957550    2.80342413516019
S        -4.36455196007078   -0.80772729017499    4.24950960408188
C        -3.55243609850092    0.67383698380725    3.91689362053123
C        -2.84353831403970    0.61923455876836    2.76465037276474
O        -3.02347885732225   -1.56495973984545   -0.07201661405098
H        -3.09843139667055    2.67330421569326   -3.00825519483783
H        -3.64901137055034    1.13762579519355   -4.84908493915170
H        -2.78367349926919   -1.18882620356826   -4.78835849776847
H        -1.40953746826559   -1.92482213206499   -2.90679818324543
H        -0.42803642464296   -1.69494720846288   -1.01401178492062
H         0.74349655206452    1.10264720871938   -1.01983596554925
H         4.03445221135231   -0.31417540924993   -4.04229004455489
H         4.64019797568076   -2.59411320237345   -3.35179045634675
H         3.47146764962316   -3.64663987016647   -1.44044559012794
H         1.74991848758914   -2.39534762277024   -0.22113596875786
H         0.76498066262287    2.90389812563365    2.74237797258822
H         2.89647880448775    0.44668460841650    5.87081188425448
H         3.27473118266820   -0.53355729127066    3.46091595663992
H        -0.34131761145646    0.29798589565229    2.32863783742006
H         1.57480612186502   -2.95575883552404    2.63870831619993
H        -4.01734074605332   -2.50615453044643    2.54083540737983
H        -3.65874647915473    1.49835074409043    4.59276715967166
H        -2.29447134613389    1.45173009296350    2.36414512012694
60
 energy: -126.179430513789 gnorm: 0.006037991740 xtb: 6.3.3 (4ae9cef)
C        -1.94371564136819    1.24104386997632   -1.91696861215668
C        -1.70232022202337    2.35543319930525   -0.93055426438553
F        -2.86131974455652    2.94105594510895   -0.57131900268889
F        -0.95463236474355    3.32822186727831   -1.48623031278159
F        -1.09243097445135    2.06372079727978    0.22796511610127
C        -2.73080353219347    1.65693208119299   -2.99087508284473
C        -3.03759341431194    0.79716427098778   -4.02452810661998
C        -2.55309209325727   -0.49829562251744   -3.99267199152145
C        -1.77107169100655   -0.91205066630771   -2.93378449333933
C        -1.44757910235261   -0.06244205267694   -1.87906898436172
C        -0.56920632859093   -0.62440778479006   -0.79376065159488
C         0.80016393048452    0.07086194968695   -0.68012007003425
C         1.88229023190924   -0.64611547657792   -1.44210491416555
C         2.52822291914905   -0.07824457145226   -2.54170593648091
C         2.14920263886534    1.28842866122237   -3.05505482875159
F         0.82867769973539    1.35720518201749   -3.36567171388604
F         2.38248073032286    2.28556560366024   -2.19735389076860
F         2.79367642614811    1.60758012116294   -4.18603166768848
C         3.52588501157101   -0.77956566843217   -3.20887440025300
C         3.87219639380209   -2.05590942907886   -2.80481386690221
C         3.22703889837077   -2.63304256559555   -1.72502454780902
C         2.24885078826810   -1.92867281821301   -1.04931661375387
N         1.04577801672041    0.09103128805455    0.75819867942323
C         2.08530036195265    0.82921594150962    1.24377202373652
C         2.01933118174090    1.09406944710728    2.71084879014473
C         1.34149847911570    2.14659720886059    3.24693161888687
S         1.50621750447292    2.21425953455102    4.95567771580589
C         2.50056953030719    0.81250866311005    4.94736681531078
C         2.69366157472374    0.32765377604269    3.69517283845760
O         2.97495402722524    1.22355738003188    0.52651543803482
C        -0.08559879966478   -0.38100125931674    1.50585759780629
C         0.15526275413361   -1.76361316970673    2.16039059533519
O         1.44082402279005   -2.09055253439069    2.20657807379372
O        -0.72983519583656   -2.45062422338345    2.58478237592165
N        -1.14659786322855   -0.47057851189682    0.53366230972407
C        -2.41206757509670   -0.95272823957613    0.77244700100837
C        -2.96605037538925   -0.63589206422633    2.10267449785858
C        -3.77211675203627   -1.49584275522483    2.78930665975016
S        -4.34748937075623   -0.81641806438153    4.24869098163030
C        -3.53496832990814    0.66619945097892    3.92106447205857
C        -2.83720195768276    0.61895281923077    2.76119979651830
O        -3.03954741696639   -1.51600430020626   -0.10148829887413
H        -3.09817947607756    2.67201280601914   -3.00137792886790
H        -3.64851823285848    1.13896538202935   -4.84463098318635
H        -2.78403997432357   -1.18841554001438   -4.78925680468195
H        -1.40383220954365   -1.92692859587177   -2.90942769637669
H        -0.42122459900200   -1.69395435452361   -1.00572589321485
H         0.73918367569121    1.10910996265279   -1.01692996309555
H         4.02674169186990   -0.32198611070623   -4.04760583984555
H         4.64257351623404   -2.59401824086078   -3.33423531882173
H         3.48504300835843   -3.63241786581273   -1.40810492824030
H         1.76285412696918   -2.37230522851627   -0.19433171540291
H         0.76121269539929    2.88909006244001    2.73565353789276
H         2.89163925722508    0.43901133936492    5.87259453053077
H         3.28741762692352   -0.53577180958133    3.45925009557775
H        -0.34568517219583    0.30358632051654    2.32685259030300
H         1.57830515513453   -2.94541607986937    2.64845581159669
H        -4.02140650479806   -2.50209206686311    2.51969260380830
H        -3.63288309188419    1.48538824353533    4.60501903205957
H        -2.28604786950934    1.45088249565622    2.36232872432044
60
 energy: -126.179848062246 gnorm: 0.007390623045 xtb: 6.3.3 (4ae9cef)
C        -1.94209695325864    1.24220877359148   -1.91807755517882
C        -1.70404689195100    2.35467817747744   -0.92840960771366
F        -2.86609846596703    2.92732813535184   -0.55477999932428
F        -0.97031194900703    3.33823207578139   -1.48707050715932
F        -1.07984226721159    2.06736033736758    0.22446458310063
C        -2.73204836366858    1.65758378622428   -2.99115063748580
C        -3.03804420824973    0.79815938055489   -4.02494159832888
C        -2.55067642948376   -0.49635180470957   -3.99717717181893
C        -1.76536604082689   -0.91032990498266   -2.94095061160443
C        -1.44413333558611   -0.06098155769698   -1.88510473919830
C        -0.56752374582885   -0.62071185758345   -0.79736224686893
C         0.80064547633950    0.07654379236871   -0.68007461630010
C         1.88650424091294   -0.63862708101262   -1.43785308642892
C         2.52128065352428   -0.08017264675818   -2.54876390493480
C         2.12343132133735    1.27525605193878   -3.07595656407529
F         0.80318503716125    1.31543941523399   -3.39972003570324
F         2.32444121108103    2.28348589763546   -2.21963314564993
F         2.77413554777190    1.60253218078477   -4.20111334064708
C         3.52051538120293   -0.78406499478215   -3.21196118328375
C         3.87875510475833   -2.05147187110152   -2.79021406905368
C         3.24520453679162   -2.61892109662569   -1.69802775385845
C         2.26507661679271   -1.91286126848701   -1.02748499635091
N         1.04184260527629    0.09683264869701    0.75907030062193
C         2.09884635757940    0.80927208869929    1.24807173959694
C         2.03066977104576    1.08069566876442    2.71075899893051
C         1.33885479271155    2.12613872274762    3.24416387789881
S         1.49110041563838    2.19256974160144    4.95410332943950
C         2.49960820508101    0.80109591927864    4.95107760793216
C         2.70781830999971    0.32100097127036    3.69900100566163
O         3.00126122259668    1.18040917498015    0.53390216062401
C        -0.09279389958070   -0.37633263622361    1.50425577587807
C         0.14827530490882   -1.76205798018103    2.15738292346840
O         1.43646648696221   -2.07403823672456    2.23094875634084
O        -0.73835357508524   -2.46275889596300    2.55609582486780
N        -1.14971105993752   -0.46563437964335    0.52759469098986
C        -2.42540889799378   -0.92299998781062    0.75482401818198
C        -2.97320420306647   -0.62478686652050    2.09053310608982
C        -3.77360511645291   -1.49031516301357    2.77662322414045
S        -4.32858286995133   -0.82629490793765    4.25214217368177
C        -3.51439789872701    0.65678559879365    3.93362633429161
C        -2.83393153383390    0.62255263547835    2.76244054124772
O        -3.06255191517884   -1.45779568504568   -0.12893236433150
H        -3.10310846781989    2.67151272730467   -2.99996815531777
H        -3.65185089449804    1.13982334749213   -4.84330101432288
H        -2.78333951058612   -1.18557230990210   -4.79453110405648
H        -1.39521047103612   -1.92425273060453   -2.91784576920859
H        -0.41670469814668   -1.69191750702946   -1.00222415169447
H         0.73647341418239    1.11495576937023   -1.01586523090807
H         4.01449728319107   -0.33477265573742   -4.05987774990316
H         4.65082724634766   -2.59218874017640   -3.31511420455743
H         3.51363431748394   -3.61165747922753   -1.36743724801913
H         1.78713766125886   -2.34621952374591   -0.16290929146315
H         0.75776342158050    2.86608683532552    2.72983838745516
H         2.88635363859172    0.42930723736791    5.87890450897531
H         3.31313402922672   -0.53465953493224    3.46402465717506
H        -0.35439891570186    0.30684789772053    2.32412730771476
H         1.57934332575567   -2.93014430806624    2.66671330957736
H        -4.03108256002460   -2.49185547272558    2.49603525993576
H        -3.59984324091417    1.46782516885677    4.62943052759498
H        -2.28881655751782    1.45822692689158    2.36367972333740
60
 energy: -126.180310039897 gnorm: 0.009187393495 xtb: 6.3.3 (4ae9cef)
C        -1.94380282402521    1.24607783893913   -1.92392654683972
C        -1.71133546365596    2.35485657540698   -0.92958371564145
F        -2.87676345630552    2.91118322582425   -0.53897527848115
F        -0.99508608159512    3.35282318664826   -1.48800401673354
F        -1.07148390012792    2.06919424341270    0.21599924513000
C        -2.73658966455351    1.66017277956788   -2.99553838697085
C        -3.04089836704435    0.80089062972322   -4.02965419534686
C        -2.54752901890523   -0.49146223291199   -4.00611148493644
C        -1.75891429026443   -0.90399028977036   -2.95191323403670
C        -1.44242439403690   -0.05615562945107   -1.89370835916920
C        -0.56768641341652   -0.61599416608192   -0.80340869428467
C         0.80114147781515    0.08145242814584   -0.68091470737444
C         1.89178036372912   -0.63278277762349   -1.43378520292094
C         2.51252426487694   -0.08620999582629   -2.55883185035615
C         2.09707935469964    1.25605424933665   -3.10222925578115
F         0.77954683502836    1.27092060806395   -3.43878655562770
F         2.26865040482988    2.27494229500897   -2.24985215526811
F         2.75429622287977    1.58962662321141   -4.22124742328316
C         3.51332036394794   -0.79121922595616   -3.21856277557384