68
 energy: -121.535619672740 gnorm: 0.000645884750 xtb: 6.3.3 (4ae9cef)
C         0.82788498615435   -1.97626008616340    2.60533502942485
O         0.47811890157560   -3.11149162164512    1.94511680455084
C         0.63622008135683   -4.34667685959346    2.60137065748736
C         1.10574644665819   -1.91372955318207    3.96689504060199
C         1.42121867060677   -0.70452264474916    4.56192710227115
C         1.46267976814264    0.45680977960437    3.81420069472657
C         1.19845921133671    0.39874091339552    2.45702790507312
C         0.88675723427954   -0.80219477640618    1.84190814845841
C         0.63828776975728   -0.85809800684417    0.35506520266243
C        -0.64065206706543   -0.09198783339980   -0.04473058603602
C        -1.51259481007708   -0.84583053217167   -1.01899185205903
C        -1.00134129589245   -1.35937217357454   -2.19905505372819
C        -1.81560629378070   -2.01807621553781   -3.10391080235281
C        -3.15784382932696   -2.17636635452168   -2.81939286402504
C        -3.68358943670818   -1.70009197068143   -1.63068014292020
C        -2.87067345940163   -1.03644279635588   -0.72017455615673
O        -3.30602712556614   -0.55107738695484    0.48149702768563
C        -4.62617897012116   -0.82735499351323    0.88115906170271
N        -0.11638094188124    1.15072108411826   -0.59069854183808
C        -0.63850873399195    2.39083682475380   -0.44872382117046
C        -2.07095983626835    2.42651367158290   -0.01309688364523
C        -3.08378578166069    2.16731748050505   -0.92728650200544
F        -2.76710459277487    1.79903430207517   -2.18483801141393
C        -4.41856929566470    2.28624632507314   -0.58872297083367
C        -4.75247413726045    2.65927118234621    0.70145742545957
C        -3.75872111964994    2.91463740746549    1.63120883727572
C        -2.42625390490346    2.80913913842084    1.27312446287939
O         0.00150238681933    3.39703565493074   -0.67401412677260
C         1.23468348492927    0.98711290536121   -1.05959300987816
C         1.28852856331347    0.85389087084979   -2.59671531570980
O         0.30915268506507    1.53851504514869   -3.16581102031971
O         2.13244498454400    0.25048331426858   -3.19762963912962
N         1.71322938161560   -0.17548878250489   -0.36160842754985
C         2.98423564283395   -0.64585134197943   -0.27251698430952
C         4.02649766757757    0.18810208444487   -0.95123922156051
C         4.36514895614121    1.44712790481035   -0.47046694932347
C         5.36866301869602    2.18506736505108   -1.07297987993277
C         6.04777912584909    1.67211294323406   -2.16576576144108
C         5.73813872524526    0.41330491093140   -2.64849701857770
C         4.74009383309139   -0.31849496401649   -2.03073658531908
F         4.45390709341055   -1.54111634303047   -2.49986740355100
O         3.24937637773795   -1.65528489192551    0.34200738179195
H         0.42120536202768   -5.10594109097160    1.85096924724806
H        -0.06694303509871   -4.45447127881879    3.43441399774694
H         1.65997074071215   -4.47635720804424    2.96365581798482
H         1.08175428337100   -2.80543158350281    4.57311630679946
H         1.63721121358486   -0.67694174535154    5.61976393367562
H         1.70736417488040    1.39920500657874    4.28000103903611
H         1.24178970300969    1.30106272637363    1.86322769222722
H         0.59707928399117   -1.90670131508130    0.04658294599047
H        -1.23979823704967    0.13467315746145    0.84176999345339
H         0.05125617890337   -1.25537726088671   -2.41202025363811
H        -1.40114877550619   -2.40452437376734   -4.02180355339159
H        -3.80678221796212   -2.68173470442904   -3.51884146241961
H        -4.73151455559163   -1.84910738073040   -1.42434161260814
H        -5.35660914990933   -0.36247014911738    0.21217031211559
H        -4.81027668238027   -1.90488557318869    0.93521266577759
H        -4.72549036369229   -0.39185870944842    1.87419846856242
H        -5.17263121188769    2.08882168955982   -1.33505110351347
H        -5.79170314419017    2.75445823072033    0.97829123643250
H        -4.02178609371042    3.20707680330730    2.63624451225304
H        -1.64866141240919    3.02301390572313    1.99091476152429
H         1.80770066340735    1.90233510437817   -0.82882299726659
H         0.35240693346210    1.48745503729499   -4.13436899669312
H         3.85169478671907    1.83925575984073    0.39587754546024
H         5.62039838275991    3.16163702543325   -0.68850844632204
H         6.82495463572886    2.25133787377449   -2.64074948521028
H         6.25706917208683   -0.01073692672829   -3.49346541572897
