      -----------------------------------------------------------      
     |                   =====================                   |     
     |                           x T B                           |     
     |                   =====================                   |     
     |                         S. Grimme                         |     
     |          Mulliken Center for Theoretical Chemistry        |     
     |                    University of Bonn                     |     
      -----------------------------------------------------------      

   * xtb version 6.3.3 (4ae9cef) compiled by 'conda@95abc7406d43' on 2020-10-14

   xtb is free software: you can redistribute it and/or modify it under
   the terms of the GNU Lesser General Public License as published by
   the Free Software Foundation, either version 3 of the License, or
   (at your option) any later version.
   
   xtb is distributed in the hope that it will be useful,
   but WITHOUT ANY WARRANTY; without even the implied warranty of
   MERCHANTABILITY or FITNESS FOR A PARTICULAR PURPOSE.  See the
   GNU Lesser General Public License for more details.
   
   Cite this work as:
   * C. Bannwarth, E. Caldeweyher, S. Ehlert, A. Hansen, P. Pracht,
     J. Seibert, S. Spicher, S. Grimme, WIREs Comput. Mol. Sci., 2020,
     e01493. DOI: 10.1002/wcms.1493
   
   for GFN2-xTB:
   * S. Grimme, C. Bannwarth, P. Shushkov, J. Chem. Theory Comput., 2017,
     13, 1989-2009. DOI: 10.1021/acs.jctc.7b00118
   for GFN1-xTB:
   * C. Bannwarth, S. Ehlert and S. Grimme., J. Chem. Theory Comput., 2019,
     15, 1652-1671. DOI: 10.1021/acs.jctc.8b01176
   for GFN0-xTB:
   * P. Pracht, E. Caldeweyher, S. Ehlert, S. Grimme, ChemRxiv, 2019, preprint.
     DOI: 10.26434/chemrxiv.8326202.v1
   for GFN-FF:
   * S. Spicher and S. Grimme, Angew. Chem. Int. Ed., 2020, 59, 15665-15673.
     DOI: 10.1002/anie.202004239
   
   for DFT-D4:
   * E. Caldeweyher, C. Bannwarth and S. Grimme, J. Chem. Phys., 2017,
     147, 034112. DOI: 10.1063/1.4993215
   * E. Caldeweyher, S. Ehlert, A. Hansen, H. Neugebauer, S. Spicher,
     C. Bannwarth and S. Grimme, J. Chem. Phys., 2019, 150, 154122.
     DOI: 10.1063/1.5090222
   * E. Caldeweyher, J.-M. Mewes, S. Ehlert and S. Grimme, Phys. Chem. Chem. Phys.
     2020, 22, 8499-8512. DOI: 10.1039/D0CP00502A
   
   for sTDA-xTB:
   * S. Grimme and C. Bannwarth, J. Chem. Phys., 2016, 145, 054103.
     DOI: 10.1063/1.4959605
   
   in the mass-spec context:
   * V. Asgeirsson, C. Bauer and S. Grimme, Chem. Sci., 2017, 8, 4879.
     DOI: 10.1039/c7sc00601b
   * J. Koopman and S. Grimme, ACS Omega 2019, 4, 12, 15120-15133.
     DOI: 10.1021/acsomega.9b02011
   
   for metadynamics refer to:
   * S. Grimme, J. Chem. Theory Comput., 2019, 155, 2847-2862
     DOI: 10.1021/acs.jctc.9b00143
   
   with help from (in alphabetical order)
   C. Bannwarth, F. Bohle, G. Brandenburg, E. Caldeweyher, M. Checinski,
   S. Dohm, S. Ehlert, S. Ehrlich, F. März, H. Neugebauer, J. Pisarek,
   P. Pracht, P. Shushkov, and S. Spicher.
   
 * started run on 2022/03/17 at 02:19:36.708     

           -------------------------------------------------
          |                Calculation Setup                |
           -------------------------------------------------

          program call               : xtb alk_5.xyz --opt --chrg 0 --uhf 0 --gfn 2
          coordinate file            : alk_5.xyz
          omp threads                :                    64
          number of atoms            :                    29
          number of electrons        :                    80
          charge                     :                     0
          spin                       :                   0.0
          first test random number   :      0.72499997710666

   ID    Z sym.   atoms
    1    6 C      1-7, 9, 10, 12, 13, 15
    2    8 O      8, 11, 14
    3    1 H      16-29

           -------------------------------------------------
          |                 G F N 2 - x T B                 |
           -------------------------------------------------

        Reference                      10.1021/acs.jctc.8b01176
      * Hamiltonian:
        H0-scaling (s, p, d)           1.850000    2.230000    2.230000
        zeta-weighting                 0.500000
      * Dispersion:
        s8                             2.700000
        a1                             0.520000
        a2                             5.000000
        s9                             5.000000
      * Repulsion:
        kExp                           1.500000    1.000000
        rExp                           1.000000
      * Coulomb:
        alpha                          2.000000
        third order                    shell-resolved
        anisotropic                    true
        a3                             3.000000
        a5                             4.000000
        cn-shift                       1.200000
        cn-exp                         4.000000
        max-rad                        5.000000


          ...................................................
          :                      SETUP                      :
          :.................................................:
          :  # basis functions                  74          :
          :  # atomic orbitals                  74          :
          :  # shells                           44          :
          :  # electrons                        80          :
          :  max. iterations                   250          :
          :  Hamiltonian                  GFN2-xTB          :
          :  restarted?                      false          :
          :  GBSA solvation                  false          :
          :  PC potential                    false          :
          :  electronic temp.          300.0000000     K    :
          :  accuracy                    1.0000000          :
          :  -> integral cutoff          0.2500000E+02      :
          :  -> integral neglect         0.1000000E-07      :
          :  -> SCF convergence          0.1000000E-05 Eh   :
          :  -> wf. convergence          0.1000000E-03 e    :
          :  Broyden damping             0.4000000          :
          ...................................................

 iter      E             dE          RMSdq      gap      omega  full diag
   1    -45.5053940 -0.455054E+02  0.423E+00    3.94       0.0  T
   2    -45.5735600 -0.681661E-01  0.233E+00    3.72       1.0  T
   3    -45.5707793  0.278076E-02  0.123E+00    3.88       1.0  T
   4    -45.5812723 -0.104930E-01  0.414E-01    3.83       1.0  T
   5    -45.5839830 -0.271064E-02  0.149E-01    3.80       1.0  T
   6    -45.5844314 -0.448479E-03  0.559E-02    3.83       1.0  T
   7    -45.5844366 -0.521836E-05  0.253E-02    3.83       1.0  T
   8    -45.5844455 -0.882304E-05  0.964E-03    3.83       1.9  T
   9    -45.5844467 -0.119178E-05  0.276E-03    3.83       6.7  T
  10    -45.5844467 -0.415166E-07  0.131E-03    3.83      14.2  T
  11    -45.5844467 -0.168021E-07  0.638E-04    3.83      29.1  T
  12    -45.5844467 -0.196232E-08  0.199E-04    3.83      93.4  T

   *** convergence criteria satisfied after 12 iterations ***

         #    Occupation            Energy/Eh            Energy/eV
      -------------------------------------------------------------
         1        2.0000           -0.7318523             -19.9147
       ...           ...                  ...                  ...
        34        2.0000           -0.4417676             -12.0211
        35        2.0000           -0.4320538             -11.7568
        36        2.0000           -0.4230810             -11.5126
        37        2.0000           -0.4181234             -11.3777
        38        2.0000           -0.4055156             -11.0346
        39        2.0000           -0.3947175             -10.7408
        40        2.0000           -0.3808205             -10.3627 (HOMO)
        41                         -0.2401062              -6.5336 (LUMO)
        42                         -0.2327231              -6.3327
        43                         -0.2228362              -6.0637
        44                         -0.2028774              -5.5206
        45                         -0.1067366              -2.9045
       ...                                ...                  ...
        74                          0.6239290              16.9780
      -------------------------------------------------------------
                  HL-Gap            0.1407144 Eh            3.8290 eV
             Fermi-level           -0.3104634 Eh           -8.4481 eV

 SCC (total)                   0 d,  0 h,  0 min,  0.229 sec
 SCC setup                      ...        0 min,  0.013 sec (  5.788%)
 Dispersion                     ...        0 min,  0.010 sec (  4.556%)
 classical contributions        ...        0 min,  0.014 sec (  6.044%)
 integral evaluation            ...        0 min,  0.039 sec ( 16.900%)
 iterations                     ...        0 min,  0.025 sec ( 10.937%)
 molecular gradient             ...        0 min,  0.128 sec ( 55.626%)
 printout                       ...        0 min,  0.000 sec (  0.117%)

         :::::::::::::::::::::::::::::::::::::::::::::::::::::
         ::                     SUMMARY                     ::
         :::::::::::::::::::::::::::::::::::::::::::::::::::::
         :: total energy             -45.001829518313 Eh    ::
         :: gradient norm              0.080529726457 Eh/a0 ::
         :: HOMO-LUMO gap              3.829032868757 eV    ::
         ::.................................................::
         :: SCC energy               -45.584446722510 Eh    ::
         :: -> isotropic ES            0.061162837496 Eh    ::
         :: -> anisotropic ES          0.003830860866 Eh    ::
         :: -> anisotropic XC          0.016098389473 Eh    ::
         :: -> dispersion             -0.025690966985 Eh    ::
         :: repulsion energy           0.582437081918 Eh    ::
         :: add. restraining           0.000000000000 Eh    ::
         :: total charge               0.000000000000 e     ::
         :::::::::::::::::::::::::::::::::::::::::::::::::::::

      ----------------------------------------------------------- 
     |                   =====================                   |
     |                        A N C O P T                        |
     |                   =====================                   |
     |               Approximate Normal Coordinate               |
     |                Rational Function Optimizer                |
      ----------------------------------------------------------- 

          ...................................................
          :                      SETUP                      :
          :.................................................:
          :   optimization level            normal          :
          :   max. optcycles                   200          :
          :   ANC micro-cycles                  20          :
          :   degrees of freedom                81          :
          :.................................................:
          :   RF solver                   davidson          :
          :   write xtbopt.log                true          :
          :   linear?                        false          :
          :   energy convergence         0.5000000E-05 Eh   :
          :   grad. convergence          0.1000000E-02 Eh/α :
          :   maximium RF displ.         1.0000000          :
          :   Hlow (freq-cutoff)         0.1000000E-01      :
          :   Hmax (freq-cutoff)         5.0000000          :
          :   S6 in model hess.         20.0000000          :
          ...................................................

generating ANC from model Hessian ...
Using Lindh-Hessian (1995)
 Shifting diagonal of input Hessian by    9.3535312472917097E-003
 Lowest  eigenvalues of input Hessian
    0.000000    0.000000    0.000000    0.000000    0.000000    0.000000
    0.010000    0.010083    0.010639    0.011589    0.012484    0.013051
    0.013319    0.014553    0.016238    0.020143    0.020934    0.023601
 Highest eigenvalues
    1.746689    1.841900    1.858585    1.986401    2.070372    2.228192


........................................................................
.............................. CYCLE    1 ..............................
........................................................................
   1    -45.5844467 -0.455844E+02  0.957E-05    3.83       0.0  T
   2    -45.5844467 -0.826645E-10  0.694E-05    3.83     267.7  T
   3    -45.5844467 -0.776481E-10  0.360E-05    3.83     516.2  T
     SCC iter.                  ...        0 min,  0.006 sec
     gradient                   ...        0 min,  0.118 sec
 * total energy  :   -45.0018295 Eh     change       -0.2518945E-09 Eh
   gradient norm :     0.0805318 Eh/α   predicted     0.0000000E+00 (-100.00%)
   displ. norm   :     0.2104153 α      lambda       -0.1018636E-01
   maximum displ.:     0.0673575 α      in ANC's #56, #25, #50, ...

........................................................................
.............................. CYCLE    2 ..............................
........................................................................
   1    -45.6256623 -0.456257E+02  0.182E-01    4.03       0.0  T
   2    -45.6257505 -0.882325E-04  0.108E-01    4.03       1.0  T
   3    -45.6257450  0.553249E-05  0.548E-02    4.03       1.0  T
   4    -45.6257702 -0.252190E-04  0.105E-02    4.03       1.8  T
   5    -45.6257725 -0.225782E-05  0.517E-03    4.03       3.6  T
   6    -45.6257727 -0.206790E-06  0.271E-03    4.03       6.9  T
   7    -45.6257727 -0.207672E-07  0.105E-03    4.03      17.7  T
   8    -45.6257727 -0.201583E-07  0.320E-04    4.03      58.0  T
   9    -45.6257727 -0.102254E-08  0.117E-04    4.03     158.7  T
     SCC iter.                  ...        0 min,  0.015 sec
     gradient                   ...        0 min,  0.137 sec
 * total energy  :   -45.0083302 Eh     change       -0.6500706E-02 Eh
   gradient norm :     0.0237679 Eh/α   predicted    -0.5318683E-02 ( -18.18%)
   displ. norm   :     0.1800014 α      lambda       -0.1634802E-02
   maximum displ.:     0.0873889 α      in ANC's #7, #6, #10, ...

........................................................................
.............................. CYCLE    3 ..............................
........................................................................
   1    -45.6381260 -0.456381E+02  0.969E-02    4.06       0.0  T
   2    -45.6381649 -0.389122E-04  0.568E-02    4.07       1.0  T
   3    -45.6381658 -0.924383E-06  0.300E-02    4.07       1.0  T
   4    -45.6381719 -0.606313E-05  0.630E-03    4.07       2.9  T
   5    -45.6381730 -0.104860E-05  0.261E-03    4.07       7.1  T
   6    -45.6381731 -0.117044E-06  0.138E-03    4.07      13.5  T
   7    -45.6381731 -0.398423E-08  0.527E-04    4.07      35.2  T
   8    -45.6381731 -0.227281E-08  0.254E-04    4.07      73.2  T
     SCC iter.                  ...        0 min,  0.018 sec
     gradient                   ...        0 min,  0.146 sec
 * total energy  :   -45.0092907 Eh     change       -0.9604421E-03 Eh
   gradient norm :     0.0091708 Eh/α   predicted    -0.8438896E-03 ( -12.14%)
   displ. norm   :     0.1536462 α      lambda       -0.3165524E-03
   maximum displ.:     0.0902016 α      in ANC's #7, #6, #8, ...

........................................................................
.............................. CYCLE    4 ..............................
........................................................................
   1    -45.6380877 -0.456381E+02  0.562E-02    4.06       0.0  T
   2    -45.6380960 -0.826186E-05  0.336E-02    4.06       1.0  T
   3    -45.6380941  0.186305E-05  0.146E-02    4.06       1.3  T
   4    -45.6380967 -0.252464E-05  0.460E-03    4.06       4.0  T
   5    -45.6380972 -0.586869E-06  0.133E-03    4.06      14.0  T
   6    -45.6380973 -0.272918E-07  0.653E-04    4.06      28.4  T
   7    -45.6380973 -0.186903E-08  0.318E-04    4.06      58.4  T
     SCC iter.                  ...        0 min,  0.020 sec
     gradient                   ...        0 min,  0.122 sec
 * total energy  :   -45.0095342 Eh     change       -0.2434915E-03 Eh
   gradient norm :     0.0037238 Eh/α   predicted    -0.1620190E-03 ( -33.46%)
   displ. norm   :     0.2764514 α      lambda       -0.3608524E-03
   maximum displ.:     0.1636992 α      in ANC's #7, #6, #8, ...

........................................................................
.............................. CYCLE    5 ..............................
........................................................................
   1    -45.6358912 -0.456359E+02  0.975E-02    4.04       0.0  T
   2    -45.6358981 -0.683518E-05  0.582E-02    4.04       1.0  T
   3    -45.6358900  0.807597E-05  0.188E-02    4.04       1.0  T
   4    -45.6358994 -0.937918E-05  0.490E-03    4.04       3.8  T
   5    -45.6358999 -0.510853E-06  0.191E-03    4.04       9.7  T
   6    -45.6358999 -0.326612E-07  0.108E-03    4.04      17.1  T
   7    -45.6358999 -0.582342E-08  0.354E-04    4.04      52.5  T
   8    -45.6358999 -0.178597E-08  0.123E-04    4.04     150.7  T
     SCC iter.                  ...        0 min,  0.025 sec
     gradient                   ...        0 min,  0.131 sec
 * total energy  :   -45.0097679 Eh     change       -0.2337378E-03 Eh
   gradient norm :     0.0071837 Eh/α   predicted    -0.1942560E-03 ( -16.89%)
   displ. norm   :     0.1743173 α      lambda       -0.1396649E-03
   maximum displ.:     0.1017958 α      in ANC's #7, #6, #4, ...

........................................................................
.............................. CYCLE    6 ..............................
........................................................................
   1    -45.6352768 -0.456353E+02  0.670E-02    4.03       0.0  T
   2    -45.6352779 -0.105416E-05  0.395E-02    4.03       1.0  T
   3    -45.6352764  0.143806E-05  0.775E-03    4.03       2.4  T
   4    -45.6352783 -0.182526E-05  0.228E-03    4.03       8.2  T
   5    -45.6352783 -0.519495E-07  0.124E-03    4.03      15.0  T
   6    -45.6352783 -0.841278E-08  0.577E-04    4.03      32.2  T
   7    -45.6352783 -0.288538E-08  0.182E-04    4.03     101.9  T
     SCC iter.                  ...        0 min,  0.016 sec
     gradient                   ...        0 min,  0.129 sec
 * total energy  :   -45.0098707 Eh     change       -0.1027738E-03 Eh
   gradient norm :     0.0078512 Eh/α   predicted    -0.7195705E-04 ( -29.99%)
   displ. norm   :     0.1936771 α      lambda       -0.1517574E-03
   maximum displ.:     0.1020388 α      in ANC's #7, #6, #4, ...

........................................................................
.............................. CYCLE    7 ..............................
........................................................................
   1    -45.6358143 -0.456358E+02  0.800E-02    4.01       0.0  T
   2    -45.6358190 -0.469395E-05  0.464E-02    4.01       1.0  T
   3    -45.6358181  0.894721E-06  0.930E-03    4.01       2.0  T
   4    -45.6358195 -0.137439E-05  0.319E-03    4.01       5.8  T
   5    -45.6358197 -0.208086E-06  0.140E-03    4.01      13.3  T
   6    -45.6358197 -0.310062E-08  0.657E-04    4.01      28.3  T
   7    -45.6358197 -0.449555E-08  0.183E-04    4.01     101.5  T
     SCC iter.                  ...        0 min,  0.012 sec
     gradient                   ...        0 min,  0.140 sec
 * total energy  :   -45.0099700 Eh     change       -0.9934025E-04 Eh
   gradient norm :     0.0049445 Eh/α   predicted    -0.7873929E-04 ( -20.74%)
   displ. norm   :     0.1253981 α      lambda       -0.8831405E-04
   maximum displ.:     0.0540934 α      in ANC's #3, #4, #7, ...

........................................................................
.............................. CYCLE    8 ..............................
........................................................................
   1    -45.6370204 -0.456370E+02  0.569E-02    4.00       0.0  T
   2    -45.6370230 -0.257797E-05  0.329E-02    4.00       1.0  T
   3    -45.6370224  0.664662E-06  0.756E-03    4.00       2.5  T
   4    -45.6370232 -0.890609E-06  0.275E-03    4.00       6.8  T
   5    -45.6370234 -0.156656E-06  0.115E-03    4.00      16.2  T
   6    -45.6370234 -0.346236E-08  0.667E-04    4.00      27.9  T
   7    -45.6370234 -0.422156E-08  0.194E-04    4.00      95.7  T
     SCC iter.                  ...        0 min,  0.013 sec
     gradient                   ...        0 min,  0.130 sec
 * total energy  :   -45.0100267 Eh     change       -0.5671318E-04 Eh
   gradient norm :     0.0031771 Eh/α   predicted    -0.4485222E-04 ( -20.91%)
   displ. norm   :     0.1223825 α      lambda       -0.7328654E-04
   maximum displ.:     0.0638963 α      in ANC's #3, #4, #11, ...

........................................................................
.............................. CYCLE    9 ..............................
........................................................................
   1    -45.6378843 -0.456379E+02  0.547E-02    3.99       0.0  T
   2    -45.6378855 -0.122402E-05  0.319E-02    3.99       1.0  T
   3    -45.6378844  0.114913E-05  0.740E-03    3.99       2.5  T
   4    -45.6378858 -0.148874E-05  0.218E-03    3.99       8.5  T
   5    -45.6378859 -0.625302E-07  0.112E-03    3.99      16.6  T
   6    -45.6378859 -0.378151E-08  0.628E-04    3.99      29.6  T
   7    -45.6378859 -0.415137E-08  0.150E-04    3.99     123.5  T
     SCC iter.                  ...        0 min,  0.017 sec
     gradient                   ...        0 min,  0.123 sec
 * total energy  :   -45.0100769 Eh     change       -0.5016383E-04 Eh
   gradient norm :     0.0032295 Eh/α   predicted    -0.3719241E-04 ( -25.86%)
   displ. norm   :     0.1244806 α      lambda       -0.6812139E-04
   maximum displ.:     0.0727106 α      in ANC's #4, #3, #11, ...

........................................................................
.............................. CYCLE   10 ..............................
........................................................................
   1    -45.6383035 -0.456383E+02  0.511E-02    3.98       0.0  T
   2    -45.6383044 -0.881017E-06  0.300E-02    3.98       1.0  T
   3    -45.6383026  0.177104E-05  0.793E-03    3.98       2.3  T
   4    -45.6383049 -0.224610E-05  0.175E-03    3.98      10.6  T
   5    -45.6383049 -0.143530E-07  0.104E-03    3.98      17.9  T
   6    -45.6383049 -0.469815E-08  0.518E-04    3.98      35.9  T
   7    -45.6383049 -0.295803E-08  0.152E-04    3.98     122.5  T
     SCC iter.                  ...        0 min,  0.012 sec
     gradient                   ...        0 min,  0.147 sec
 * total energy  :   -45.0101275 Eh     change       -0.5061486E-04 Eh
   gradient norm :     0.0030811 Eh/α   predicted    -0.3459276E-04 ( -31.65%)
   displ. norm   :     0.1642263 α      lambda       -0.7254536E-04
   maximum displ.:     0.0994814 α      in ANC's #4, #3, #11, ...

........................................................................
.............................. CYCLE   11 ..............................
........................................................................
   1    -45.6376378 -0.456376E+02  0.674E-02    3.96       0.0  T
   2    -45.6376397 -0.192145E-05  0.401E-02    3.97       1.0  T
   3    -45.6376364  0.327206E-05  0.107E-02    3.96       1.7  T
   4    -45.6376406 -0.411408E-05  0.236E-03    3.96       7.9  T
   5    -45.6376406 -0.500157E-07  0.132E-03    3.96      14.0  T
   6    -45.6376406 -0.261277E-08  0.667E-04    3.96      27.8  T
   7    -45.6376406 -0.487513E-08  0.225E-04    3.96      82.6  T
     SCC iter.                  ...        0 min,  0.012 sec
     gradient                   ...        0 min,  0.143 sec
 * total energy  :   -45.0101784 Eh     change       -0.5091001E-04 Eh
   gradient norm :     0.0038093 Eh/α   predicted    -0.3725399E-04 ( -26.82%)
   displ. norm   :     0.1922416 α      lambda       -0.9313706E-04
   maximum displ.:     0.1036967 α      in ANC's #3, #4, #1, ...

........................................................................
.............................. CYCLE   12 ..............................
........................................................................
   1    -45.6381212 -0.456381E+02  0.683E-02    3.96       0.0  T
   2    -45.6381235 -0.225109E-05  0.410E-02    3.96       1.0  T
   3    -45.6381194  0.411221E-05  0.127E-02    3.96       1.5  T
   4    -45.6381245 -0.517416E-05  0.242E-03    3.96       7.7  T
   5    -45.6381246 -0.544313E-07  0.139E-03    3.96      13.4  T
   6    -45.6381246 -0.933633E-08  0.451E-04    3.96      41.2  T
   7    -45.6381246 -0.881627E-09  0.226E-04    3.96      82.1  T
     SCC iter.                  ...        0 min,  0.012 sec
     gradient                   ...        0 min,  0.154 sec
 * total energy  :   -45.0102235 Eh     change       -0.4507728E-04 Eh
   gradient norm :     0.0043733 Eh/α   predicted    -0.4829077E-04 (   7.13%)
   displ. norm   :     0.2258748 α      lambda       -0.8468577E-04
   maximum displ.:     0.1356840 α      in ANC's #4, #3, #1, ...

........................................................................
.............................. CYCLE   13 ..............................
........................................................................
   1    -45.6359059 -0.456359E+02  0.910E-02    3.92       0.0  T
   2    -45.6359095 -0.369792E-05  0.538E-02    3.93       1.0  T
   3    -45.6359067  0.289598E-05  0.130E-02    3.92       1.4  T
   4    -45.6359109 -0.422499E-05  0.316E-03    3.93       5.9  T
   5    -45.6359109 -0.567997E-07  0.192E-03    3.93       9.7  T
   6    -45.6359110 -0.196565E-07  0.665E-04    3.93      27.9  T
   7    -45.6359110 -0.420006E-08  0.266E-04    3.93      69.9  T
     SCC iter.                  ...        0 min,  0.017 sec
     gradient                   ...        0 min,  0.138 sec
 * total energy  :   -45.0102521 Eh     change       -0.2858296E-04 Eh
   gradient norm :     0.0068844 Eh/α   predicted    -0.4451492E-04 (  55.74%)
   displ. norm   :     0.0748543 α      lambda       -0.7994776E-04
   maximum displ.:     0.0359165 α      in ANC's #4, #6, #8, ...

........................................................................
.............................. CYCLE   14 ..............................
........................................................................
   1    -45.6371180 -0.456371E+02  0.345E-02    3.95       0.0  T
   2    -45.6371206 -0.258575E-05  0.202E-02    3.94       1.0  T
   3    -45.6371202  0.370643E-06  0.883E-03    3.95       2.1  T
   4    -45.6371211 -0.902041E-06  0.165E-03    3.95      11.3  T
   5    -45.6371211 -0.426819E-07  0.794E-04    3.95      23.4  T
   6    -45.6371211 -0.590071E-08  0.423E-04    3.95      43.9  T
     SCC iter.                  ...        0 min,  0.014 sec
     gradient                   ...        0 min,  0.127 sec
 * total energy  :   -45.0103001 Eh     change       -0.4800700E-04 Eh
   gradient norm :     0.0028389 Eh/α   predicted    -0.4019873E-04 ( -16.26%)
   displ. norm   :     0.0841406 α      lambda       -0.2824965E-04
   maximum displ.:     0.0389066 α      in ANC's #3, #1, #4, ...

........................................................................
.............................. CYCLE   15 ..............................
........................................................................
   1    -45.6374897 -0.456375E+02  0.295E-02    3.95       0.0  T
   2    -45.6374902 -0.446087E-06  0.174E-02    3.95       1.1  T
   3    -45.6374898  0.341834E-06  0.481E-03    3.95       3.9  T
   4    -45.6374903 -0.445696E-06  0.123E-03    3.95      15.1  T
   5    -45.6374903 -0.176168E-07  0.667E-04    3.95      27.8  T
   6    -45.6374903 -0.276779E-08  0.359E-04    3.95      51.7  T
     SCC iter.                  ...        0 min,  0.010 sec
     gradient                   ...        0 min,  0.117 sec
 * total energy  :   -45.0103180 Eh     change       -0.1792214E-04 Eh
   gradient norm :     0.0012632 Eh/α   predicted    -0.1422580E-04 ( -20.62%)
   displ. norm   :     0.1119939 α      lambda       -0.1037848E-04
   maximum displ.:     0.0575315 α      in ANC's #3, #4, #1, ...

........................................................................
.............................. CYCLE   16 ..............................
........................................................................
   1    -45.6375439 -0.456375E+02  0.409E-02    3.94       0.0  T
   2    -45.6375442 -0.320363E-06  0.242E-02    3.94       1.0  T
   3    -45.6375435  0.699634E-06  0.619E-03    3.94       3.0  T
   4    -45.6375444 -0.882382E-06  0.136E-03    3.94      13.6  T
   5    -45.6375444 -0.711299E-08  0.839E-04    3.94      22.1  T
   6    -45.6375444 -0.526772E-08  0.342E-04    3.94      54.3  T
     SCC iter.                  ...        0 min,  0.020 sec
     gradient                   ...        0 min,  0.128 sec
 * total energy  :   -45.0103267 Eh     change       -0.8674200E-05 Eh
   gradient norm :     0.0011430 Eh/α   predicted    -0.5221898E-05 ( -39.80%)
   displ. norm   :     0.0375743 α      lambda       -0.5831603E-05
   maximum displ.:     0.0162269 α      in ANC's #1, #5, #6, ...

........................................................................
.............................. CYCLE   17 ..............................
........................................................................
   1    -45.6378893 -0.456379E+02  0.157E-02    3.94       0.0  T
   2    -45.6378896 -0.331116E-06  0.908E-03    3.94       2.0  T
   3    -45.6378895  0.810692E-07  0.269E-03    3.94       6.9  T
   4    -45.6378896 -0.829659E-07  0.114E-03    3.94      16.3  T
   5    -45.6378897 -0.305294E-07  0.286E-04    3.94      65.0  T
   6    -45.6378897 -0.452658E-09  0.173E-04    3.94     107.6  T
     SCC iter.                  ...        0 min,  0.010 sec
     gradient                   ...        0 min,  0.149 sec
 * total energy  :   -45.0103319 Eh     change       -0.5183681E-05 Eh
   gradient norm :     0.0013575 Eh/α   predicted    -0.2918247E-05 ( -43.70%)
   displ. norm   :     0.0428217 α      lambda       -0.4772927E-05
   maximum displ.:     0.0207631 α      in ANC's #1, #5, #6, ...

........................................................................
.............................. CYCLE   18 ..............................
........................................................................
   1    -45.6377607 -0.456378E+02  0.174E-02    3.94       0.0  T
   2    -45.6377608 -0.126863E-06  0.104E-02    3.94       1.8  T
   3    -45.6377606  0.169848E-06  0.246E-03    3.94       7.5  T
   4    -45.6377608 -0.203081E-06  0.559E-04    3.94      33.2  T
   5    -45.6377608 -0.551276E-08  0.277E-04    3.94      67.1  T
     SCC iter.                  ...        0 min,  0.016 sec
     gradient                   ...        0 min,  0.150 sec
 * total energy  :   -45.0103363 Eh     change       -0.4444500E-05 Eh
   gradient norm :     0.0006906 Eh/α   predicted    -0.2391438E-05 ( -46.19%)
   displ. norm   :     0.0502929 α      lambda       -0.2959075E-05
   maximum displ.:     0.0252468 α      in ANC's #1, #5, #6, ...

   *** GEOMETRY OPTIMIZATION CONVERGED AFTER 18 ITERATIONS ***

------------------------------------------------------------------------
 total energy gain   :        -0.0085068 Eh       -5.3381 kcal/mol
 total RMSD          :         0.3100533 a0        0.1641 Å
 total power (kW/mol):        -1.2408089 (step)   -5.3705 (real)
------------------------------------------------------------------------

 ANCopt (total)                0 d,  0 h,  0 min,  4.159 sec
 optimizer setup                ...        0 min,  0.000 sec (  0.003%)
 model hessian                  ...        0 min,  0.010 sec (  0.252%)
 ANC generation                 ...        0 min,  0.001 sec (  0.034%)
 coordinate transformation      ...        0 min,  0.000 sec (  0.006%)
 single point calculation       ...        0 min,  3.921 sec ( 94.285%)
 optimization log               ...        0 min,  0.002 sec (  0.038%)
 hessian update                 ...        0 min,  0.218 sec (  5.249%)
 rational function              ...        0 min,  0.002 sec (  0.051%)

================
 final structure:
================
29
 xtb: 6.3.3 (4ae9cef)
C         3.42760377281548    1.22789496949132   -0.31573881664751
C         3.82575671247473    0.41082435733654    0.63991442401925
C         2.99414437407478   -0.66718540444963    1.28017449438376
C         1.61176676410547   -0.77044396077655    0.70614121520309
C         1.32317790988913   -1.65453103383959   -0.32061401293366
C         0.05618001982992   -1.72964054291408   -0.87535594865423
C        -0.96357945792736   -0.90693408126509   -0.41558065923061
O        -2.24873390603275   -0.91279685485973   -0.85877797787283
C        -2.56515270843676   -1.70393507778418   -1.97714788336100
C        -0.66465120362372    0.00148007743339    0.61063043985058
O        -1.66573333062898    0.83953336318159    1.09691994439660
C        -2.19823212771604    1.73238625935886    0.24208892168979
C        -3.36237094640735    2.43654138880487    0.88644240762079
O        -1.78209959668317    1.93799971930728   -0.86372139147327
C         0.59801074622406    0.06510183756107    1.16137988860423
H         4.08242019159045    1.97842491778604   -0.72451731493798
H         2.43357650499388    1.18424578685029   -0.72840252945209
H         4.83230609627433    0.48246081733954    1.03377020532851
H         3.51830245697478   -1.62004098586305    1.16127294276145
H         2.93581726440360   -0.45943930867912    2.35304714944384
H         2.09994468233977   -2.30111829858714   -0.70191830520906
H        -0.12749112286048   -2.43512178913871   -1.66989561140694
H        -3.61252155584445   -1.49993456935981   -2.19318221626120
H        -1.95660814473173   -1.42935046885424   -2.84380382674562
H        -2.44042179901427   -2.77052736834915   -1.76268401846992
H        -4.18214737456130    1.72916566832846    0.98983921794036
H        -3.67440588640154    3.27077346086734    0.26636671061411
H        -3.08236167970186    2.78194105606575    1.87790723446093
H         0.78750334458109    0.78222506500752    1.94544231633903

 Bond Distances (Angstroems)
 ---------------------------
C1-C2=1.3189         C1-H16=1.0767        C1-H17=1.0772        C2-C1=1.3189         C2-C3=1.5045         C2-H18=1.0832        
C3-C2=1.5045         C3-C4=1.5004         C3-H19=1.0940        C3-H20=1.0944        C4-C3=1.5004         C4-C5=1.3853         
C4-C15=1.3904        C5-C4=1.3853         C5-C6=1.3852         C5-H21=1.0802        C6-C5=1.3852         C6-C7=1.3886         
C6-H22=1.0783        C7-C6=1.3886         C7-O8=1.3594         C7-C10=1.4027        O8-C7=1.3594         O8-C9=1.4060         
C9-O8=1.4060         C9-H23=1.0887        C9-H24=1.0940        C9-H25=1.0951        C10-C7=1.4027        C10-O11=1.3932       
C10-C15=1.3790       O11-C10=1.3932       O11-C12=1.3459       C12-O11=1.3459       C12-C13=1.5054       C12-O14=1.1993       
C13-C12=1.5054       C13-H26=1.0877       C13-H27=1.0853       C13-H28=1.0866       O14-C12=1.1993       C15-C4=1.3904        
C15-C10=1.3790       C15-H29=1.0793       H16-C1=1.0767        H17-C1=1.0772        H18-C2=1.0832        H19-C3=1.0940        
H20-C3=1.0944        H21-C5=1.0802        H22-C6=1.0783        H23-C9=1.0887        H24-C9=1.0940        H25-C9=1.0951        
H26-C13=1.0877       H27-C13=1.0853       H28-C13=1.0866       H29-C15=1.0793       
 C  H  Rav=1.0858 sigma=0.0065  Rmin=1.0767  Rmax=1.0951    14
 C  C  Rav=1.4160 sigma=0.0610  Rmin=1.3189  Rmax=1.5054    10
 O  C  Rav=1.3408 sigma=0.0740  Rmin=1.1993  Rmax=1.4060     5

 selected bond angles (degree)
 --------------------
H16-C1-C2=121.56               H17-C1-C2=122.08               H17-C1-H16=116.36              C3-C2-C1=125.83                
H18-C2-C1=120.20               H18-C2-C3=113.97               C4-C3-C2=113.31                H19-C3-C2=108.24               
H19-C3-C4=109.87               H20-C3-C2=108.10               H20-C3-C4=109.82               H20-C3-H19=107.30              
C5-C4-C3=121.29                C15-C4-C3=120.34               C15-C4-C5=118.31               C6-C5-C4=121.47                
H21-C5-C4=119.59               H21-C5-C6=118.94               C7-C6-C5=120.46                H22-C6-C5=119.10               
H22-C6-C7=120.43               O8-C7-C6=125.72                C10-C7-C6=118.00               C10-C7-O8=116.28               
C9-O8-C7=118.33                H23-C9-O8=105.60               H24-C9-O8=111.33               H24-C9-H23=109.32              
H25-C9-O8=111.51               H25-C9-H23=109.33              H25-C9-H24=109.65              O11-C10-C7=119.46              
C15-C10-C7=121.14              C15-C10-O11=119.39             

 selected dihedral angles (degree)
 ---------------------------------
C3-C2-C1-H16=179.90           C3-C2-C1-H17=  0.03           H18-C2-C1-H16=359.96          H18-C2-C1-H17=180.08          
C4-C3-C2-C1=  1.13            C4-C3-C2-H18=181.08           H19-C3-C2-C1=123.26           H19-C3-C2-H18=303.20          
H20-C3-C2-C1=239.18           H20-C3-C2-H18= 59.13          C5-C4-C3-C2= 93.76            C5-C4-C3-H19=332.55           
C5-C4-C3-H20=214.75           C15-C4-C3-C2=276.39           C15-C4-C3-H19=155.18          C15-C4-C3-H20= 37.37          
C6-C5-C4-C3=181.60            C6-C5-C4-C15=359.02           H21-C5-C4-C3=  1.52           H21-C5-C4-C15=178.94          
C7-C6-C5-C4=  0.35            C7-C6-C5-H21=180.44           H22-C6-C5-C4=180.30           H22-C6-C5-H21=  0.38          
O8-C7-C6-C5=181.66            O8-C7-C6-H22=  1.71           C10-C7-C6-C5=  0.58           C10-C7-C6-H22=180.64          
C9-O8-C7-C6=352.44            C9-O8-C7-C10=173.50           H23-C9-O8-C7=184.01           H24-C9-O8-C7=302.56           
H25-C9-O8-C7= 65.37           O11-C10-C7-C6=180.14          O11-C10-C7-O8=359.16          C15-C10-C7-C6=359.11          
C15-C10-C7-O8=178.13          
           -------------------------------------------------
          |                Final Singlepoint                |
           -------------------------------------------------

          ...................................................
          :                      SETUP                      :
          :.................................................:
          :  # basis functions                  74          :
          :  # atomic orbitals                  74          :
          :  # shells                           44          :
          :  # electrons                        80          :
          :  max. iterations                   250          :
          :  Hamiltonian                  GFN2-xTB          :
          :  restarted?                      false          :
          :  GBSA solvation                  false          :
          :  PC potential                    false          :
          :  electronic temp.          300.0000000     K    :
          :  accuracy                    1.0000000          :
          :  -> integral cutoff          0.2500000E+02      :
          :  -> integral neglect         0.1000000E-07      :
          :  -> SCF convergence          0.1000000E-05 Eh   :
          :  -> wf. convergence          0.1000000E-03 e    :
          :  Broyden damping             0.4000000          :
          ...................................................

 iter      E             dE          RMSdq      gap      omega  full diag
   1    -45.6377608 -0.456378E+02  0.169E-04    3.94       0.0  T
   2    -45.6377608 -0.772218E-10  0.128E-04    3.94     144.8  T
   3    -45.6377608 -0.264471E-09  0.666E-05    3.94     278.8  T

   *** convergence criteria satisfied after 3 iterations ***

         #    Occupation            Energy/Eh            Energy/eV
      -------------------------------------------------------------
         1        2.0000           -0.7370009             -20.0548
       ...           ...                  ...                  ...
        34        2.0000           -0.4423800             -12.0378
        35        2.0000           -0.4307153             -11.7204
        36        2.0000           -0.4235849             -11.5263
        37        2.0000           -0.4141581             -11.2698
        38        2.0000           -0.4052170             -11.0265
        39        2.0000           -0.3984456             -10.8423
        40        2.0000           -0.3785889             -10.3019 (HOMO)
        41                         -0.2338343              -6.3630 (LUMO)
        42                         -0.2213729              -6.0239
        43                         -0.2139560              -5.8220
        44                         -0.1979971              -5.3878
        45                         -0.0978593              -2.6629
       ...                                ...                  ...
        74                          0.6816124              18.5476
      -------------------------------------------------------------
                  HL-Gap            0.1447545 Eh            3.9390 eV
             Fermi-level           -0.3062116 Eh           -8.3324 eV

 SCC (total)                   0 d,  0 h,  0 min,  0.209 sec
 SCC setup                      ...        0 min,  0.013 sec (  6.031%)
 Dispersion                     ...        0 min,  0.016 sec (  7.864%)
 classical contributions        ...        0 min,  0.012 sec (  5.907%)
 integral evaluation            ...        0 min,  0.034 sec ( 16.153%)
 iterations                     ...        0 min,  0.011 sec (  5.049%)
 molecular gradient             ...        0 min,  0.123 sec ( 58.880%)
 printout                       ...        0 min,  0.000 sec (  0.083%)

         :::::::::::::::::::::::::::::::::::::::::::::::::::::
         ::                     SUMMARY                     ::
         :::::::::::::::::::::::::::::::::::::::::::::::::::::
         :: total energy             -45.010336303467 Eh    ::
         :: gradient norm              0.000691600438 Eh/a0 ::
         :: HOMO-LUMO gap              3.938971145950 eV    ::
         ::.................................................::
         :: SCC energy               -45.637760836357 Eh    ::
         :: -> isotropic ES            0.061015088159 Eh    ::
         :: -> anisotropic ES          0.002577969430 Eh    ::
         :: -> anisotropic XC          0.014131225518 Eh    ::
         :: -> dispersion             -0.026233950555 Eh    ::
         :: repulsion energy           0.627261484776 Eh    ::
         :: add. restraining           0.000000000000 Eh    ::
         :: total charge               0.000000000000 e     ::
         :::::::::::::::::::::::::::::::::::::::::::::::::::::

           -------------------------------------------------
          |                Property Printout                |
           -------------------------------------------------

    * Orbital Energies and Occupations

         #    Occupation            Energy/Eh            Energy/eV
      -------------------------------------------------------------
         1        2.0000           -0.7370009             -20.0548
       ...           ...                  ...                  ...
        28        2.0000           -0.4801545             -13.0657
        29        2.0000           -0.4747852             -12.9196
        30        2.0000           -0.4723576             -12.8535
        31        2.0000           -0.4631973             -12.6042
        32        2.0000           -0.4558783             -12.4051
        33        2.0000           -0.4462637             -12.1435
        34        2.0000           -0.4423800             -12.0378
        35        2.0000           -0.4307153             -11.7204
        36        2.0000           -0.4235849             -11.5263
        37        2.0000           -0.4141581             -11.2698
        38        2.0000           -0.4052170             -11.0265
        39        2.0000           -0.3984456             -10.8423
        40        2.0000           -0.3785889             -10.3019 (HOMO)
        41                         -0.2338343              -6.3630 (LUMO)
        42                         -0.2213729              -6.0239
        43                         -0.2139560              -5.8220
        44                         -0.1979971              -5.3878
        45                         -0.0978593              -2.6629
        46                          0.0191730               0.5217
        47                          0.0373333               1.0159
        48                          0.1017506               2.7688
        49                          0.1101594               2.9976
        50                          0.1188886               3.2351
        51                          0.1270122               3.4562
       ...                                ...                  ...
        74                          0.6816124              18.5476
      -------------------------------------------------------------
                  HL-Gap            0.1447545 Eh            3.9390 eV
             Fermi-level           -0.3062116 Eh           -8.3324 eV

     #   Z          covCN         q      C6AA      α(0)
     1   6 C        2.836    -0.094    30.342     9.027
     2   6 C        2.886    -0.026    28.654     8.776
     3   6 C        3.811    -0.063    21.700     6.631
     4   6 C        2.970     0.010    27.786     8.646
     5   6 C        2.925    -0.043    29.060     8.840
     6   6 C        2.918    -0.069    29.710     8.938
     7   6 C        2.864     0.134    25.073     8.208
     8   8 O        1.705    -0.260    18.306     5.777
     9   6 C        3.646     0.039    20.250     6.467
    10   6 C        2.881     0.121    25.342     8.253
    11   8 O        1.708    -0.254    18.213     5.762
    12   6 C        2.720     0.370    20.725     7.453
    13   6 C        3.754    -0.146    23.383     6.895
    14   8 O        0.856    -0.400    21.688     6.244
    15   6 C        2.923    -0.053    29.320     8.880
    16   1 H        0.926     0.037     2.485     2.465
    17   1 H        0.926     0.042     2.425     2.435
    18   1 H        0.925     0.032     2.563     2.503
    19   1 H        0.924     0.050     2.324     2.384
    20   1 H        0.924     0.051     2.306     2.375
    21   1 H        0.926     0.043     2.404     2.425
    22   1 H        0.926     0.045     2.377     2.411
    23   1 H        0.925     0.064     2.155     2.296
    24   1 H        0.924     0.047     2.360     2.402
    25   1 H        0.924     0.040     2.452     2.449
    26   1 H        0.925     0.079     1.987     2.204
    27   1 H        0.925     0.073     2.048     2.238
    28   1 H        0.925     0.074     2.037     2.232
    29   1 H        0.926     0.056     2.243     2.342

 Mol. C6AA /au·bohr⁶  :       9055.688456
 Mol. C8AA /au·bohr⁸  :     211548.260216
 Mol. α(0) /au        :        147.957258


Wiberg/Mayer (AO) data.
largest (>0.10) Wiberg bond orders for each atom

 ---------------------------------------------------------------------------
     #   Z sym  total        # sym  WBO       # sym  WBO       # sym  WBO
 ---------------------------------------------------------------------------
     1   6 C    3.992 --     2 C    1.981    16 H    0.977    17 H    0.973
     2   6 C    3.989 --     1 C    1.981     3 C    1.006    18 H    0.966
     3   6 C    3.997 --     4 C    1.013     2 C    1.006    19 H    0.958
                            20 H    0.955
     4   6 C    3.988 --     5 C    1.420    15 C    1.388     3 C    1.013
     5   6 C    3.990 --     6 C    1.434     4 C    1.420    21 H    0.969
                            10 C    0.100
     6   6 C    3.986 --     5 C    1.434     7 C    1.379    22 H    0.965
                            15 C    0.100
     7   6 C    3.939 --     6 C    1.379    10 C    1.303     8 O    1.070
     8   8 O    2.239 --     7 C    1.070     9 C    0.982
     9   6 C    3.943 --     8 O    0.982    23 H    0.979    24 H    0.977
                            25 H    0.976
    10   6 C    3.920 --    15 C    1.434     7 C    1.303    11 O    0.965
                             5 C    0.100
    11   8 O    2.333 --    12 C    1.098    10 C    0.965    14 O    0.167
    12   6 C    3.914 --    14 O    1.774    11 O    1.098    13 C    0.987
    13   6 C    3.991 --    12 C    0.987    27 H    0.983    28 H    0.969
                            26 H    0.960
    14   8 O    2.051 --    12 C    1.774    11 O    0.167
    15   6 C    3.987 --    10 C    1.434     4 C    1.388    29 H    0.966
                             6 C    0.100
    16   1 H    0.999 --     1 C    0.977
    17   1 H    0.998 --     1 C    0.973
    18   1 H    0.998 --     2 C    0.966
    19   1 H    0.997 --     3 C    0.958
    20   1 H    0.997 --     3 C    0.955
    21   1 H    0.998 --     5 C    0.969
    22   1 H    0.998 --     6 C    0.965
    23   1 H    0.995 --     9 C    0.979
    24   1 H    0.998 --     9 C    0.977
    25   1 H    0.998 --     9 C    0.976
    26   1 H    0.994 --    13 C    0.960
    27   1 H    0.994 --    13 C    0.983
    28   1 H    0.994 --    13 C    0.969
    29   1 H    0.996 --    15 C    0.966
 ---------------------------------------------------------------------------

Topologies differ in total number of bonds
Writing topology from bond orders to xtbtopo.mol

molecular dipole:
                 x           y           z       tot (Debye)
 q only:        0.032      -0.719       0.366
   full:       -0.047      -0.830       0.384       2.328
molecular quadrupole (traceless):
                xx          xy          yy          xz          yz          zz
 q only:        4.718      -1.660      -2.141       1.324       8.040      -2.577
  q+dip:        5.367      -1.219      -2.189       2.058      10.184      -3.178
   full:        4.634      -0.510      -1.628       1.646       9.744      -3.007

           -------------------------------------------------
          |                Geometry Summary                 |
           -------------------------------------------------

      molecular mass/u    :      206.2382161
   center of mass at/Å    :       -0.1962744       0.0524050       0.0410780
  moments of inertia/u·Å² :        0.5524234E+03   0.1234296E+04   0.1550111E+04
rotational constants/cm⁻¹ :        0.3051578E-01   0.1365769E-01   0.1087511E-01

 * 26 selected distances

     #   Z          #   Z                                           value/Å
     1   6 C        2   6 C                                       1.3188644
     4   6 C        5   6 C                                       1.3853230
     5   6 C        6   6 C                                       1.3851584
     6   6 C        7   6 C                                       1.3885779
     7   6 C        8   8 O                                       1.3594411
     8   8 O        9   6 C                                       1.4059772 (max)
     7   6 C       10   6 C                                       1.4027415
    10   6 C       11   8 O                                       1.3931892
    11   8 O       12   6 C                                       1.3459113
    12   6 C       14   8 O                                       1.1992746
     4   6 C       15   6 C                                       1.3903526
    10   6 C       15   6 C                                       1.3790170
     1   6 C       16   1 H                                       1.0766520 (min)
     1   6 C       17   1 H                                       1.0771661
     2   6 C       18   1 H                                       1.0832340
     3   6 C       19   1 H                                       1.0939895
     3   6 C       20   1 H                                       1.0943565
     5   6 C       21   1 H                                       1.0802012
     6   6 C       22   1 H                                       1.0783006
     9   6 C       23   1 H                                       1.0887004
     9   6 C       24   1 H                                       1.0939907
     9   6 C       25   1 H                                       1.0950670
    13   6 C       26   1 H                                       1.0877062
    13   6 C       27   1 H                                       1.0852662
    13   6 C       28   1 H                                       1.0866042
    15   6 C       29   1 H                                       1.0793179

 * 3 distinct bonds (by element types)

   Z      Z             #   av. dist./Å        max./Å        min./Å
   1 H    6 C          14     1.0857537     1.0950670     1.0766520
   6 C    6 C           7     1.3785764     1.4027415     1.3188644
   6 C    8 O           5     1.3407587     1.4059772     1.1992746


optimized geometry written to: xtbopt.xyz


           -------------------------------------------------
          | TOTAL ENERGY              -45.010336303467 Eh   |
          | GRADIENT NORM               0.000691600438 Eh/α |
          | HOMO-LUMO GAP               3.938971145950 eV   |
           -------------------------------------------------

------------------------------------------------------------------------
 * finished run on 2022/03/17 at 02:19:41.452     
------------------------------------------------------------------------
 total:
 * wall-time:     0 d,  0 h,  0 min,  4.744 sec
 *  cpu-time:     0 d,  0 h,  2 min, 32.742 sec
 * ratio c/w:    32.199 speedup
 SCF:
 * wall-time:     0 d,  0 h,  0 min,  0.230 sec
 *  cpu-time:     0 d,  0 h,  0 min,  7.462 sec
 * ratio c/w:    32.509 speedup
 ANC optimizer:
 * wall-time:     0 d,  0 h,  0 min,  4.369 sec
 *  cpu-time:     0 d,  0 h,  2 min, 21.208 sec
 * ratio c/w:    32.321 speedup

