29
 energy: -45.001829518565 gnorm: 0.080531802929 xtb: 6.3.3 (4ae9cef)
C         3.49970000000000    1.29565000000000   -0.36866100000000
C         3.81144400000000    0.45364300000000    0.62675800000000
C         2.93455300000000   -0.59225200000000    1.26430200000000
C         1.54523100000000   -0.74429000000000    0.69228600000000
C         1.29839200000000   -1.64490400000000   -0.35512200000000
C         0.01531200000000   -1.78162300000000   -0.90311500000000
C        -1.04221000000000   -1.00903000000000   -0.42259300000000
O        -2.33726200000000   -1.06988900000000   -0.86357700000000
C        -2.58343200000000   -1.85145900000000   -2.02510700000000
C        -0.78025200000000   -0.09564400000000    0.60713400000000
O        -1.81665200000000    0.68039900000000    1.13579300000000
C        -2.07588900000000    1.80845700000000    0.36867200000000
C        -3.27781200000000    2.50464900000000    0.93529900000000
O        -1.43934300000000    2.21687900000000   -0.59424100000000
C         0.48804100000000    0.03400200000000    1.17603900000000
H         4.22894700000000    2.00956800000000   -0.73937600000000
H         2.52052800000000    1.30612900000000   -0.83898900000000
H         4.81617700000000    0.51579800000000    1.04243300000000
H         3.44993600000000   -1.55950000000000    1.20237400000000
H         2.85461300000000   -0.37200700000000    2.33669200000000
H         2.11091700000000   -2.24858000000000   -0.75538800000000
H        -0.11971000000000   -2.50268900000000   -1.70210300000000
H        -3.63735000000000   -1.72887800000000   -2.29285900000000
H        -1.98246900000000   -1.50539600000000   -2.87275300000000
H        -2.41282700000000   -2.91444500000000   -1.82603200000000
H        -4.13097000000000    1.82149100000000    0.94746500000000
H        -3.53128000000000    3.36103600000000    0.30385300000000
H        -3.05668900000000    2.86387800000000    1.94331700000000
H         0.65035600000000    0.74900600000000    1.97749600000000
29
 energy: -45.008330224105 gnorm: 0.023767948191 xtb: 6.3.3 (4ae9cef)
C         3.48425801309913    1.27688061659329   -0.35675787688865
C         3.80181469221792    0.44989540732735    0.62450334560459
C         2.93155305801266   -0.59584812460266    1.26149556018876
C         1.55172703246527   -0.73257953729769    0.67416334356142
C         1.29848195349438   -1.63044317841942   -0.35625805349472
C         0.02773095177271   -1.77308191339582   -0.89819895999886
C        -1.02992018274900   -1.00599847579416   -0.42472679408339
O        -2.31868407558266   -1.06362619512768   -0.87345460008617
C        -2.57733930984090   -1.84766458923374   -2.02077393519884
C        -0.76980649031560   -0.09930376955517    0.60911442309459
O        -1.80825040443987    0.69340987023203    1.10676965144632
C        -2.08312018406756    1.80678695660333    0.36911852931902
C        -3.28388348467241    2.51321866131212    0.92975277248166
O        -1.44890291510928    2.17901684943175   -0.57943860662690
C         0.49554419049200    0.03295746498253    1.15644530315076
H         4.20249345534815    1.98994668498275   -0.73129006140706
H         2.51044772166801    1.28380712280470   -0.82030796147193
H         4.80101776457835    0.50618420248727    1.04461056636426
H         3.45271928254200   -1.55776230862785    1.19033534075615
H         2.85062239049090   -0.36171470831618    2.32971281716166
H         2.10391037658869   -2.23695110576763   -0.74750162686736
H        -0.11362967651081   -2.48946686730652   -1.69361736618850
H        -3.63234802543427   -1.70482401379386   -2.26306837886323
H        -1.97105346614318   -1.51491313971562   -2.86772743838991
H        -2.40208899552143   -2.90934184033367   -1.82322907298955
H        -4.12603568113693    1.82505482878495    0.96339779760046
H        -3.53278071591933    3.36786530222232    0.30247912067887
H        -3.06620966146599    2.85437655295749    1.93968126702895
H         0.65173238613903    0.74411824656579    1.95476789411762
29
 energy: -45.009290666174 gnorm: 0.009170787237 xtb: 6.3.3 (4ae9cef)
C         3.46263266708981    1.26197270882309   -0.35185487588122
C         3.79719859773391    0.44438965324346    0.62591737443573
C         2.93175055273807   -0.60288678451620    1.26685985137246
C         1.55727027710437   -0.73554950183556    0.67542257051472
C         1.30349981914175   -1.62705372782395   -0.35391256752743
C         0.03917675436133   -1.76423661415937   -0.89984676880979
C        -1.01765189683589   -0.99530532056896   -0.43103536180271
O        -2.30133469583731   -1.04816961696285   -0.88386083034112
C        -2.56997999674160   -1.84141539535093   -2.01647833603375
C        -0.75851097923155   -0.08998087056706    0.60518469256257
O        -1.80215266080509    0.70468010834329    1.08691300746380
C        -2.09108843170358    1.80342583161408    0.36148208256050
C        -3.28829148903035    2.51364669645914    0.93182947306341
O        -1.45731258108223    2.15740386538633   -0.58997723411258
C         0.50391211902106    0.03725166035089    1.14671629318475
H         4.16621826360933    1.98123585643944   -0.73641102532258
H         2.48637956095079    1.25758088258227   -0.80523147466893
H         4.79483436297240    0.49871200845899    1.04666889641161
H         3.45417330099930   -1.56196541349323    1.19137222638105
H         2.84895626810257   -0.36219283026986    2.33184898891160
H         2.10788775530378   -2.23098758601085   -0.74566059113085
H        -0.10954654958618   -2.47656038507656   -1.69531519503354
H        -3.62468318239938   -1.68598775494799   -2.24212136826933
H        -1.96450705305852   -1.52593615435383   -2.87096276936934
H        -2.39789338284638   -2.90298958565532   -1.81405288064720
H        -4.12743788864844    1.82475139962725    0.97765912477429
H        -3.53433837641730    3.36657823996509    0.30680517691547
H        -3.06721104757350    2.84693689058522    1.94259274653314
H         0.65804991266880    0.75265073971396    1.93944577386529
29
 energy: -45.009534157631 gnorm: 0.003723837134 xtb: 6.3.3 (4ae9cef)
C         3.44292708561321    1.25196007721215   -0.34862139771959
C         3.79502410787926    0.44040113648839    0.62881579062201
C         2.93481971093381   -0.60994991590874    1.27431512052052
C         1.56292769200829   -0.73969320134840    0.67977884998015
C         1.30977641114335   -1.62775384992296   -0.35248134507674
C         0.04712394197538   -1.75800547831290   -0.90376294301513
C        -1.00823643483218   -0.98561904267314   -0.43664096130108
O        -2.28920541895639   -1.03209203556774   -0.89224668643535
C        -2.56595612708062   -1.83464589547566   -2.01442656305448
C        -0.74892880157185   -0.08083976518076    0.60145882219059
O        -1.79463268675429    0.71216049009679    1.07997272257794
C        -2.09585671294987    1.80259265451394    0.35459910401363
C        -3.29051456639283    2.51171010326142    0.93369714578063
O        -1.47367515628423    2.14973566266677   -0.61010413419685
C         0.51204720017749    0.04148642369314    1.14438726589227
H         4.13427547332313    1.97675803318848   -0.74544991991249
H         2.46148167171905    1.23474312631683   -0.79128236320200
H         4.79370939374255    0.49777605345804    1.04546992054100
H         3.45794660159457   -1.56791639902114    1.19776881224819
H         2.85141895838055   -0.36767152738223    2.33824071143660
H         2.11361521707481   -2.23438368605583   -0.74191569459589
H        -0.10542126342578   -2.46572036059892   -1.70257627427090
H        -3.62010846542380   -1.67437633338603   -2.23467248037902
H        -1.96252157749578   -1.53323127017927   -2.87625486363600
H        -2.39824357940845   -2.89577890574771   -1.80330421614259
H        -4.12759304230909    1.82065239299331    0.98702146310898
H        -3.54194909921543    3.36364360535498    0.31063356085175
H        -3.06143508957164    2.84399555537423    1.94312859816643
H         0.66718455610671    0.76006135214293    1.93444895500742
29
 energy: -45.009767895401 gnorm: 0.007183704303 xtb: 6.3.3 (4ae9cef)
C         3.41049602500382    1.23488548091871   -0.34428628455238
C         3.79204901048884    0.43377060385584    0.63234555763479
C         2.94178349422813   -0.62201689868301    1.28692910927363
C         1.57219246191706   -0.74946024295103    0.68993214768152
C         1.31989132786073   -1.63276714582876   -0.34727232396677
C         0.06007026794067   -1.74750314274460   -0.91080606955600
C        -0.99168731223923   -0.96715651228703   -0.44747297607795
O        -2.26917583983383   -1.00072237521520   -0.90798303418767
C        -2.56015006157251   -1.82162396070329   -2.01192146686986
C        -0.73149284845052   -0.06445774783839    0.59430378589578
O        -1.77803152659394    0.72649091413340    1.07195235374931
C        -2.10778705265211    1.79942542111809    0.33691057009744
C        -3.29398535404112    2.50720276894706    0.93637060847574
O        -1.51155763729998    2.14182115489145   -0.64959910552916
C         0.52661036626309    0.04663751520309    1.14453875493762
H         4.07949490504195    1.97116710365151   -0.75990279179660
H         2.41921778274683    1.19646217450999   -0.76605812014382
H         4.79361971083225    0.50036263539697    1.03931772433295
H         3.46722998101261   -1.57816779214442    1.21010500094348
H         2.85917254643655   -0.37865263844504    2.35014980318708
H         2.12243806625636   -2.24550906705946   -0.73167597570890
H        -0.09664197049534   -2.44738710252115   -1.71608452119774
H        -3.61365481346310   -1.65609848202782   -2.22744063301416
H        -1.96105959336246   -1.54417550296718   -2.88609105781784
H        -2.39988538502420   -2.88096946410918   -1.78179937309579
H        -4.12842275381017    1.81348558386080    1.00197428248719
H        -3.55836665164115    3.35876643455875    0.31832901872173
H        -3.04756468714181    2.83850296732090    1.94267338132615
H         0.68519754159245    0.76768631715895    1.93255863477028
29
 energy: -45.009870669205 gnorm: 0.007851359013 xtb: 6.3.3 (4ae9cef)
C         3.39200501180979    1.22751213723897   -0.34077367910242
C         3.78894336392934    0.43107584846413    0.63347584961538
C         2.94695480308495   -0.62938431151750    1.29318287886982
C         1.57707683254740   -0.75710484036295    0.69728924520706
C         1.32449929569668   -1.63762145763219   -0.34240494612776
C         0.06666607117461   -1.74132380691797   -0.91382843642812
C        -0.98172701551426   -0.95411856444173   -0.45419514970169
O        -2.25765380500405   -0.97760928835669   -0.91896207206235
C        -2.55671205235812   -1.81150181892005   -2.01097427740512
C        -0.72055511781761   -0.05457529620462    0.59075016800264
O        -1.76402332605510    0.73838150196005    1.07049102282423
C        -2.11480286866062    1.79846130279501    0.32506692540820
C        -3.29716229344216    2.50274541829167    0.93621078465126
O        -1.54041731970660    2.13617685661167   -0.67647182643170
C         0.53536313219617    0.04645409341824    1.14839456678952
H         4.04944860425556    1.96694765261540   -0.76797993065860
H         2.39744562542617    1.17586282828013   -0.75311654114532
H         4.79335791954899    0.50360732936556    1.03189405140304
H         3.47533970341762   -1.58395569335563    1.21544775365055
H         2.86686890810490   -0.38663692989207    2.35681745511117
H         2.12509162237005   -2.25601543458222   -0.72244793870384
H        -0.09079707318382   -2.43716909201342   -1.72260443315963
H        -3.61016485952738   -1.64445437462372   -2.22584987669301
H        -1.96046073819490   -1.54869170597513   -2.89155859482295
H        -2.40027974302038   -2.86842736144203   -1.76637425831759
H        -4.12941388184197    1.80696261508786    1.01066309265554
H        -3.57197957484413    3.35332297486362    0.32084343927828
H        -3.03996306182407    2.83539373835770    1.93941687615896
H         0.69705183743278    0.76568467888784    1.93759485113453
29
 energy: -45.009970009459 gnorm: 0.004944663329 xtb: 6.3.3 (4ae9cef)
C         3.37653104038913    1.21889428602989   -0.34112131344512
C         3.78563813798959    0.42675244348750    0.63073331674250
C         2.95361349379765   -0.63736406016759    1.29772413170921
C         1.58156657988268   -0.76654715895106    0.70620391368715
C         1.32716757879358   -1.64452385021207   -0.33508220765324
C         0.07156161673967   -1.73551130540907   -0.91410531477312
C        -0.97187243804317   -0.93892193246512   -0.45973086153121
O        -2.24621419299213   -0.94911229231908   -0.93125285167961
C        -2.55249099599655   -1.79756561094695   -2.01027756313749
C        -0.70912609419011   -0.04460474600134    0.58923742218197
O        -1.74599786684940    0.75435498406372    1.07230151345068
C        -2.12426538177436    1.79558988337462    0.30961052461367
C        -3.30184034593433    2.49643704947021    0.93366345997847
O        -1.57525059132679    2.12523976092067   -0.70704596228084
C         0.54440869328073    0.04322928281751    1.15611330243211
H         4.02131882532730    1.96551053221353   -0.77207397143294
H         2.37804784631096    1.16129179541414   -0.74087198164111
H         4.79232994437078    0.50860870597012    1.02140786437877
H         3.48598660423537   -1.58986459998149    1.21813555703703
H         2.87855244873579   -0.39524922403272    2.36228868566578
H         2.12432802443614   -2.26991454600626   -0.71068089831932
H        -0.08541543497326   -2.42813918951142   -1.72571706002342
H        -3.60612984332869   -1.62986371837626   -2.22609927727503
H        -1.95877768721628   -1.55018434051140   -2.89609356142298
H        -2.39961124686505   -2.85064864730857   -1.74854704716303
H        -4.13130965273950    1.79853586303732    1.01818197442601
H        -3.58861269566905    3.34528784273193    0.32067567468556
H        -3.03382459906904    2.83139363722687    1.93306373568714
H         0.70968823267812    0.75688815544229    1.94935579510250
29
 energy: -45.010026722642 gnorm: 0.003177207439 xtb: 6.3.3 (4ae9cef)
C         3.36880353768516    1.22031164463703   -0.33809735464212
C         3.78261990668944    0.42659986216305    0.62990068418566
C         2.95844510179612   -0.64200382440657    1.29825757321058
C         1.58371797433234   -0.77233039898950    0.71189676437216
C         1.32661859913191   -1.64864530135152   -0.32985873984905
C         0.07195250869368   -1.73259015114966   -0.91113580627142
C        -0.96756173527995   -0.92948167151969   -0.46007792505472
O        -2.24076811283641   -0.93063098048558   -0.93724812104691
C        -2.54941027747810   -1.78618596784971   -2.00987748275326
C        -0.70331537409294   -0.03992974399024    0.59183919604866
O        -1.73359621132108    0.76600259604621    1.07693452114670
C        -2.12982009636289    1.79252749063770    0.30095205915805
C        -3.30578047456570    2.49144488996857    0.92974333076979
O        -1.59844681678605    2.10957090917451   -0.72729982639761
C         0.54906948086040    0.03881261591372    1.16367397256302
H         4.01250027803281    1.96323436684855   -0.77481223752166
H         2.37212816558634    1.15657682283121   -0.73949611125510
H         4.79218794874722    0.51042181911393    1.01291477523901
H         3.49361602456754   -1.59280303173339    1.21414936102495
H         2.88833301118129   -0.40219909121769    2.36388538059112
H         2.12061006319114   -2.27827847311418   -0.70411031813241
H        -0.08461419651922   -2.42476512678994   -1.72305860556598
H        -3.60308549722133   -1.61792940921564   -2.22733029556943
H        -1.95575143228589   -1.54679315486593   -2.89687169820155
H        -2.39870472058435   -2.83657754470841   -1.73898707100614
H        -4.13247194682206    1.79127355392035    1.02097196539553
H        -3.59976344337752    3.33727332144338    0.31588207929394
H        -3.03357538251305    2.82994125887466    1.92635748197166
H         0.71606311755092    0.74715171981465    1.96089944829668
29
 energy: -45.010076886474 gnorm: 0.003229512379 xtb: 6.3.3 (4ae9cef)
C         3.36720167074794    1.21791821212433   -0.34040131157175
C         3.78250230604599    0.42330389791981    0.62619126161649
C         2.96339758534501   -0.64630508188249    1.29730465054867
C         1.58601109661088   -0.77657999521070    0.71637592704468
C         1.32515570724003   -1.65182037380792   -0.32514508452528
C         0.07058400229732   -1.73050219200517   -0.90624984156162
C        -0.96512163135778   -0.92173974445623   -0.45727485383101
O        -2.23702946009338   -0.91554105908115   -0.93944901670936
C        -2.54652185901689   -1.77420008049314   -2.00890644958422
C        -0.69869252864504   -0.03629473005358    0.59672078273678
O        -1.72253044354728    0.77674030410291    1.08286432588447
C        -2.13626598717901    1.78679544577554    0.29315044863051
C        -3.31001556723108    2.48661731707598    0.92493212604672
O        -1.62120432637905    2.08622031018738   -0.74778872829186
C         0.55342120542086    0.03535696231789    1.17038307893433
H         4.00848535373727    1.96619779905335   -0.77149120569516
H         2.36834634330608    1.15957103480665   -0.73715619062833
H         4.79246719160188    0.51149379089761    1.00730624010252
H         3.49960745167811   -1.59598599385191    1.20844888823075
H         2.89812205534534   -0.40800018751893    2.36365864332782
H         2.11597926586270   -2.28444322184014   -0.70007626847741
H        -0.08685693230373   -2.42304695346680   -1.71755983102511
H        -3.59975397660799   -1.60389785533958   -2.22817153019779
H        -1.95115359962865   -1.54019424137538   -2.89562637875381
H        -2.39881090713107   -2.82307131727857   -1.73309855572575
H        -4.13405403264668    1.78430337402969    1.02260732819735
H        -3.60936214256757    3.32840236872907    0.30837477627386
H        -3.03509625012216    2.82947943709329    1.91901961507283
H         0.72118840921770    0.73922177354801    1.97105415393083
29
 energy: -45.010127501338 gnorm: 0.003081092420 xtb: 6.3.3 (4ae9cef)
C         3.36879304452084    1.22031406245061   -0.33882662538077
C         3.78395502758584    0.42197410670055    0.62527562820885
C         2.96826343524097   -0.65000715849361    1.29519800649483
C         1.58875596733817   -0.77855328753040    0.71914908432686
C         1.32363105645618   -1.65292828359048   -0.32207033021209
C         0.06793402820111   -1.72890702907068   -0.90030964875213
C        -0.96462945968630   -0.91639931414140   -0.45118431774072
O        -2.23548564424290   -0.90629750957501   -0.93565983868828
C        -2.54484451918908   -1.76222567357157   -2.00667724204710
C        -0.69504863878850   -0.03322649528092    0.60337018104848
O        -1.71362826496612    0.78559797139395    1.08954290523047
C        -2.14537661909023    1.77672906756222    0.28533626450195
C        -3.31493897615445    2.48170803609043    0.91917176064026
O        -1.64391240527006    2.05612755074790   -0.76723109466641
C         0.55782396383119    0.03390134779232    1.17564884910234
H         4.01336252846999    1.96802408384625   -0.76756732353097
H         2.37041777076958    1.16500696294754   -0.73850544178385
H         4.79491200587603    0.50938074622634    1.00414413789217
H         3.50400780536882   -1.59908029112903    1.19962038336580
H         2.90731091153555   -0.41524759152790    2.36237526990982
H         2.11173842965888   -2.28729529396947   -0.69941932270521
H        -0.09229164955431   -2.42236251812806   -1.71025614193421
H        -3.59691025118181   -1.58771833111019   -2.22800210343020
H        -1.94607572179696   -1.52943314973261   -2.89149103111704
H        -2.40132406437450   -2.81166186963284   -1.73209788004271
H        -4.13758038281479    1.77866619565190    1.02230418737518
H        -3.61688297474073    3.31945847702309    0.29892049950851
H        -3.03784023413194    2.82876610752529    1.91125269957079
H         0.72586383112926    0.73568808052560    1.97798548485558
29
 energy: -45.010178411347 gnorm: 0.003809609184 xtb: 6.3.3 (4ae9cef)
C         3.37516479801144    1.22257174297707   -0.33591028373892
C         3.78898093819853    0.41978401010942    0.62550050041209
C         2.97424731737758   -0.65457099777006    1.29225146190545
C         1.59303409905089   -0.77935962720119    0.72053273398593
C         1.32273219521242   -1.65299654221217   -0.32016297358619
C         0.06476842588840   -1.72695497789683   -0.89375950987261
C        -0.96482986338166   -0.91175693540637   -0.44220289299198
O        -2.23559830022533   -0.90058552422044   -0.92473504588132
C        -2.54530244326767   -1.74775227487648   -2.00215635901853
C        -0.68997270635223   -0.02841221769676    0.61099938922967
O        -1.70292203443272    0.79587483402776    1.09783743954286
C        -2.15699502255201    1.76341414236627    0.27712543461015
C        -3.32249823176520    2.47433332608851    0.91111218256071
O        -1.67536614623614    2.01694412314614   -0.79282010719132
C         0.56470963742923    0.03505068799719    1.17953784369578
H         4.02382565032763    1.97075530675657   -0.75976951081236
H         2.37707327117300    1.17279546931831   -0.73856312305161
H         4.80020086442544    0.50497138412464    1.00431927064902
H         3.50823706859742   -1.60358441571282    1.18896955747832
H         2.91738809472064   -0.42526374756409    2.36057462374670
H         2.10831161532394   -2.28869201820561   -0.70098993302468
H        -0.10057076250210   -2.42111726180456   -1.70210191428363
H        -3.59539758505627   -1.56613696300527   -2.22596393978584
H        -1.94184182162660   -1.51211933995992   -2.88351811732025
H        -2.40795932844439   -2.80012248535162   -1.73479182839650
H        -4.14447505793563    1.77118998705418    1.02136369094710
H        -3.62711217974914    3.30710070750472    0.28568212871212
H        -3.04211928284577    2.82738181348827    1.90025004621918
H         0.73428679063607    0.73725679392494    1.98138623526091
29
 energy: -45.010223488626 gnorm: 0.004373920825 xtb: 6.3.3 (4ae9cef)
C         3.39280777992690    1.22787440519555   -0.33178633099103
C         3.79946986647393    0.41841638339214    0.62744711183582
C         2.97960614353311   -0.65700326964187    1.28649011275116
C         1.59734903356859   -0.77553806760187    0.71723012880642
C         1.32165444695242   -1.65021241747151   -0.32151220453982
C         0.05968392802305   -1.72751515551223   -0.88612222674166
C        -0.96875763801411   -0.91374330497050   -0.42853158569299
O        -2.24202885745058   -0.90952407452458   -0.90067535366771
C        -2.55056306754095   -1.73540996734603   -1.99493418922083
C        -0.68693696271348   -0.02490293907148    0.61882812935402
O        -1.69698103432533    0.80230477540824    1.10484164614005
C        -2.17013350671154    1.74653225925236    0.27075968127283
C        -3.33239652725598    2.46533436462517    0.90014056708122
O        -1.69966118844175    1.97980902145782   -0.80617167349878
C         0.57124578252553    0.04038188500197    1.17918165852589
H         4.05000051473590    1.97494283556133   -0.74711289127443
H         2.39652396923441    1.18747525083638   -0.74147864865699
H         4.80957813793584    0.49701471614489    1.01073114871660
H         3.50957818335470   -1.60722073630746    1.17545575264427
H         2.92521579995340   -0.43521271252229    2.35626756679812
H         2.10589356716317   -2.28514885399169   -0.70734080763984
H        -0.11270177399210   -2.42384018509748   -1.69116734500996
H        -3.59810326714874   -1.54405142944269   -2.22096734816637
H        -1.94086465312107   -1.48597188287673   -2.86891727273996
H        -2.41999119551829   -2.79432125363408   -1.74752466936696
H        -4.15668981059493    1.76537769884611    1.01144299858131
H        -3.63358955338968    3.29554695405974    0.27014576008013
H        -3.05251394043549    2.82154335257727    1.88823487860072
H         0.74330582327281    0.74706134765330    1.97704240601905
29
 energy: -45.010252071582 gnorm: 0.006886405761 xtb: 6.3.3 (4ae9cef)
C         3.40171451172207    1.22831033298024   -0.32455629025943
C         3.80921152496953    0.41489574109512    0.63094412642638
C         2.98828496774620   -0.66406950708184    1.28427828023370
C         1.60482246928630   -0.77580323523687    0.71685357136018
C         1.32324687486486   -1.65039230800774   -0.32038938831228
C         0.05870329172425   -1.72480407700698   -0.88014374491629
C        -0.96656709327778   -0.90876782915675   -0.41856184695849
O        -2.24283868630506   -0.90571422601367   -0.88141989643749
C        -2.55447424611046   -1.71610096544726   -1.98696278621671
C        -0.67661297780563   -0.01520056557927    0.62359340066491
O        -1.68053237812170    0.81829694460206    1.11082281081638
C        -2.18821167701399    1.72990030267280    0.25487384002783
C        -3.34477916320582    2.45294570179000    0.88997903414429
O        -1.74841805003728    1.93802706635461   -0.84397439277483
C         0.58393915484747    0.04643196749435    1.17960306311953
H         4.05896863163455    1.97672818842567   -0.73751368995000
H         2.40587499825972    1.18857235408406   -0.73507678604805
H         4.81933226445346    0.49091982693508    1.01478420651378
H         3.51644510496287   -1.61455322153334    1.16564345338888
H         2.93680963165506   -0.45008605355095    2.35591701026595
H         2.10465727133505   -2.28812735082911   -0.70794868041417
H        -0.12029774453368   -2.42115047500097   -1.68373231676698
H        -3.59997926243796   -1.51464628647981   -2.21363300371873
H        -1.94085158035078   -1.45940189008562   -2.85638343886478
H        -2.43180362536934   -2.77970471677448   -1.75265834940208
H        -4.16991593777892    1.75464682170193    1.01027710704303
H        -3.65085516072821    3.27920974924403    0.25656585236281
H        -3.05766941229836    2.81426477869579    1.87434113826994
H         0.76179629791332    0.75537193170871    1.97447471640306
29
 energy: -45.010300078582 gnorm: 0.002839112491 xtb: 6.3.3 (4ae9cef)
C         3.40526039486177    1.22748514358482   -0.32341421208560
C         3.81139399021375    0.41552816322759    0.63322965864612
C         2.98619909367450   -0.66191424439983    1.28461918250835
C         1.60402045367506   -0.77319102540094    0.71304117524186
C         1.32436995340664   -1.64949962390081   -0.32296715058578
C         0.06019644138772   -1.72665079958156   -0.88316405876483
C        -0.96688191689241   -0.91343758873032   -0.42102206019120
O        -2.24619154742730   -0.91569918769702   -0.87743860994788
C        -2.55798942814113   -1.72161158788246   -1.98654132033750
C        -0.67764893126081   -0.01578405159622    0.61799489719568
O        -1.68477881838458    0.81514507061055    1.10439143322847
C        -2.18271240978164    1.73669828596917    0.25896577020912
C        -3.34429620838893    2.45331014320433    0.89224558308130
O        -1.73839235838586    1.95634161444370   -0.83421667748902
C         0.58287850684128    0.04986106787491    1.17374983794112
H         4.06007756928089    1.97578055378765   -0.73812539309570
H         2.40982974368152    1.18427025976426   -0.73276417233633
H         4.82049534012374    0.49070751047251    1.01965221044021
H         3.51412864492625   -1.61312720509346    1.16995797675463
H         2.93102873097302   -0.44704487171857    2.35605255514723
H         2.10720242490091   -2.28644599325047   -0.70850954541605
H        -0.11753933060079   -2.42374396182895   -1.68623844372965
H        -3.60442125801829   -1.52158074110985   -2.21008315901611
H        -1.94663306212127   -1.45909246536250   -2.85529731424847
H        -2.43262143720489   -2.78562634429480   -1.75718440571584
H        -4.16987029378348    1.75464913599505    1.00748746037997
H        -3.64925421040975    3.28216553157952    0.26118664788568
H        -3.06049897097868    2.81150613941998    1.87833939066145
H         0.76264889383253    0.76100007191352    1.96604974363911
29
 energy: -45.010318000725 gnorm: 0.001263213421 xtb: 6.3.3 (4ae9cef)
C         3.41260449863190    1.22709551696787   -0.32011112307208
C         3.81719758124192    0.41406847653386    0.63599498477322
C         2.98886724904503   -0.66338700982124    1.28355257841154
C         1.60675683408730   -0.77170129565702    0.71025696583687
C         1.32526759777574   -1.64980089462374   -0.32368342387438
C         0.06026436165957   -1.72734405844610   -0.88198761212651
C        -0.96562021964507   -0.91348987727002   -0.41886356534739
O        -2.24856672939255   -0.91963914621413   -0.86691420988285
C        -2.56184483731044   -1.71639733825272   -1.98269851647512
C        -0.67345502392083   -0.01150329482459    0.61557392781838
O        -1.67997878699775    0.82090681995701    1.10159542540749
C        -2.18819161905486    1.73375542922948    0.25271264380041
C        -3.34991925161787    2.44792122020102    0.88947382262426
O        -1.75220699734927    1.95224305406414   -0.84308341800908
C         0.58778240183931    0.05490040599513    1.16969492404533
H         4.06549018791167    1.97666090112296   -0.73405332352994
H         2.41728196104963    1.18219731897234   -0.72863302853002
H         4.82535838620678    0.48800846530035    1.02485679840571
H         3.51564188378195   -1.61532948092598    1.16824712896480
H         2.93212944258506   -0.45094098733760    2.35558957204894
H         2.10719711315318   -2.28825705209533   -0.70827411887784
H        -0.11914820733660   -2.42635302832049   -1.68306176144390
H        -3.60845701608376   -1.51374292992463   -2.20353540934484
H        -1.95093747083956   -1.44670414204973   -2.84922747833850
H        -2.43742327908460   -2.78211395341225   -1.76183860831251