29
 energy: -45.010336303467 gnorm: 0.000691600438 xtb: 6.3.3 (4ae9cef)
C         3.42760377281548    1.22789496949132   -0.31573881664751
C         3.82575671247473    0.41082435733654    0.63991442401925
C         2.99414437407478   -0.66718540444963    1.28017449438376
C         1.61176676410547   -0.77044396077655    0.70614121520309
C         1.32317790988913   -1.65453103383959   -0.32061401293366
C         0.05618001982992   -1.72964054291408   -0.87535594865423
C        -0.96357945792736   -0.90693408126509   -0.41558065923061
O        -2.24873390603275   -0.91279685485973   -0.85877797787283
C        -2.56515270843676   -1.70393507778418   -1.97714788336100
C        -0.66465120362372    0.00148007743339    0.61063043985058
O        -1.66573333062898    0.83953336318159    1.09691994439660
C        -2.19823212771604    1.73238625935886    0.24208892168979
C        -3.36237094640735    2.43654138880487    0.88644240762079
O        -1.78209959668317    1.93799971930728   -0.86372139147327
C         0.59801074622406    0.06510183756107    1.16137988860423
H         4.08242019159045    1.97842491778604   -0.72451731493798
H         2.43357650499388    1.18424578685029   -0.72840252945209
H         4.83230609627433    0.48246081733954    1.03377020532851
H         3.51830245697478   -1.62004098586305    1.16127294276145
H         2.93581726440360   -0.45943930867912    2.35304714944384
H         2.09994468233977   -2.30111829858714   -0.70191830520906
H        -0.12749112286048   -2.43512178913871   -1.66989561140694
H        -3.61252155584445   -1.49993456935981   -2.19318221626120
H        -1.95660814473173   -1.42935046885424   -2.84380382674562
H        -2.44042179901427   -2.77052736834915   -1.76268401846992
H        -4.18214737456130    1.72916566832846    0.98983921794036
H        -3.67440588640154    3.27077346086734    0.26636671061411
H        -3.08236167970186    2.78194105606575    1.87790723446093
H         0.78750334458109    0.78222506500752    1.94544231633903
