      -----------------------------------------------------------      
     |                   =====================                   |     
     |                           x T B                           |     
     |                   =====================                   |     
     |                         S. Grimme                         |     
     |          Mulliken Center for Theoretical Chemistry        |     
     |                    University of Bonn                     |     
      -----------------------------------------------------------      

   * xtb version 6.3.3 (4ae9cef) compiled by 'conda@95abc7406d43' on 2020-10-14

   xtb is free software: you can redistribute it and/or modify it under
   the terms of the GNU Lesser General Public License as published by
   the Free Software Foundation, either version 3 of the License, or
   (at your option) any later version.
   
   xtb is distributed in the hope that it will be useful,
   but WITHOUT ANY WARRANTY; without even the implied warranty of
   MERCHANTABILITY or FITNESS FOR A PARTICULAR PURPOSE.  See the
   GNU Lesser General Public License for more details.
   
   Cite this work as:
   * C. Bannwarth, E. Caldeweyher, S. Ehlert, A. Hansen, P. Pracht,
     J. Seibert, S. Spicher, S. Grimme, WIREs Comput. Mol. Sci., 2020,
     e01493. DOI: 10.1002/wcms.1493
   
   for GFN2-xTB:
   * S. Grimme, C. Bannwarth, P. Shushkov, J. Chem. Theory Comput., 2017,
     13, 1989-2009. DOI: 10.1021/acs.jctc.7b00118
   for GFN1-xTB:
   * C. Bannwarth, S. Ehlert and S. Grimme., J. Chem. Theory Comput., 2019,
     15, 1652-1671. DOI: 10.1021/acs.jctc.8b01176
   for GFN0-xTB:
   * P. Pracht, E. Caldeweyher, S. Ehlert, S. Grimme, ChemRxiv, 2019, preprint.
     DOI: 10.26434/chemrxiv.8326202.v1
   for GFN-FF:
   * S. Spicher and S. Grimme, Angew. Chem. Int. Ed., 2020, 59, 15665-15673.
     DOI: 10.1002/anie.202004239
   
   for DFT-D4:
   * E. Caldeweyher, C. Bannwarth and S. Grimme, J. Chem. Phys., 2017,
     147, 034112. DOI: 10.1063/1.4993215
   * E. Caldeweyher, S. Ehlert, A. Hansen, H. Neugebauer, S. Spicher,
     C. Bannwarth and S. Grimme, J. Chem. Phys., 2019, 150, 154122.
     DOI: 10.1063/1.5090222
   * E. Caldeweyher, J.-M. Mewes, S. Ehlert and S. Grimme, Phys. Chem. Chem. Phys.
     2020, 22, 8499-8512. DOI: 10.1039/D0CP00502A
   
   for sTDA-xTB:
   * S. Grimme and C. Bannwarth, J. Chem. Phys., 2016, 145, 054103.
     DOI: 10.1063/1.4959605
   
   in the mass-spec context:
   * V. Asgeirsson, C. Bauer and S. Grimme, Chem. Sci., 2017, 8, 4879.
     DOI: 10.1039/c7sc00601b
   * J. Koopman and S. Grimme, ACS Omega 2019, 4, 12, 15120-15133.
     DOI: 10.1021/acsomega.9b02011
   
   for metadynamics refer to:
   * S. Grimme, J. Chem. Theory Comput., 2019, 155, 2847-2862
     DOI: 10.1021/acs.jctc.9b00143
   
   with help from (in alphabetical order)
   C. Bannwarth, F. Bohle, G. Brandenburg, E. Caldeweyher, M. Checinski,
   S. Dohm, S. Ehlert, S. Ehrlich, F. März, H. Neugebauer, J. Pisarek,
   P. Pracht, P. Shushkov, and S. Spicher.
   
 * started run on 2022/03/16 at 23:55:48.477     

           -------------------------------------------------
          |                Calculation Setup                |
           -------------------------------------------------

          program call               : xtb acid_333.xyz --opt --chrg 0 --uhf 0 --gfn 2
          coordinate file            : acid_333.xyz
          omp threads                :                    64
          number of atoms            :                    74
          number of electrons        :                   254
          charge                     :                     0
          spin                       :                   0.0
          first test random number   :      0.17208318689638

   ID    Z sym.   atoms
    1    6 C      1, 3-16, 18, 20-23, 28-30, 32, 33, 37-40, 45-47
    2    8 O      2, 17, 27, 31, 34, 35, 44, 48
    3    7 N      19, 36
    4    9 F      24-26, 41-43
    5    1 H      49-74

           -------------------------------------------------
          |                 G F N 2 - x T B                 |
           -------------------------------------------------

        Reference                      10.1021/acs.jctc.8b01176
      * Hamiltonian:
        H0-scaling (s, p, d)           1.850000    2.230000    2.230000
        zeta-weighting                 0.500000
      * Dispersion:
        s8                             2.700000
        a1                             0.520000
        a2                             5.000000
        s9                             5.000000
      * Repulsion:
        kExp                           1.500000    1.000000
        rExp                           1.000000
      * Coulomb:
        alpha                          2.000000
        third order                    shell-resolved
        anisotropic                    true
        a3                             3.000000
        a5                             4.000000
        cn-shift                       1.200000
        cn-exp                         4.000000
        max-rad                        5.000000


          ...................................................
          :                      SETUP                      :
          :.................................................:
          :  # basis functions                 218          :
          :  # atomic orbitals                 218          :
          :  # shells                          122          :
          :  # electrons                       254          :
          :  max. iterations                   250          :
          :  Hamiltonian                  GFN2-xTB          :
          :  restarted?                      false          :
          :  GBSA solvation                  false          :
          :  PC potential                    false          :
          :  electronic temp.          300.0000000     K    :
          :  accuracy                    1.0000000          :
          :  -> integral cutoff          0.2500000E+02      :
          :  -> integral neglect         0.1000000E-07      :
          :  -> SCF convergence          0.1000000E-05 Eh   :
          :  -> wf. convergence          0.1000000E-03 e    :
          :  Broyden damping             0.4000000          :
          ...................................................

 iter      E             dE          RMSdq      gap      omega  full diag
   1   -149.8098186 -0.149810E+03  0.467E+00    3.03       0.0  T
   2   -150.0549018 -0.245083E+00  0.271E+00    3.05       1.0  T
   3   -150.0552984 -0.396597E-03  0.136E+00    2.80       1.0  T
   4   -150.0805976 -0.252991E-01  0.434E-01    2.53       1.0  T
   5   -150.0912418 -0.106442E-01  0.113E-01    2.53       1.0  T
   6   -150.0915447 -0.302922E-03  0.556E-02    2.55       1.0  T
   7   -150.0916335 -0.888710E-04  0.235E-02    2.57       1.0  T
   8   -150.0916442 -0.106616E-04  0.103E-02    2.57       1.1  T
   9   -150.0916479 -0.367863E-05  0.434E-03    2.57       2.7  T
  10   -150.0916481 -0.227418E-06  0.164E-03    2.57       7.1  T
  11   -150.0916482 -0.843935E-07  0.758E-04    2.57      15.3  T
  12   -150.0916482 -0.152509E-07  0.318E-04    2.57      36.5  T

   *** convergence criteria satisfied after 12 iterations ***

         #    Occupation            Energy/Eh            Energy/eV
      -------------------------------------------------------------
         1        2.0000           -0.8735169             -23.7696
       ...           ...                  ...                  ...
       121        2.0000           -0.4174390             -11.3591
       122        2.0000           -0.4142901             -11.2734
       123        2.0000           -0.4093159             -11.1381
       124        2.0000           -0.4055414             -11.0353
       125        2.0000           -0.3982672             -10.8374
       126        2.0000           -0.3958014             -10.7703
       127        2.0000           -0.3804016             -10.3513 (HOMO)
       128                         -0.2859869              -7.7821 (LUMO)
       129                         -0.2797907              -7.6135
       130                         -0.2746440              -7.4734
       131                         -0.2522226              -6.8633
       132                         -0.2420257              -6.5859
       ...                                ...                  ...
       218                          0.6314005              17.1813
      -------------------------------------------------------------
                  HL-Gap            0.0944147 Eh            2.5692 eV
             Fermi-level           -0.3331942 Eh           -9.0667 eV

 SCC (total)                   0 d,  0 h,  0 min,  0.582 sec
 SCC setup                      ...        0 min,  0.010 sec (  1.756%)
 Dispersion                     ...        0 min,  0.013 sec (  2.170%)
 classical contributions        ...        0 min,  0.010 sec (  1.733%)
 integral evaluation            ...        0 min,  0.105 sec ( 18.053%)
 iterations                     ...        0 min,  0.292 sec ( 50.191%)
 molecular gradient             ...        0 min,  0.146 sec ( 25.031%)
 printout                       ...        0 min,  0.006 sec (  1.050%)

         :::::::::::::::::::::::::::::::::::::::::::::::::::::
         ::                     SUMMARY                     ::
         :::::::::::::::::::::::::::::::::::::::::::::::::::::
         :: total energy            -148.601693451871 Eh    ::
         :: gradient norm              0.117922445268 Eh/a0 ::
         :: HOMO-LUMO gap              2.569153416639 eV    ::
         ::.................................................::
         :: SCC energy              -150.091648213249 Eh    ::
         :: -> isotropic ES            0.251761124672 Eh    ::
         :: -> anisotropic ES          0.004255995207 Eh    ::
         :: -> anisotropic XC         -0.009079048110 Eh    ::
         :: -> dispersion             -0.099662073895 Eh    ::
         :: repulsion energy           1.485714927907 Eh    ::
         :: add. restraining           0.000000000000 Eh    ::
         :: total charge               0.000000000000 e     ::
         :::::::::::::::::::::::::::::::::::::::::::::::::::::

      ----------------------------------------------------------- 
     |                   =====================                   |
     |                        A N C O P T                        |
     |                   =====================                   |
     |               Approximate Normal Coordinate               |
     |                Rational Function Optimizer                |
      ----------------------------------------------------------- 

          ...................................................
          :                      SETUP                      :
          :.................................................:
          :   optimization level            normal          :
          :   max. optcycles                   222          :
          :   ANC micro-cycles                  20          :
          :   degrees of freedom               216          :
          :.................................................:
          :   RF solver                   davidson          :
          :   write xtbopt.log                true          :
          :   linear?                        false          :
          :   energy convergence         0.5000000E-05 Eh   :
          :   grad. convergence          0.1000000E-02 Eh/α :
          :   maximium RF displ.         1.0000000          :
          :   Hlow (freq-cutoff)         0.1000000E-01      :
          :   Hmax (freq-cutoff)         5.0000000          :
          :   S6 in model hess.         20.0000000          :
          ...................................................

generating ANC from model Hessian ...
Using Lindh-Hessian (1995)
 Shifting diagonal of input Hessian by    9.8559923516191410E-003
 Lowest  eigenvalues of input Hessian
    0.000000    0.000000    0.000000    0.000000    0.000000    0.000000
    0.010000    0.010040    0.010184    0.010232    0.010256    0.010335
    0.010374    0.010409    0.010598    0.011197    0.011395    0.011652
 Highest eigenvalues
    1.999739    2.010877    2.016779    2.205929    2.267966    2.270591


........................................................................
.............................. CYCLE    1 ..............................
........................................................................
   1   -150.0916482 -0.150092E+03  0.138E-04    2.57       0.0  T
   2   -150.0916482 -0.224759E-09  0.903E-05    2.57     128.8  T
   3   -150.0916482 -0.122981E-09  0.608E-05    2.57     191.0  T
     SCC iter.                  ...        0 min,  0.075 sec
     gradient                   ...        0 min,  0.151 sec
 * total energy  :  -148.6016935 Eh     change       -0.2215501E-08 Eh
   gradient norm :     0.1179270 Eh/α   predicted     0.0000000E+00 (-100.00%)
   displ. norm   :     0.3745096 α      lambda       -0.2290647E-01
   maximum displ.:     0.1275600 α      in ANC's #48, #20, #105, ...

........................................................................
.............................. CYCLE    2 ..............................
........................................................................
   1   -150.1711539 -0.150171E+03  0.179E-01    2.72       0.0  T
   2   -150.1713325 -0.178679E-03  0.112E-01    2.72       1.0  T
   3   -150.1712671  0.654452E-04  0.648E-02    2.72       1.0  T
   4   -150.1714259 -0.158802E-03  0.115E-02    2.72       1.0  T
   5   -150.1714328 -0.695757E-05  0.347E-03    2.72       3.4  T
   6   -150.1714332 -0.310414E-06  0.210E-03    2.72       5.5  T
   7   -150.1714332 -0.630999E-07  0.810E-04    2.72      14.4  T
   8   -150.1714332 -0.257212E-07  0.261E-04    2.72      44.6  T
     SCC iter.                  ...        0 min,  0.195 sec
     gradient                   ...        0 min,  0.143 sec
 * total energy  :  -148.6174645 Eh     change       -0.1577102E-01 Eh
   gradient norm :     0.0515253 Eh/α   predicted    -0.1305964E-01 ( -17.19%)
   displ. norm   :     0.4335629 α      lambda       -0.1006207E-01
   maximum displ.:     0.1464652 α      in ANC's #20, #24, #21, ...

........................................................................
.............................. CYCLE    3 ..............................
........................................................................
   1   -150.2224467 -0.150222E+03  0.160E-01    2.86       0.0  T
   2   -150.2226822 -0.235485E-03  0.101E-01    2.86       1.0  T
   3   -150.2226910 -0.881058E-05  0.549E-02    2.87       1.0  T
   4   -150.2227566 -0.656081E-04  0.132E-02    2.86       1.0  T
   5   -150.2227658 -0.920061E-05  0.321E-03    2.86       3.6  T
   6   -150.2227660 -0.235765E-06  0.189E-03    2.86       6.2  T
   7   -150.2227661 -0.442470E-07  0.796E-04    2.86      14.6  T
   8   -150.2227661 -0.237859E-07  0.294E-04    2.86      39.5  T
     SCC iter.                  ...        0 min,  0.197 sec
     gradient                   ...        0 min,  0.133 sec
 * total energy  :  -148.6233163 Eh     change       -0.5851857E-02 Eh
   gradient norm :     0.0217118 Eh/α   predicted    -0.5976761E-02 (   2.13%)
   displ. norm   :     0.3858683 α      lambda       -0.3258072E-02
   maximum displ.:     0.1427609 α      in ANC's #20, #21, #24, ...

........................................................................
.............................. CYCLE    4 ..............................
........................................................................
   1   -150.2249220 -0.150225E+03  0.123E-01    2.90       0.0  T
   2   -150.2250022 -0.802352E-04  0.758E-02    2.91       1.0  T
   3   -150.2249811  0.211396E-04  0.302E-02    2.91       1.0  T
   4   -150.2250172 -0.361222E-04  0.701E-03    2.91       1.7  T
   5   -150.2250213 -0.408308E-05  0.228E-03    2.91       5.1  T
   6   -150.2250214 -0.923549E-07  0.122E-03    2.91       9.5  T
   7   -150.2250214 -0.186755E-07  0.472E-04    2.91      24.6  T
   8   -150.2250214 -0.677463E-08  0.185E-04    2.91      63.0  T
     SCC iter.                  ...        0 min,  0.195 sec
     gradient                   ...        0 min,  0.138 sec
 * total energy  :  -148.6256640 Eh     change       -0.2347688E-02 Eh
   gradient norm :     0.0188015 Eh/α   predicted    -0.1871590E-02 ( -20.28%)
   displ. norm   :     0.4925456 α      lambda       -0.2659910E-02
   maximum displ.:     0.1846932 α      in ANC's #21, #20, #24, ...

........................................................................
.............................. CYCLE    5 ..............................
........................................................................
   1   -150.2219498 -0.150222E+03  0.142E-01    2.95       0.0  T
   2   -150.2220349 -0.851105E-04  0.857E-02    2.96       1.0  T
   3   -150.2219928  0.421326E-04  0.373E-02    2.96       1.0  T
   4   -150.2220528 -0.599608E-04  0.977E-03    2.96       1.2  T
   5   -150.2220604 -0.766289E-05  0.261E-03    2.96       4.5  T
   6   -150.2220605 -0.703947E-07  0.142E-03    2.96       8.2  T
   7   -150.2220605 -0.260887E-07  0.490E-04    2.96      23.7  T
   8   -150.2220605 -0.472340E-08  0.211E-04    2.96      55.1  T
     SCC iter.                  ...        0 min,  0.201 sec
     gradient                   ...        0 min,  0.112 sec
 * total energy  :  -148.6277389 Eh     change       -0.2074917E-02 Eh
   gradient norm :     0.0203074 Eh/α   predicted    -0.1652613E-02 ( -20.35%)
   displ. norm   :     0.5408465 α      lambda       -0.2372457E-02
   maximum displ.:     0.1951223 α      in ANC's #21, #12, #11, ...

........................................................................
.............................. CYCLE    6 ..............................
........................................................................
   1   -150.2205165 -0.150221E+03  0.148E-01    3.00       0.0  T
   2   -150.2205742 -0.576797E-04  0.884E-02    2.99       1.0  T
   3   -150.2205024  0.718154E-04  0.424E-02    2.99       1.0  T
   4   -150.2205975 -0.951098E-04  0.816E-03    2.99       1.4  T
   5   -150.2206014 -0.390993E-05  0.270E-03    2.99       4.3  T
   6   -150.2206015 -0.464440E-07  0.144E-03    2.99       8.1  T
   7   -150.2206015 -0.316334E-07  0.530E-04    2.99      21.9  T
   8   -150.2206015 -0.537531E-08  0.213E-04    2.99      54.6  T
     SCC iter.                  ...        0 min,  0.195 sec
     gradient                   ...        0 min,  0.143 sec
 * total energy  :  -148.6295764 Eh     change       -0.1837476E-02 Eh
   gradient norm :     0.0177074 Eh/α   predicted    -0.1533220E-02 ( -16.56%)
   displ. norm   :     0.5378733 α      lambda       -0.1903314E-02
   maximum displ.:     0.1766751 α      in ANC's #11, #21, #9, ...

........................................................................
.............................. CYCLE    7 ..............................
........................................................................
   1   -150.2228256 -0.150223E+03  0.143E-01    3.02       0.0  T
   2   -150.2228874 -0.618412E-04  0.851E-02    3.01       1.0  T
   3   -150.2228256  0.618378E-04  0.424E-02    3.01       1.0  T
   4   -150.2229105 -0.849628E-04  0.848E-03    3.01       1.4  T
   5   -150.2229148 -0.430083E-05  0.258E-03    3.01       4.5  T
   6   -150.2229149 -0.344218E-07  0.140E-03    3.01       8.3  T
   7   -150.2229149 -0.341690E-07  0.519E-04    3.01      22.4  T
   8   -150.2229149 -0.505091E-08  0.216E-04    3.01      53.9  T
     SCC iter.                  ...        0 min,  0.199 sec
     gradient                   ...        0 min,  0.139 sec
 * total energy  :  -148.6310877 Eh     change       -0.1511275E-02 Eh
   gradient norm :     0.0178958 Eh/α   predicted    -0.1226984E-02 ( -18.81%)
   displ. norm   :     0.5651698 α      lambda       -0.1842829E-02
   maximum displ.:     0.2222879 α      in ANC's #13, #11, #9, ...

........................................................................
.............................. CYCLE    8 ..............................
........................................................................
   1   -150.2303591 -0.150230E+03  0.142E-01    3.03       0.0  T
   2   -150.2303879 -0.288159E-04  0.842E-02    3.02       1.0  T
   3   -150.2303177  0.702351E-04  0.383E-02    3.02       1.0  T
   4   -150.2304049 -0.871727E-04  0.516E-03    3.02       2.3  T
   5   -150.2304056 -0.769238E-06  0.251E-03    3.02       4.6  T
   6   -150.2304057 -0.835925E-07  0.121E-03    3.02       9.6  T
   7   -150.2304057 -0.109221E-07  0.550E-04    3.02      21.1  T
   8   -150.2304057 -0.107541E-07  0.172E-04    3.02      67.6  T
     SCC iter.                  ...        0 min,  0.200 sec
     gradient                   ...        0 min,  0.134 sec
 * total energy  :  -148.6324503 Eh     change       -0.1362581E-02 Eh
   gradient norm :     0.0153867 Eh/α   predicted    -0.1215744E-02 ( -10.78%)
   displ. norm   :     0.6805344 α      lambda       -0.1980816E-02
   maximum displ.:     0.2965734 α      in ANC's #13, #11, #9, ...

........................................................................
.............................. CYCLE    9 ..............................
........................................................................
   1   -150.2292305 -0.150229E+03  0.182E-01    3.05       0.0  T
   2   -150.2294765 -0.245966E-03  0.108E-01    3.03       1.0  T
   3   -150.2294610  0.155052E-04  0.509E-02    3.03       1.0  T
   4   -150.2295043 -0.433224E-04  0.150E-02    3.03       1.0  T
   5   -150.2295217 -0.174293E-04  0.342E-03    3.03       3.4  T
   6   -150.2295219 -0.200226E-06  0.181E-03    3.03       6.4  T
   7   -150.2295220 -0.476288E-07  0.767E-04    3.03      15.2  T
   8   -150.2295220 -0.567624E-08  0.313E-04    3.03      37.1  T
     SCC iter.                  ...        0 min,  0.201 sec
     gradient                   ...        0 min,  0.155 sec
 * total energy  :  -148.6334924 Eh     change       -0.1042126E-02 Eh
   gradient norm :     0.0317826 Eh/α   predicted    -0.1449096E-02 (  39.05%)
   displ. norm   :     0.3766371 α      lambda       -0.1468590E-02
   maximum displ.:     0.2039743 α      in ANC's #13, #11, #9, ...

........................................................................
.............................. CYCLE   10 ..............................
........................................................................
   1   -150.2365405 -0.150237E+03  0.835E-02    3.06       0.0  T
   2   -150.2365752 -0.346826E-04  0.498E-02    3.06       1.0  T
   3   -150.2365724  0.276182E-05  0.169E-02    3.06       1.0  T
   4   -150.2365786 -0.617365E-05  0.359E-03    3.06       3.2  T
   5   -150.2365792 -0.613799E-06  0.158E-03    3.06       7.4  T
   6   -150.2365793 -0.617334E-07  0.763E-04    3.06      15.2  T
   7   -150.2365793 -0.671429E-08  0.313E-04    3.06      37.1  T
     SCC iter.                  ...        0 min,  0.171 sec
     gradient                   ...        0 min,  0.152 sec
 * total energy  :  -148.6346269 Eh     change       -0.1134513E-02 Eh
   gradient norm :     0.0116889 Eh/α   predicted    -0.8384651E-03 ( -26.09%)
   displ. norm   :     0.6690747 α      lambda       -0.1346854E-02
   maximum displ.:     0.3595684 α      in ANC's #13, #11, #9, ...

........................................................................
.............................. CYCLE   11 ..............................
........................................................................
   1   -150.2339293 -0.150234E+03  0.143E-01    3.05       0.0  T
   2   -150.2339488 -0.195292E-04  0.849E-02    3.06       1.0  T
   3   -150.2339359  0.129704E-04  0.172E-02    3.05       1.0  T
   4   -150.2339532 -0.173183E-04  0.448E-03    3.06       2.6  T
   5   -150.2339539 -0.698247E-06  0.218E-03    3.06       5.3  T
   6   -150.2339539 -0.560389E-07  0.101E-03    3.06      11.6  T
   7   -150.2339539 -0.990323E-08  0.341E-04    3.06      34.1  T
   8   -150.2339539 -0.298783E-08  0.137E-04    3.06      84.9  T
     SCC iter.                  ...        0 min,  0.196 sec
     gradient                   ...        0 min,  0.121 sec
 * total energy  :  -148.6356469 Eh     change       -0.1020020E-02 Eh
   gradient norm :     0.0125263 Eh/α   predicted    -0.9749000E-03 (  -4.42%)
   displ. norm   :     0.6577811 α      lambda       -0.1370578E-02
   maximum displ.:     0.3421317 α      in ANC's #13, #11, #9, ...

........................................................................
.............................. CYCLE   12 ..............................
........................................................................
   1   -150.2410334 -0.150241E+03  0.123E-01    3.13       0.0  T
   2   -150.2410502 -0.168394E-04  0.725E-02    3.12       1.0  T
   3   -150.2410322  0.180573E-04  0.193E-02    3.13       1.0  T
   4   -150.2410554 -0.231819E-04  0.379E-03    3.12       3.1  T
   5   -150.2410558 -0.478673E-06  0.192E-03    3.12       6.0  T
   6   -150.2410559 -0.487956E-07  0.913E-04    3.13      12.7  T
   7   -150.2410559 -0.778837E-08  0.297E-04    3.13      39.1  T
     SCC iter.                  ...        0 min,  0.177 sec
     gradient                   ...        0 min,  0.165 sec
 * total energy  :  -148.6364593 Eh     change       -0.8123837E-03 Eh
   gradient norm :     0.0169335 Eh/α   predicted    -0.9818045E-03 (  20.85%)
   displ. norm   :     0.6396023 α      lambda       -0.1057535E-02
   maximum displ.:     0.3378513 α      in ANC's #13, #11, #9, ...

........................................................................
.............................. CYCLE   13 ..............................
........................................................................
   1   -150.2324873 -0.150232E+03  0.131E-01    3.15       0.0  T
   2   -150.2325222 -0.348808E-04  0.775E-02    3.13       1.0  T
   3   -150.2324978  0.243954E-04  0.250E-02    3.14       1.0  T
   4   -150.2325292 -0.314181E-04  0.616E-03    3.13       1.9  T
   5   -150.2325315 -0.223384E-05  0.228E-03    3.13       5.1  T
   6   -150.2325315 -0.371772E-07  0.113E-03    3.13      10.3  T
   7   -150.2325315 -0.234215E-07  0.349E-04    3.13      33.3  T
   8   -150.2325315 -0.350695E-08  0.159E-04    3.13      73.2  T
     SCC iter.                  ...        0 min,  0.196 sec
     gradient                   ...        0 min,  0.132 sec
 * total energy  :  -148.6371503 Eh     change       -0.6910206E-03 Eh
   gradient norm :     0.0136019 Eh/α   predicted    -0.7450845E-03 (   7.82%)
   displ. norm   :     0.4742301 α      lambda       -0.8428949E-03
   maximum displ.:     0.2206591 α      in ANC's #13, #11, #2, ...

........................................................................
.............................. CYCLE   14 ..............................
........................................................................
   1   -150.2366598 -0.150237E+03  0.797E-02    3.05       0.0  T
   2   -150.2366808 -0.209979E-04  0.475E-02    3.07       1.0  T
   3   -150.2366708  0.996590E-05  0.171E-02    3.07       1.0  T
   4   -150.2366841 -0.132709E-04  0.416E-03    3.07       2.8  T
   5   -150.2366851 -0.975897E-06  0.150E-03    3.07       7.7  T
   6   -150.2366851 -0.464994E-07  0.803E-04    3.07      14.5  T
   7   -150.2366851 -0.434551E-08  0.285E-04    3.07      40.7  T
     SCC iter.                  ...        0 min,  0.172 sec
     gradient                   ...        0 min,  0.126 sec
 * total energy  :  -148.6376136 Eh     change       -0.4632806E-03 Eh
   gradient norm :     0.0183424 Eh/α   predicted    -0.5162299E-03 (  11.43%)
   displ. norm   :     0.4465044 α      lambda       -0.8060873E-03
   maximum displ.:     0.1983760 α      in ANC's #13, #2, #9, ...

........................................................................
.............................. CYCLE   15 ..............................
........................................................................
   1   -150.2428102 -0.150243E+03  0.700E-02    3.18       0.0  T
   2   -150.2428356 -0.253658E-04  0.418E-02    3.16       1.0  T
   3   -150.2428307  0.483383E-05  0.194E-02    3.16       1.0  T
   4   -150.2428417 -0.109114E-04  0.385E-03    3.15       3.0  T
   5   -150.2428425 -0.808672E-06  0.136E-03    3.15       8.6  T
   6   -150.2428425 -0.333740E-07  0.610E-04    3.16      19.1  T
   7   -150.2428425 -0.231751E-08  0.243E-04    3.16      47.8  T
     SCC iter.                  ...        0 min,  0.177 sec
     gradient                   ...        0 min,  0.139 sec
 * total energy  :  -148.6381157 Eh     change       -0.5021048E-03 Eh
   gradient norm :     0.0134760 Eh/α   predicted    -0.4834038E-03 (  -3.72%)
   displ. norm   :     0.5481591 α      lambda       -0.7578484E-03
   maximum displ.:     0.2143755 α      in ANC's #13, #2, #18, ...

........................................................................
.............................. CYCLE   16 ..............................
........................................................................
   1   -150.2365721 -0.150237E+03  0.956E-02    3.12       0.0  T
   2   -150.2365994 -0.273632E-04  0.569E-02    3.12       1.0  T
   3   -150.2365774  0.220288E-04  0.248E-02    3.12       1.0  T
   4   -150.2366077 -0.303307E-04  0.513E-03    3.12       2.3  T
   5   -150.2366093 -0.152680E-05  0.189E-03    3.12       6.1  T
   6   -150.2366093 -0.427191E-07  0.967E-04    3.12      12.0  T
   7   -150.2366093 -0.105411E-07  0.367E-04    3.12      31.7  T
     SCC iter.                  ...        0 min,  0.172 sec
     gradient                   ...        0 min,  0.025 sec
 * total energy  :  -148.6384706 Eh     change       -0.3549193E-03 Eh
   gradient norm :     0.0180136 Eh/α   predicted    -0.4927872E-03 (  38.84%)
   displ. norm   :     0.3691628 α      lambda       -0.6268008E-03
   maximum displ.:     0.1589803 α      in ANC's #2, #13, #9, ...

........................................................................
.............................. CYCLE   17 ..............................
........................................................................
   1   -150.2413413 -0.150241E+03  0.589E-02    3.15       0.0  T
   2   -150.2413635 -0.222827E-04  0.340E-02    3.14       1.0  T
   3   -150.2413624  0.115683E-05  0.146E-02    3.14       1.0  T
   4   -150.2413654 -0.306473E-05  0.374E-03    3.13       3.1  T
   5   -150.2413664 -0.989392E-06  0.119E-03    3.14       9.8  T
   6   -150.2413665 -0.313414E-07  0.599E-04    3.14      19.4  T
   7   -150.2413665 -0.510749E-08  0.255E-04    3.14      45.7  T
     SCC iter.                  ...        0 min,  0.171 sec
     gradient                   ...        0 min,  0.137 sec
 * total energy  :  -148.6388848 Eh     change       -0.4141186E-03 Eh
   gradient norm :     0.0125755 Eh/α   predicted    -0.3561136E-03 ( -14.01%)
   displ. norm   :     0.4401304 α      lambda       -0.6165085E-03
   maximum displ.:     0.2041385 α      in ANC's #2, #18, #9, ...

........................................................................
.............................. CYCLE   18 ..............................
........................................................................
   1   -150.2462616 -0.150246E+03  0.626E-02    3.12       0.0  T
   2   -150.2462743 -0.127905E-04  0.370E-02    3.13       1.0  T
   3   -150.2462684  0.599218E-05  0.135E-02    3.13       1.0  T
   4   -150.2462763 -0.791281E-05  0.337E-03    3.13       3.4  T
   5   -150.2462770 -0.765812E-06  0.123E-03    3.13       9.5  T
   6   -150.2462771 -0.276464E-07  0.650E-04    3.13      17.9  T
   7   -150.2462771 -0.299366E-08  0.206E-04    3.13      56.4  T
     SCC iter.                  ...        0 min,  0.174 sec
     gradient                   ...        0 min,  0.124 sec
 * total energy  :  -148.6392813 Eh     change       -0.3965561E-03 Eh
   gradient norm :     0.0087102 Eh/α   predicted    -0.3679757E-03 (  -7.21%)
   displ. norm   :     0.5964671 α      lambda       -0.5580784E-03
   maximum displ.:     0.2712354 α      in ANC's #2, #9, #18, ...

........................................................................
.............................. CYCLE   19 ..............................
........................................................................
   1   -150.2410798 -0.150241E+03  0.899E-02    3.11       0.0  T
   2   -150.2410891 -0.929704E-05  0.533E-02    3.11       1.0  T
   3   -150.2410855  0.355652E-05  0.105E-02    3.10       1.1  T
   4   -150.2410914 -0.590536E-05  0.295E-03    3.11       3.9  T
   5   -150.2410917 -0.252301E-06  0.164E-03    3.11       7.1  T
   6   -150.2410917 -0.375611E-07  0.664E-04    3.11      17.5  T
   7   -150.2410917 -0.105080E-07  0.240E-04    3.11      48.3  T
     SCC iter.                  ...        0 min,  0.180 sec
     gradient                   ...        0 min,  0.124 sec
 * total energy  :  -148.6396625 Eh     change       -0.3811686E-03 Eh
   gradient norm :     0.0114887 Eh/α   predicted    -0.3783155E-03 (  -0.75%)
   displ. norm   :     0.5022842 α      lambda       -0.6643698E-03
   maximum displ.:     0.2456042 α      in ANC's #2, #18, #1, ...

........................................................................
.............................. CYCLE   20 ..............................
........................................................................
   1   -150.2474559 -0.150247E+03  0.789E-02    3.10       0.0  T
   2   -150.2474808 -0.248778E-04  0.473E-02    3.10       1.0  T
   3   -150.2474646  0.161605E-04  0.212E-02    3.10       1.0  T
   4   -150.2474881 -0.234664E-04  0.449E-03    3.10       2.6  T
   5   -150.2474895 -0.143227E-05  0.154E-03    3.10       7.5  T
   6   -150.2474895 -0.312078E-07  0.799E-04    3.10      14.6  T
   7   -150.2474895 -0.842297E-08  0.334E-04    3.10      34.8  T
     SCC iter.                  ...        0 min,  0.176 sec
     gradient                   ...        0 min,  0.136 sec
 * total energy  :  -148.6400562 Eh     change       -0.3937468E-03 Eh
   gradient norm :     0.0129009 Eh/α   predicted    -0.4159930E-03 (   5.65%)
   displ. norm   :     0.5341768 α      lambda       -0.5393184E-03
   maximum displ.:     0.2807345 α      in ANC's #2, #9, #1, ...
 * RMSD in coord.:     0.9658105 α      energy gain  -0.3836277E-01 Eh

generating ANC from model Hessian ...
Using Lindh-Hessian (1995)
 Shifting diagonal of input Hessian by    9.8436311961494598E-003
 Lowest  eigenvalues of input Hessian
    0.000000    0.000000    0.000000    0.000000    0.000000    0.000000
    0.010000    0.010031    0.010166    0.010278    0.010344    0.010430
    0.010490    0.010621    0.010713    0.011124    0.011550    0.011656
 Highest eigenvalues
    2.071425    2.100150    2.111109    2.335647    2.362545    2.392760


........................................................................
.............................. CYCLE   21 ..............................
........................................................................
   1   -150.2421083 -0.150242E+03  0.779E-02    3.10       0.0  T
   2   -150.2421273 -0.190246E-04  0.457E-02    3.10       1.0  T
   3   -150.2421135  0.138431E-04  0.192E-02    3.10       1.0  T
   4   -150.2421312 -0.177218E-04  0.464E-03    3.10       2.5  T
   5   -150.2421327 -0.153154E-05  0.137E-03    3.10       8.5  T
   6   -150.2421328 -0.188899E-07  0.728E-04    3.10      16.0  T
   7   -150.2421328 -0.494470E-08  0.273E-04    3.10      42.6  T
     SCC iter.                  ...        0 min,  0.176 sec
     gradient                   ...        0 min,  0.142 sec
 * total energy  :  -148.6403988 Eh     change       -0.3425471E-03 Eh
   gradient norm :     0.0135678 Eh/α   predicted     0.0000000E+00 (-100.00%)
   displ. norm   :     0.1028901 α      lambda       -0.4104049E-03
   maximum displ.:     0.0347819 α      in ANC's #1, #15, #2, ...

........................................................................
.............................. CYCLE   22 ..............................
........................................................................
   1   -150.2445105 -0.150245E+03  0.303E-02    3.11       0.0  T
   2   -150.2445160 -0.548241E-05  0.184E-02    3.11       1.0  T
   3   -150.2445146  0.144391E-05  0.891E-03    3.11       1.3  T
   4   -150.2445174 -0.278905E-05  0.213E-03    3.11       5.5  T
   5   -150.2445176 -0.287543E-06  0.622E-04    3.11      18.7  T
   6   -150.2445177 -0.571316E-08  0.314E-04    3.11      37.1  T
     SCC iter.                  ...        0 min,  0.149 sec
     gradient                   ...        0 min,  0.115 sec
 * total energy  :  -148.6406999 Eh     change       -0.3011439E-03 Eh
   gradient norm :     0.0055208 Eh/α   predicted    -0.2073755E-03 ( -31.14%)
   displ. norm   :     0.2037490 α      lambda       -0.3640557E-03
   maximum displ.:     0.0761412 α      in ANC's #1, #2, #15, ...

........................................................................
.............................. CYCLE   23 ..............................
........................................................................
   1   -150.2462397 -0.150246E+03  0.482E-02    3.13       0.0  T
   2   -150.2462467 -0.697946E-05  0.289E-02    3.13       1.0  T
   3   -150.2462403  0.638553E-05  0.128E-02    3.13       1.0  T
   4   -150.2462490 -0.873159E-05  0.244E-03    3.12       4.8  T
   5   -150.2462493 -0.316123E-06  0.885E-04    3.13      13.1  T
   6   -150.2462493 -0.828476E-08  0.439E-04    3.13      26.5  T
     SCC iter.                  ...        0 min,  0.153 sec
     gradient                   ...        0 min,  0.137 sec
 * total energy  :  -148.6409604 Eh     change       -0.2604986E-03 Eh
   gradient norm :     0.0048747 Eh/α   predicted    -0.1895848E-03 ( -27.22%)
   displ. norm   :     0.2652197 α      lambda       -0.2752530E-03
   maximum displ.:     0.1058571 α      in ANC's #1, #2, #15, ...

........................................................................
.............................. CYCLE   24 ..............................
........................................................................
   1   -150.2462290 -0.150246E+03  0.563E-02    3.14       0.0  T
   2   -150.2462321 -0.305472E-05  0.335E-02    3.14       1.0  T
   3   -150.2462238  0.822033E-05  0.118E-02    3.14       1.0  T
   4   -150.2462338 -0.994532E-05  0.170E-03    3.14       6.8  T
   5   -150.2462339 -0.708571E-07  0.891E-04    3.14      13.1  T
   6   -150.2462339 -0.662038E-08  0.393E-04    3.14      29.6  T
     SCC iter.                  ...        0 min,  0.146 sec
     gradient                   ...        0 min,  0.133 sec
 * total energy  :  -148.6411755 Eh     change       -0.2151032E-03 Eh
   gradient norm :     0.0076450 Eh/α   predicted    -0.1473269E-03 ( -31.51%)
   displ. norm   :     0.3827381 α      lambda       -0.3298263E-03
   maximum displ.:     0.1596574 α      in ANC's #1, #2, #15, ...

........................................................................
.............................. CYCLE   25 ..............................
........................................................................
   1   -150.2450262 -0.150245E+03  0.751E-02    3.15       0.0  T
   2   -150.2450294 -0.316974E-05  0.446E-02    3.15       1.0  T
   3   -150.2450196  0.983872E-05  0.124E-02    3.16       1.0  T
   4   -150.2450315 -0.119209E-04  0.193E-03    3.15       6.0  T
   5   -150.2450315 -0.436417E-07  0.109E-03    3.15      10.6  T
   6   -150.2450315 -0.167404E-07  0.401E-04    3.15      29.0  T
   7   -150.2450315 -0.367220E-08  0.162E-04    3.15      71.6  T
     SCC iter.                  ...        0 min,  0.172 sec
     gradient                   ...        0 min,  0.152 sec
 * total energy  :  -148.6414388 Eh     change       -0.2632784E-03 Eh
   gradient norm :     0.0079961 Eh/α   predicted    -0.1891741E-03 ( -28.15%)
   displ. norm   :     0.4563911 α      lambda       -0.3660003E-03
   maximum displ.:     0.1995492 α      in ANC's #1, #2, #15, ...

........................................................................
.............................. CYCLE   26 ..............................
........................................................................
   1   -150.2435374 -0.150244E+03  0.818E-02    3.16       0.0  T
   2   -150.2435417 -0.430277E-05  0.485E-02    3.16       1.0  T
   3   -150.2435339  0.773937E-05  0.112E-02    3.16       1.0  T
   4   -150.2435437 -0.975448E-05  0.224E-03    3.16       5.2  T
   5   -150.2435438 -0.137830E-06  0.121E-03    3.16       9.6  T
   6   -150.2435438 -0.125290E-07  0.487E-04    3.16      23.9  T
   7   -150.2435438 -0.614085E-08  0.174E-04    3.16      66.9  T
     SCC iter.                  ...        0 min,  0.172 sec
     gradient                   ...        0 min,  0.130 sec
 * total energy  :  -148.6417360 Eh     change       -0.2972505E-03 Eh
   gradient norm :     0.0068016 Eh/α   predicted    -0.2211192E-03 ( -25.61%)
   displ. norm   :     0.4951586 α      lambda       -0.3980619E-03
   maximum displ.:     0.2267379 α      in ANC's #1, #2, #5, ...

........................................................................
.............................. CYCLE   27 ..............................
........................................................................
   1   -150.2430643 -0.150243E+03  0.796E-02    3.16       0.0  T
   2   -150.2430699 -0.557745E-05  0.471E-02    3.16       1.0  T
   3   -150.2430638  0.611686E-05  0.103E-02    3.16       1.1  T
   4   -150.2430717 -0.794862E-05  0.243E-03    3.16       4.8  T
   5   -150.2430720 -0.272173E-06  0.120E-03    3.16       9.7  T
   6   -150.2430720 -0.144142E-07  0.534E-04    3.16      21.8  T
   7   -150.2430720 -0.638687E-08  0.194E-04    3.16      59.9  T
     SCC iter.                  ...        0 min,  0.172 sec
     gradient                   ...        0 min,  0.144 sec
 * total energy  :  -148.6420637 Eh     change       -0.3276420E-03 Eh
   gradient norm :     0.0068058 Eh/α   predicted    -0.2478394E-03 ( -24.36%)
   displ. norm   :     0.5301674 α      lambda       -0.4324767E-03
   maximum displ.:     0.2519974 α      in ANC's #1, #2, #5, ...

........................................................................
.............................. CYCLE   28 ..............................
........................................................................
   1   -150.2438644 -0.150244E+03  0.767E-02    3.15       0.0  T
   2   -150.2438698 -0.542825E-05  0.453E-02    3.15       1.0  T
   3   -150.2438643  0.556822E-05  0.973E-03    3.15       1.2  T
   4   -150.2438715 -0.721993E-05  0.232E-03    3.15       5.0  T
   5   -150.2438718 -0.279012E-06  0.112E-03    3.15      10.4  T
   6   -150.2438718 -0.170699E-07  0.502E-04    3.15      23.2  T
   7   -150.2438718 -0.485443E-08  0.200E-04    3.15      58.0  T
     SCC iter.                  ...        0 min,  0.180 sec
     gradient                   ...        0 min,  0.124 sec
 * total energy  :  -148.6424273 Eh     change       -0.3636009E-03 Eh
   gradient norm :     0.0083634 Eh/α   predicted    -0.2770214E-03 ( -23.81%)
   displ. norm   :     0.5928477 α      lambda       -0.4818910E-03
   maximum displ.:     0.2885682 α      in ANC's #1, #2, #5, ...

........................................................................
.............................. CYCLE   29 ..............................
........................................................................
   1   -150.2451119 -0.150245E+03  0.788E-02    3.14       0.0  T
   2   -150.2451159 -0.406541E-05  0.465E-02    3.14       1.0  T
   3   -150.2451109  0.506245E-05  0.902E-03    3.14       1.3  T
   4   -150.2451175 -0.660875E-05  0.204E-03    3.14       5.7  T
   5   -150.2451176 -0.158425E-06  0.106E-03    3.14      11.0  T
   6   -150.2451177 -0.165026E-07  0.429E-04    3.14      27.1  T
   7   -150.2451177 -0.363389E-08  0.182E-04    3.14      63.9  T
     SCC iter.                  ...        0 min,  0.172 sec
     gradient                   ...        0 min,  0.137 sec
 * total energy  :  -148.6428417 Eh     change       -0.4143660E-03 Eh
   gradient norm :     0.0090316 Eh/α   predicted    -0.3256342E-03 ( -21.41%)
   displ. norm   :     0.6513178 α      lambda       -0.5063268E-03
   maximum displ.:     0.3230722 α      in ANC's #1, #2, #5, ...

........................................................................
.............................. CYCLE   30 ..............................
........................................................................
   1   -150.2459184 -0.150246E+03  0.809E-02    3.13       0.0  T
   2   -150.2459218 -0.343293E-05  0.478E-02    3.13       1.0  T
   3   -150.2459169  0.485614E-05  0.907E-03    3.13       1.3  T
   4   -150.2459234 -0.645967E-05  0.185E-03    3.13       6.3  T
   5   -150.2459235 -0.779364E-07  0.104E-03    3.13      11.1  T
   6   -150.2459235 -0.139435E-07  0.384E-04    3.13      30.3  T
   7   -150.2459235 -0.439428E-08  0.152E-04    3.13      76.6  T
     SCC iter.                  ...        0 min,  0.172 sec
     gradient                   ...        0 min,  0.086 sec
 * total energy  :  -148.6432843 Eh     change       -0.4426058E-03 Eh
   gradient norm :     0.0080670 Eh/α   predicted    -0.3605652E-03 ( -18.54%)
   displ. norm   :     0.6786599 α      lambda       -0.5181492E-03
   maximum displ.:     0.3431449 α      in ANC's #1, #2, #5, ...

........................................................................
.............................. CYCLE   31 ..............................
........................................................................
   1   -150.2471330 -0.150247E+03  0.796E-02    3.12       0.0  T
   2   -150.2471373 -0.431222E-05  0.471E-02    3.12       1.0  T
   3   -150.2471323  0.500383E-05  0.950E-03    3.12       1.2  T
   4   -150.2471390 -0.666554E-05  0.205E-03    3.12       5.7  T
   5   -150.2471391 -0.142271E-06  0.108E-03    3.12      10.8  T
   6   -150.2471391 -0.717577E-08  0.448E-04    3.12      26.0  T
   7   -150.2471391 -0.624186E-08  0.138E-04    3.12      84.2  T
     SCC iter.                  ...        0 min,  0.176 sec
     gradient                   ...        0 min,  0.119 sec
 * total energy  :  -148.6437430 Eh     change       -0.4587168E-03 Eh
   gradient norm :     0.0063206 Eh/α   predicted    -0.3784017E-03 ( -17.51%)
   displ. norm   :     0.7221416 α      lambda       -0.5422719E-03
   maximum displ.:     0.3683851 α      in ANC's #1, #2, #5, ...

........................................................................
.............................. CYCLE   32 ..............................
........................................................................
   1   -150.2468751 -0.150247E+03  0.861E-02    3.12       0.0  T
   2   -150.2468801 -0.504244E-05  0.509E-02    3.12       1.0  T
   3   -150.2468739  0.625816E-05  0.105E-02    3.12       1.1  T
   4   -150.2468821 -0.822272E-05  0.229E-03    3.12       5.1  T
   5   -150.2468823 -0.185492E-06  0.117E-03    3.12       9.9  T
   6   -150.2468823 -0.674319E-08  0.480E-04    3.12      24.2  T
   7   -150.2468823 -0.692700E-08  0.147E-04    3.12      79.0  T
     SCC iter.                  ...        0 min,  0.179 sec
     gradient                   ...        0 min,  0.149 sec
 * total energy  :  -148.6442354 Eh     change       -0.4924231E-03 Eh
   gradient norm :     0.0056617 Eh/α   predicted    -0.4125332E-03 ( -16.22%)
   displ. norm   :     0.7177555 α      lambda       -0.6030606E-03
   maximum displ.:     0.3712651 α      in ANC's #1, #2, #5, ...

........................................................................
.............................. CYCLE   33 ..............................
........................................................................
   1   -150.2511706 -0.150251E+03  0.895E-02    3.12       0.0  T
   2   -150.2511757 -0.514502E-05  0.529E-02    3.13       1.0  T
   3   -150.2511719  0.379847E-05  0.911E-03    3.13       1.3  T
   4   -150.2511774 -0.543397E-05  0.232E-03    3.13       5.0  T
   5   -150.2511775 -0.177195E-06  0.119E-03    3.13       9.7  T
   6   -150.2511775 -0.134631E-07  0.456E-04    3.13      25.5  T
   7   -150.2511776 -0.402423E-08  0.166E-04    3.13      70.0  T
     SCC iter.                  ...        0 min,  0.175 sec
     gradient                   ...        0 min,  0.135 sec
 * total energy  :  -148.6447471 Eh     change       -0.5116751E-03 Eh
   gradient norm :     0.0080544 Eh/α   predicted    -0.4568972E-03 ( -10.71%)
   displ. norm   :     0.8057342 α      lambda       -0.6544935E-03
   maximum displ.:     0.4112088 α      in ANC's #2, #1, #5, ...

........................................................................
.............................. CYCLE   34 ..............................
........................................................................
   1   -150.2432669 -0.150243E+03  0.107E-01    3.13       0.0  T
   2   -150.2432747 -0.772744E-05  0.633E-02    3.13       1.0  T
   3   -150.2432610  0.136341E-04  0.148E-02    3.13       1.0  T
   4   -150.2432783 -0.172421E-04  0.272E-03    3.13       4.3  T
   5   -150.2432785 -0.183228E-06  0.146E-03    3.13       8.0  T
   6   -150.2432785 -0.904268E-08  0.565E-04    3.13      20.6  T
   7   -150.2432785 -0.100492E-07  0.202E-04    3.13      57.5  T
     SCC iter.                  ...        0 min,  0.172 sec
     gradient                   ...        0 min,  0.109 sec
 * total energy  :  -148.6452671 Eh     change       -0.5200425E-03 Eh
   gradient norm :     0.0101956 Eh/α   predicted    -0.5396985E-03 (   3.78%)
   displ. norm   :     0.6549884 α      lambda       -0.6090450E-03
   maximum displ.:     0.3463610 α      in ANC's #2, #1, #5, ...

........................................................................
.............................. CYCLE   35 ..............................
........................................................................
   1   -150.2455223 -0.150246E+03  0.885E-02    3.14       0.0  T
   2   -150.2455257 -0.340476E-05  0.523E-02    3.14       1.0  T
   3   -150.2455222  0.348728E-05  0.881E-03    3.14       1.3  T
   4   -150.2455271 -0.486144E-05  0.201E-03    3.14       5.8  T
   5   -150.2455271 -0.818422E-07  0.104E-03    3.14      11.2  T
   6   -150.2455271 -0.127263E-07  0.397E-04    3.14      29.3  T
   7   -150.2455271 -0.265260E-08  0.170E-04    3.14      68.3  T
     SCC iter.                  ...        0 min,  0.172 sec
     gradient                   ...        0 min,  0.136 sec
 * total energy  :  -148.6457888 Eh     change       -0.5217216E-03 Eh
   gradient norm :     0.0095608 Eh/α   predicted    -0.4351952E-03 ( -16.58%)
   displ. norm   :     0.7049678 α      lambda       -0.6497722E-03
   maximum displ.:     0.3761899 α      in ANC's #2, #1, #5, ...

........................................................................
.............................. CYCLE   36 ..............................
........................................................................
   1   -150.2486818 -0.150249E+03  0.876E-02    3.15       0.0  T
   2   -150.2486858 -0.402506E-05  0.518E-02    3.15       1.0  T
   3   -150.2486812  0.454936E-05  0.979E-03    3.16       1.2  T
   4   -150.2486874 -0.612087E-05  0.222E-03    3.16       5.2  T
   5   -150.2486875 -0.137867E-06  0.110E-03    3.16      10.6  T
   6   -150.2486875 -0.778184E-08  0.441E-04    3.16      26.3  T
   7   -150.2486875 -0.313557E-08  0.152E-04    3.16      76.6  T
     SCC iter.                  ...        0 min,  0.182 sec
     gradient                   ...        0 min,  0.137 sec
 * total energy  :  -148.6463538 Eh     change       -0.5649531E-03 Eh
   gradient norm :     0.0076667 Eh/α   predicted    -0.4863483E-03 ( -13.91%)
   displ. norm   :     0.7348381 α      lambda       -0.6862428E-03
   maximum displ.:     0.3986727 α      in ANC's #1, #2, #5, ...

........................................................................
.............................. CYCLE   37 ..............................
........................................................................
   1   -150.2510772 -0.150251E+03  0.876E-02    3.16       0.0  T
   2   -150.2510849 -0.768239E-05  0.516E-02    3.17       1.0  T
   3   -150.2510807  0.419782E-05  0.103E-02    3.17       1.1  T
   4   -150.2510864 -0.574167E-05  0.287E-03    3.17       4.0  T
   5   -150.2510868 -0.355777E-06  0.117E-03    3.17      10.0  T
   6   -150.2510868 -0.125805E-07  0.513E-04    3.17      22.7  T
   7   -150.2510868 -0.287781E-08  0.201E-04    3.17      57.9  T
     SCC iter.                  ...        0 min,  0.174 sec
     gradient                   ...        0 min,  0.128 sec
 * total energy  :  -148.6469237 Eh     change       -0.5698586E-03 Eh
   gradient norm :     0.0076209 Eh/α   predicted    -0.5284172E-03 (  -7.27%)
   displ. norm   :     0.8243794 α      lambda       -0.6748613E-03
   maximum displ.:     0.4503647 α      in ANC's #1, #2, #5, ...

........................................................................
.............................. CYCLE   38 ..............................
........................................................................
   1   -150.2480986 -0.150248E+03  0.942E-02    3.17       0.0  T
   2   -150.2481066 -0.792919E-05  0.560E-02    3.17       1.0  T
   3   -150.2480987  0.782924E-05  0.120E-02    3.17       1.0  T
   4   -150.2481092 -0.104464E-04  0.280E-03    3.17       4.1  T
   5   -150.2481095 -0.270688E-06  0.134E-03    3.17       8.6  T
   6   -150.2481095 -0.121939E-07  0.546E-04    3.17      21.3  T
   7   -150.2481095 -0.591768E-08  0.217E-04    3.17      53.7  T
     SCC iter.                  ...        0 min,  0.173 sec
     gradient                   ...        0 min,  0.130 sec
 * total energy  :  -148.6474918 Eh     change       -0.5681853E-03 Eh
   gradient norm :     0.0094110 Eh/α   predicted    -0.5667532E-03 (  -0.25%)
   displ. norm   :     0.7031436 α      lambda       -0.6459131E-03
   maximum displ.:     0.3949757 α      in ANC's #1, #2, #5, ...

........................................................................
.............................. CYCLE   39 ..............................
........................................................................
   1   -150.2537482 -0.150254E+03  0.787E-02    3.16       0.0  T
   2   -150.2537528 -0.463035E-05  0.466E-02    3.16       1.0  T
   3   -150.2537486  0.421227E-05  0.945E-03    3.17       1.2  T
   4   -150.2537545 -0.586199E-05  0.222E-03    3.17       5.2  T
   5   -150.2537546 -0.110504E-06  0.108E-03    3.17      10.8  T
   6   -150.2537546 -0.197275E-07  0.428E-04    3.17      27.2  T
   7   -150.2537546 -0.254266E-08  0.199E-04    3.17      58.5  T
     SCC iter.                  ...        0 min,  0.176 sec
     gradient                   ...        0 min,  0.127 sec
 * total energy  :  -148.6480110 Eh     change       -0.5191720E-03 Eh
   gradient norm :     0.0104932 Eh/α   predicted    -0.4826303E-03 (  -7.04%)
   displ. norm   :     0.8271095 α      lambda       -0.6870799E-03
   maximum displ.:     0.4663869 α      in ANC's #1, #2, #5, ...

........................................................................
.............................. CYCLE   40 ..............................
........................................................................
   1   -150.2452464 -0.150245E+03  0.969E-02    3.16       0.0  T
   2   -150.2452560 -0.963316E-05  0.575E-02    3.16       1.0  T
   3   -150.2452391  0.169280E-04  0.164E-02    3.16       1.0  T
   4   -150.2452600 -0.209282E-04  0.263E-03    3.16       4.4  T
   5   -150.2452603 -0.252093E-06  0.132E-03    3.16       8.8  T
   6   -150.2452603 -0.112490E-07  0.600E-04    3.16      19.4  T
   7   -150.2452603 -0.832279E-08  0.218E-04    3.16      53.3  T
     SCC iter.                  ...        0 min,  0.173 sec
     gradient                   ...        0 min,  0.121 sec
 * total energy  :  -148.6485358 Eh     change       -0.5247778E-03 Eh
   gradient norm :     0.0111620 Eh/α   predicted    -0.5785621E-03 (  10.25%)
   displ. norm   :     0.5978980 α      lambda       -0.6280399E-03
   maximum displ.:     0.3517443 α      in ANC's #1, #2, #5, ...

........................................................................
.............................. CYCLE   41 ..............................
........................................................................
   1   -150.2487382 -0.150249E+03  0.694E-02    3.15       0.0  T
   2   -150.2487444 -0.620303E-05  0.410E-02    3.15       1.0  T
   3   -150.2487379  0.653346E-05  0.115E-02    3.15       1.0  T
   4   -150.2487461 -0.819541E-05  0.244E-03    3.15       4.8  T
   5   -150.2487464 -0.283348E-06  0.100E-03    3.15      11.6  T
   6   -150.2487464 -0.620332E-08  0.461E-04    3.15      25.2  T
   7   -150.2487464 -0.456239E-08  0.167E-04    3.15      69.8  T
     SCC iter.                  ...        0 min,  0.175 sec
     gradient                   ...        0 min,  0.124 sec
 * total energy  :  -148.6490111 Eh     change       -0.4753257E-03 Eh
   gradient norm :     0.0081898 Eh/α   predicted    -0.4262898E-03 ( -10.32%)
   displ. norm   :     0.7614636 α      lambda       -0.5968068E-03
   maximum displ.:     0.4423242 α      in ANC's #1, #2, #5, ...

........................................................................
.............................. CYCLE   42 ..............................
........................................................................
   1   -150.2490031 -0.150249E+03  0.836E-02    3.14       0.0  T
   2   -150.2490097 -0.666863E-05  0.498E-02    3.14       1.0  T
   3   -150.2489986  0.111679E-04  0.137E-02    3.14       1.0  T
   4   -150.2490124 -0.138810E-04  0.250E-03    3.14       4.7  T
   5   -150.2490127 -0.213356E-06  0.118E-03    3.14       9.8  T
   6   -150.2490127 -0.574809E-08  0.485E-04    3.14      23.9  T
   7   -150.2490127 -0.554519E-08  0.180E-04    3.14      64.6  T
     SCC iter.                  ...        0 min,  0.172 sec
     gradient                   ...        0 min,  0.130 sec
 * total energy  :  -148.6494863 Eh     change       -0.4751936E-03 Eh
   gradient norm :     0.0085728 Eh/α   predicted    -0.4714237E-03 (  -0.79%)
   displ. norm   :     0.6336873 α      lambda       -0.5963091E-03
   maximum displ.:     0.3863943 α      in ANC's #1, #2, #5, ...
 * RMSD in coord.:     1.4120256 α      energy gain  -0.9430082E-02 Eh

generating ANC from model Hessian ...
Using Lindh-Hessian (1995)
 Shifting diagonal of input Hessian by    9.8148081275502824E-003
 Lowest  eigenvalues of input Hessian
    0.000000    0.000000    0.000000    0.000000    0.000000    0.000000
    0.010000    0.010081    0.010181    0.010301    0.010317    0.010549
    0.010676    0.010804    0.010880    0.011455    0.011717    0.011977
 Highest eigenvalues
    2.068203    2.106856    2.111527    2.358811    2.366253    2.400599


........................................................................
.............................. CYCLE   43 ..............................
........................................................................
   1   -150.2577973 -0.150258E+03  0.695E-02    3.14       0.0  T
   2   -150.2578038 -0.647580E-05  0.413E-02    3.14       1.0  T
   3   -150.2577933  0.104805E-04  0.148E-02    3.14       1.0  T
   4   -150.2578065 -0.132482E-04  0.229E-03    3.14       5.1  T
   5   -150.2578067 -0.149478E-06  0.114E-03    3.14      10.2  T
   6   -150.2578067 -0.108360E-07  0.571E-04    3.14      20.4  T
   7   -150.2578067 -0.655717E-08  0.177E-04    3.14      65.6  T
     SCC iter.                  ...        0 min,  0.171 sec
     gradient                   ...        0 min,  0.119 sec
 * total energy  :  -148.6498611 Eh     change       -0.3748305E-03 Eh
   gradient norm :     0.0121354 Eh/α   predicted     0.0000000E+00 (-100.00%)
   displ. norm   :     0.0810024 α      lambda       -0.2697485E-03
   maximum displ.:     0.0371237 α      in ANC's #5, #1, #14, ...

........................................................................
.............................. CYCLE   44 ..............................
........................................................................
   1   -150.2554175 -0.150255E+03  0.207E-02    3.14       0.0  T
   2   -150.2554206 -0.310970E-05  0.123E-02    3.14       1.0  T
   3   -150.2554203  0.297913E-06  0.519E-03    3.14       2.2  T
   4   -150.2554209 -0.597336E-06  0.161E-03    3.14       7.2  T
   5   -150.2554211 -0.159664E-06  0.474E-04    3.14      24.5  T
   6   -150.2554211 -0.477701E-08  0.217E-04    3.14      53.7  T
     SCC iter.                  ...        0 min,  0.146 sec
     gradient                   ...        0 min,  0.130 sec
 * total energy  :  -148.6500624 Eh     change       -0.2012638E-03 Eh
   gradient norm :     0.0049360 Eh/α   predicted    -0.1357593E-03 ( -32.55%)
   displ. norm   :     0.1672873 α      lambda       -0.2347099E-03
   maximum displ.:     0.0837134 α      in ANC's #5, #1, #14, ...

........................................................................
.............................. CYCLE   45 ..............................
........................................................................
   1   -150.2539759 -0.150254E+03  0.331E-02    3.14       0.0  T
   2   -150.2539794 -0.348782E-05  0.197E-02    3.14       1.0  T
   3   -150.2539786  0.809481E-06  0.586E-03    3.14       2.0  T
   4   -150.2539798 -0.119529E-05  0.177E-03    3.14       6.6  T
   5   -150.2539799 -0.176088E-06  0.627E-04    3.14      18.5  T
   6   -150.2539800 -0.641219E-08  0.276E-04    3.14      42.2  T
     SCC iter.                  ...        0 min,  0.147 sec
     gradient                   ...        0 min,  0.143 sec
 * total energy  :  -148.6502267 Eh     change       -0.1642482E-03 Eh
   gradient norm :     0.0040086 Eh/α   predicted    -0.1206997E-03 ( -26.51%)
   displ. norm   :     0.2023722 α      lambda       -0.1613834E-03
   maximum displ.:     0.1047294 α      in ANC's #5, #1, #14, ...

........................................................................
.............................. CYCLE   46 ..............................
........................................................................
   1   -150.2537469 -0.150254E+03  0.355E-02    3.14       0.0  T
   2   -150.2537484 -0.144656E-05  0.213E-02    3.14       1.0  T
   3   -150.2537478  0.592947E-06  0.413E-03    3.14       2.8  T
   4   -150.2537488 -0.963065E-06  0.119E-03    3.14       9.7  T
   5   -150.2537488 -0.516166E-07  0.556E-04    3.14      20.9  T
   6   -150.2537488 -0.346225E-08  0.233E-04    3.14      50.0  T
     SCC iter.                  ...        0 min,  0.148 sec
     gradient                   ...        0 min,  0.143 sec
 * total energy  :  -148.6503582 Eh     change       -0.1315379E-03 Eh
   gradient norm :     0.0065813 Eh/α   predicted    -0.8399901E-04 ( -36.14%)
   displ. norm   :     0.3417581 α      lambda       -0.2436980E-03
   maximum displ.:     0.1768807 α      in ANC's #5, #1, #14, ...

........................................................................
.............................. CYCLE   47 ..............................
........................................................................
   1   -150.2539652 -0.150254E+03  0.565E-02    3.13       0.0  T
   2   -150.2539676 -0.240887E-05  0.340E-02    3.13       1.0  T
   3   -150.2539652  0.234658E-05  0.676E-03    3.14       1.7  T
   4   -150.2539688 -0.351874E-05  0.152E-03    3.14       7.7  T
   5   -150.2539688 -0.280604E-07  0.773E-04    3.14      15.0  T
   6   -150.2539688 -0.802413E-08  0.316E-04    3.14      36.8  T
     SCC iter.                  ...        0 min,  0.147 sec
     gradient                   ...        0 min,  0.144 sec
 * total energy  :  -148.6505552 Eh     change       -0.1970102E-03 Eh
   gradient norm :     0.0072798 Eh/α   predicted    -0.1360954E-03 ( -30.92%)
   displ. norm   :     0.4085953 α      lambda       -0.2545277E-03
   maximum displ.:     0.2168149 α      in ANC's #5, #1, #14, ...

........................................................................
.............................. CYCLE   48 ..............................
........................................................................
   1   -150.2543946 -0.150254E+03  0.634E-02    3.12       0.0  T
   2   -150.2543988 -0.415215E-05  0.383E-02    3.12       1.0  T
   3   -150.2543937  0.503999E-05  0.934E-03    3.13       1.2  T
   4   -150.2544007 -0.698080E-05  0.188E-03    3.13       6.2  T
   5   -150.2544008 -0.741080E-07  0.100E-03    3.13      11.6  T
   6   -150.2544008 -0.828521E-08  0.408E-04    3.13      28.5  T
   7   -150.2544008 -0.519728E-08  0.142E-04    3.13      81.7  T
     SCC iter.                  ...        0 min,  0.179 sec
     gradient                   ...        0 min,  0.087 sec
 * total energy  :  -148.6507480 Eh     change       -0.1927785E-03 Eh
   gradient norm :     0.0061044 Eh/α   predicted    -0.1485799E-03 ( -22.93%)
   displ. norm   :     0.3265102 α      lambda       -0.1796919E-03
   maximum displ.:     0.1829327 α      in ANC's #5, #1, #2, ...

........................................................................
.............................. CYCLE   49 ..............................
........................................................................
   1   -150.2555044 -0.150256E+03  0.471E-02    3.12       0.0  T
   2   -150.2555075 -0.314483E-05  0.283E-02    3.12       1.0  T
   3   -150.2555041  0.340361E-05  0.794E-03    3.12       1.5  T
   4   -150.2555087 -0.462939E-05  0.163E-03    3.12       7.1  T
   5   -150.2555088 -0.907319E-07  0.788E-04    3.12      14.7  T
   6   -150.2555088 -0.483286E-08  0.359E-04    3.12      32.4  T
     SCC iter.                  ...        0 min,  0.147 sec
     gradient                   ...        0 min,  0.121 sec
 * total energy  :  -148.6508844 Eh     change       -0.1364217E-03 Eh
   gradient norm :     0.0050294 Eh/α   predicted    -0.9942790E-04 ( -27.12%)
   displ. norm   :     0.2645849 α      lambda       -0.1508976E-03
   maximum displ.:     0.1580852 α      in ANC's #5, #1, #2, ...

........................................................................
.............................. CYCLE   50 ..............................
........................................................................
   1   -150.2569308 -0.150257E+03  0.360E-02    3.11       0.0  T
   2   -150.2569330 -0.217678E-05  0.214E-02    3.11       1.0  T
   3   -150.2569311  0.186848E-05  0.634E-03    3.11       1.8  T
   4   -150.2569336 -0.253052E-05  0.143E-03    3.11       8.1  T
   5   -150.2569337 -0.863832E-07  0.612E-04    3.11      19.0  T
   6   -150.2569337 -0.375735E-08  0.287E-04    3.11      40.5  T
     SCC iter.                  ...        0 min,  0.148 sec
     gradient                   ...        0 min,  0.127 sec
 * total energy  :  -148.6510009 Eh     change       -0.1164698E-03 Eh
   gradient norm :     0.0043375 Eh/α   predicted    -0.8076426E-04 ( -30.66%)
   displ. norm   :     0.2749231 α      lambda       -0.1284810E-03
   maximum displ.:     0.1687514 α      in ANC's #5, #1, #2, ...

........................................................................
.............................. CYCLE   51 ..............................
........................................................................
   1   -150.2569335 -0.150257E+03  0.355E-02    3.11       0.0  T
   2   -150.2569351 -0.158104E-05  0.211E-02    3.11       1.0  T
   3   -150.2569334  0.160780E-05  0.572E-03    3.11       2.0  T
   4   -150.2569356 -0.219571E-05  0.123E-03    3.10       9.5  T
   5   -150.2569357 -0.500170E-07  0.574E-04    3.10      20.2  T
   6   -150.2569357 -0.344167E-08  0.262E-04    3.10      44.4  T
     SCC iter.                  ...        0 min,  0.148 sec
     gradient                   ...        0 min,  0.134 sec
 * total energy  :  -148.6511031 Eh     change       -0.1022099E-03 Eh
   gradient norm :     0.0041990 Eh/α   predicted    -0.6909733E-04 ( -32.40%)
   displ. norm   :     0.2700790 α      lambda       -0.1153533E-03
   maximum displ.:     0.1676627 α      in ANC's #5, #1, #22, ...

........................................................................
.............................. CYCLE   52 ..............................
........................................................................
   1   -150.2565052 -0.150257E+03  0.327E-02    3.10       0.0  T
   2   -150.2565063 -0.116455E-05  0.195E-02    3.10       1.0  T
   3   -150.2565051  0.123372E-05  0.505E-03    3.10       2.3  T
   4   -150.2565068 -0.173039E-05  0.106E-03    3.10      10.9  T
   5   -150.2565069 -0.296549E-07  0.527E-04    3.10      22.0  T
   6   -150.2565069 -0.342928E-08  0.227E-04    3.10      51.2  T
     SCC iter.                  ...        0 min,  0.149 sec
     gradient                   ...        0 min,  0.142 sec
 * total energy  :  -148.6511969 Eh     change       -0.9379503E-04 Eh
   gradient norm :     0.0037607 Eh/α   predicted    -0.6188757E-04 ( -34.02%)
   displ. norm   :     0.2914592 α      lambda       -0.1139749E-03
   maximum displ.:     0.1805416 α      in ANC's #5, #1, #22, ...

........................................................................
.............................. CYCLE   53 ..............................
........................................................................
   1   -150.2556973 -0.150256E+03  0.360E-02    3.09       0.0  T
   2   -150.2556985 -0.119142E-05  0.214E-02    3.09       1.0  T
   3   -150.2556971  0.133842E-05  0.516E-03    3.09       2.3  T
   4   -150.2556990 -0.190397E-05  0.109E-03    3.09      10.7  T
   5   -150.2556990 -0.250820E-07  0.554E-04    3.09      21.0  T
   6   -150.2556990 -0.391000E-08  0.231E-04    3.09      50.3  T
     SCC iter.                  ...        0 min,  0.147 sec
     gradient                   ...        0 min,  0.127 sec
 * total energy  :  -148.6512901 Eh     change       -0.9323478E-04 Eh
   gradient norm :     0.0030863 Eh/α   predicted    -0.6182957E-04 ( -33.68%)
   displ. norm   :     0.3120428 α      lambda       -0.1142948E-03
   maximum displ.:     0.1914698 α      in ANC's #5, #1, #22, ...

........................................................................
.............................. CYCLE   54 ..............................
........................................................................
   1   -150.2551478 -0.150255E+03  0.412E-02    3.09       0.0  T
   2   -150.2551491 -0.132252E-05  0.244E-02    3.08       1.0  T
   3   -150.2551475  0.162816E-05  0.549E-03    3.08       2.1  T
   4   -150.2551497 -0.226579E-05  0.116E-03    3.08      10.0  T
   5   -150.2551498 -0.278147E-07  0.587E-04    3.08      19.8  T
   6   -150.2551498 -0.378674E-08  0.244E-04    3.08      47.6  T
     SCC iter.                  ...        0 min,  0.151 sec
     gradient                   ...        0 min,  0.126 sec
 * total energy  :  -148.6513823 Eh     change       -0.9222559E-04 Eh
   gradient norm :     0.0027865 Eh/α   predicted    -0.6271592E-04 ( -32.00%)
   displ. norm   :     0.3362339 α      lambda       -0.1097090E-03
   maximum displ.:     0.2054194 α      in ANC's #5, #1, #8, ...

........................................................................
.............................. CYCLE   55 ..............................
........................................................................
   1   -150.2546088 -0.150255E+03  0.469E-02    3.08       0.0  T
   2   -150.2546104 -0.156486E-05  0.279E-02    3.08       1.0  T
   3   -150.2546081  0.223656E-05  0.613E-03    3.08       1.9  T
   4   -150.2546112 -0.301422E-05  0.124E-03    3.08       9.4  T
   5   -150.2546112 -0.312029E-07  0.642E-04    3.08      18.1  T
   6   -150.2546112 -0.401357E-08  0.267E-04    3.08      43.5  T
     SCC iter.                  ...        0 min,  0.160 sec
     gradient                   ...        0 min,  0.122 sec
 * total energy  :  -148.6514705 Eh     change       -0.8821365E-04 Eh
   gradient norm :     0.0031074 Eh/α   predicted    -0.6105751E-04 ( -30.78%)
   displ. norm   :     0.3421463 α      lambda       -0.1036084E-03
   maximum displ.:     0.2059047 α      in ANC's #5, #1, #7, ...

........................................................................
.............................. CYCLE   56 ..............................
........................................................................
   1   -150.2549066 -0.150255E+03  0.500E-02    3.08       0.0  T
   2   -150.2549081 -0.147849E-05  0.297E-02    3.07       1.0  T
   3   -150.2549055  0.261652E-05  0.642E-03    3.07       1.8  T
   4   -150.2549089 -0.339141E-05  0.120E-03    3.07       9.7  T
   5   -150.2549089 -0.273428E-07  0.648E-04    3.07      17.9  T
   6   -150.2549089 -0.413937E-08  0.256E-04    3.07      45.4  T
     SCC iter.                  ...        0 min,  0.148 sec
     gradient                   ...        0 min,  0.146 sec
 * total energy  :  -148.6515518 Eh     change       -0.8127219E-04 Eh
   gradient norm :     0.0033291 Eh/α   predicted    -0.5787361E-04 ( -28.79%)
   displ. norm   :     0.3474833 α      lambda       -0.9070773E-04
   maximum displ.:     0.2102754 α      in ANC's #5, #1, #8, ...

........................................................................
.............................. CYCLE   57 ..............................
........................................................................
   1   -150.2547176 -0.150255E+03  0.499E-02    3.07       0.0  T
   2   -150.2547193 -0.171991E-05  0.297E-02    3.07       1.0  T
   3   -150.2547159  0.344530E-05  0.721E-03    3.07       1.6  T
   4   -150.2547203 -0.437675E-05  0.126E-03    3.07       9.2  T
   5   -150.2547203 -0.344046E-07  0.687E-04    3.07      16.9  T
   6   -150.2547203 -0.363767E-08  0.256E-04    3.07      45.4  T
     SCC iter.                  ...        0 min,  0.147 sec
     gradient                   ...        0 min,  0.041 sec
 * total energy  :  -148.6516198 Eh     change       -0.6796664E-04 Eh
   gradient norm :     0.0033041 Eh/α   predicted    -0.5083052E-04 ( -25.21%)
   displ. norm   :     0.3067612 α      lambda       -0.8099346E-04
   maximum displ.:     0.1841126 α      in ANC's #1, #5, #7, ...

........................................................................
.............................. CYCLE   58 ..............................
........................................................................
   1   -150.2564576 -0.150256E+03  0.455E-02    3.07       0.0  T
   2   -150.2564591 -0.142990E-05  0.270E-02    3.07       1.0  T
   3   -150.2564569  0.220025E-05  0.606E-03    3.07       1.9  T
   4   -150.2564596 -0.276298E-05  0.119E-03    3.07       9.8  T
   5   -150.2564597 -0.480736E-07  0.610E-04    3.07      19.1  T
   6   -150.2564597 -0.191622E-08  0.216E-04    3.07      53.8  T
     SCC iter.                  ...        0 min,  0.146 sec
     gradient                   ...        0 min,  0.123 sec
 * total energy  :  -148.6516697 Eh     change       -0.4992540E-04 Eh
   gradient norm :     0.0028442 Eh/α   predicted    -0.4431959E-04 ( -11.23%)
   displ. norm   :     0.2634883 α      lambda       -0.5428713E-04
   maximum displ.:     0.1603383 α      in ANC's #1, #5, #13, ...

........................................................................
.............................. CYCLE   59 ..............................
........................................................................
   1   -150.2557347 -0.150256E+03  0.361E-02    3.07       0.0  T
   2   -150.2557361 -0.140217E-05  0.216E-02    3.07       1.0  T
   3   -150.2557339  0.216919E-05  0.597E-03    3.07       1.9  T
   4   -150.2557367 -0.277125E-05  0.114E-03    3.07      10.2  T
   5   -150.2557367 -0.448055E-07  0.554E-04    3.07      21.0  T
   6   -150.2557367 -0.958607E-09  0.207E-04    3.07      56.0  T
     SCC iter.                  ...        0 min,  0.150 sec
     gradient                   ...        0 min,  0.144 sec
 * total energy  :  -148.6517041 Eh     change       -0.3435128E-04 Eh
   gradient norm :     0.0027435 Eh/α   predicted    -0.2902919E-04 ( -15.49%)
   displ. norm   :     0.1385244 α      lambda       -0.3668740E-04
   maximum displ.:     0.0827437 α      in ANC's #1, #5, #13, ...

........................................................................
.............................. CYCLE   60 ..............................
........................................................................
   1   -150.2564364 -0.150256E+03  0.195E-02    3.08       0.0  T
   2   -150.2564367 -0.306070E-06  0.115E-02    3.08       1.0  T
   3   -150.2564364  0.285123E-06  0.255E-03    3.08       4.6  T
   4   -150.2564368 -0.388107E-06  0.582E-04    3.08      20.0  T
   5   -150.2564368 -0.982473E-08  0.284E-04    3.08      40.9  T
     SCC iter.                  ...        0 min,  0.124 sec
     gradient                   ...        0 min,  0.129 sec
 * total energy  :  -148.6517328 Eh     change       -0.2871700E-04 Eh
   gradient norm :     0.0023382 Eh/α   predicted    -0.1869958E-04 ( -34.88%)
   displ. norm   :     0.1918317 α      lambda       -0.4614827E-04
   maximum displ.:     0.1127840 α      in ANC's #1, #5, #13, ...

........................................................................
.............................. CYCLE   61 ..............................
........................................................................
   1   -150.2562156 -0.150256E+03  0.275E-02    3.08       0.0  T
   2   -150.2562161 -0.504093E-06  0.163E-02    3.08       1.0  T
   3   -150.2562156  0.451934E-06  0.316E-03    3.08       3.7  T
   4   -150.2562163 -0.652395E-06  0.780E-04    3.08      14.9  T
   5   -150.2562163 -0.136970E-07  0.392E-04    3.08      29.6  T
     SCC iter.                  ...        0 min,  0.128 sec
     gradient                   ...        0 min,  0.113 sec
 * total energy  :  -148.6517641 Eh     change       -0.3131653E-04 Eh
   gradient norm :     0.0021554 Eh/α   predicted    -0.2392586E-04 ( -23.60%)
   displ. norm   :     0.1198910 α      lambda       -0.2297048E-04
   maximum displ.:     0.0674729 α      in ANC's #1, #5, #10, ...

........................................................................
.............................. CYCLE   62 ..............................
........................................................................
   1   -150.2563444 -0.150256E+03  0.173E-02    3.08       0.0  T
   2   -150.2563446 -0.189097E-06  0.103E-02    3.08       1.1  T
   3   -150.2563445  0.899969E-07  0.166E-03    3.08       7.0  T
   4   -150.2563446 -0.158859E-06  0.453E-04    3.08      25.7  T
   5   -150.2563446 -0.350329E-08  0.234E-04    3.08      49.7  T
     SCC iter.                  ...        0 min,  0.123 sec
     gradient                   ...        0 min,  0.126 sec
 * total energy  :  -148.6517811 Eh     change       -0.1702307E-04 Eh
   gradient norm :     0.0018529 Eh/α   predicted    -0.1165524E-04 ( -31.53%)
   displ. norm   :     0.2554990 α      lambda       -0.2463060E-04
   maximum displ.:     0.1527418 α      in ANC's #1, #5, #10, ...

........................................................................
.............................. CYCLE   63 ..............................
........................................................................
[...]
       120        2.0000           -0.4190643             -11.4033
       121        2.0000           -0.4129715             -11.2375
       122        2.0000           -0.4103583             -11.1664
       123        2.0000           -0.4077565             -11.0956
       124        2.0000           -0.4024550             -10.9514
       125        2.0000           -0.3985043             -10.8439
       126        2.0000           -0.3949389             -10.7468
       127        2.0000           -0.3777492             -10.2791 (HOMO)
       128                         -0.2651304              -7.2146 (LUMO)
       129                         -0.2579633              -7.0195
       130                         -0.2474872              -6.7345
       131                         -0.2427095              -6.6045
       132                         -0.2335407              -6.3550
       133                         -0.2327353              -6.3330
       134                         -0.2255992              -6.1389
       135                         -0.2205882              -6.0025
       136                         -0.2126322              -5.7860
       137                         -0.1941734              -5.2837
       138                         -0.1841080              -5.0098
       ...                                ...                  ...
       218                          0.6662511              18.1296
      -------------------------------------------------------------
                  HL-Gap            0.1126187 Eh            3.0645 eV
             Fermi-level           -0.3214398 Eh           -8.7468 eV

     #   Z          covCN         q      C6AA      α(0)
     1   6 C        2.866     0.144    24.863     8.173
     2   8 O        1.705    -0.274    18.553     5.816
     3   6 C        3.643     0.033    20.353     6.486
     4   6 C        2.918    -0.064    29.583     8.919
     5   6 C        2.921    -0.029    28.730     8.790
     6   6 C        2.917    -0.039    28.981     8.828
     7   6 C        2.925    -0.029    28.719     8.788
     8   6 C        2.971    -0.020    28.501     8.757
     9   6 C        3.826     0.047    19.766     6.326
    10   6 C        3.813     0.033    20.007     6.367
    11   6 C        2.973    -0.027    28.674     8.784
    12   6 C        2.923    -0.037    28.926     8.820
    13   6 C        2.917    -0.042    29.034     8.836
    14   6 C        2.921    -0.033    28.817     8.803
    15   6 C        2.917    -0.068    29.694     8.936
    16   6 C        2.866     0.136    25.021     8.199
    17   8 O        1.705    -0.274    18.539     5.813
    18   6 C        3.643     0.036    20.315     6.480
    19   7 N        2.771    -0.085    22.889     7.106
    20   6 C        2.765     0.275    22.357     7.744
    21   6 C        3.062    -0.028    28.645     8.777
    22   6 C        3.116     0.072    26.233     8.390
    23   6 C        3.330     0.489    17.330     6.606
    24   9 F        0.791    -0.199    11.227     3.958
    25   9 F        0.792    -0.197    11.204     3.954
    26   9 F        0.792    -0.194    11.175     3.949
    27   8 O        1.729    -0.170    16.865     5.545
    28   6 C        3.095     0.130    25.045     8.202
    29   6 C        3.753    -0.123    22.907     6.825
    30   6 C        3.022    -0.069    29.685     8.937
    31   8 O        0.860    -0.415    21.990     6.287
    32   6 C        3.759     0.089    19.153     6.239
    33   6 C        2.687     0.367    20.771     7.459
    34   8 O        1.659    -0.366    20.208     6.069
    35   8 O        0.856    -0.385    21.388     6.200
    36   7 N        2.765    -0.098    23.158     7.147
    37   6 C        2.760     0.272    22.395     7.750
    38   6 C        3.061    -0.040    28.927     8.820
    39   6 C        3.124     0.070    26.263     8.392
    40   6 C        3.330     0.487    17.347     6.609
    41   9 F        0.791    -0.203    11.264     3.964
    42   9 F        0.792    -0.201    11.247     3.962
    43   9 F        0.791    -0.191    11.144     3.943
    44   8 O        1.730    -0.158    16.678     5.514
    45   6 C        3.100     0.137    24.898     8.177
    46   6 C        3.753    -0.124    22.941     6.830
    47   6 C        3.025    -0.071    29.739     8.945
    48   8 O        0.859    -0.408    21.831     6.264
    49   1 H        0.925     0.071     2.072     2.251
    50   1 H        0.924     0.044     2.401     2.423
    51   1 H        0.924     0.049     2.337     2.391
    52   1 H        0.926     0.045     2.384     2.415
    53   1 H        0.926     0.041     2.439     2.442
    54   1 H        0.926     0.041     2.433     2.439
    55   1 H        0.926     0.047     2.354     2.400
    56   1 H        0.924     0.074     2.042     2.235
    57   1 H        0.924     0.080     1.976     2.198
    58   1 H        0.926     0.057     2.238     2.339
    59   1 H        0.926     0.042     2.417     2.431
    60   1 H        0.926     0.041     2.429     2.437
    61   1 H        0.926     0.042     2.423     2.434
    62   1 H        0.925     0.074     2.041     2.234
    63   1 H        0.924     0.042     2.429     2.437
    64   1 H        0.924     0.046     2.376     2.411
    65   1 H        0.925     0.070     2.084     2.258
    66   1 H        0.925     0.073     2.051     2.240
    67   1 H        0.925     0.080     1.979     2.200
    68   1 H        0.927     0.065     2.141     2.288
    69   1 H        0.923     0.087     1.912     2.163
    70   1 H        0.804     0.343     0.605     1.222
    71   1 H        0.925     0.083     1.949     2.183
    72   1 H        0.925     0.078     1.998     2.210
    73   1 H        0.925     0.068     2.107     2.270
    74   1 H        0.927     0.060     2.199     2.319

 Mol. C6AA /au·bohr⁶  :      68486.793119
 Mol. C8AA /au·bohr⁸  :    1622258.343948
 Mol. α(0) /au        :        399.752521


Wiberg/Mayer (AO) data.
largest (>0.10) Wiberg bond orders for each atom

 ---------------------------------------------------------------------------
     #   Z sym  total        # sym  WBO       # sym  WBO       # sym  WBO
 ---------------------------------------------------------------------------
     1   6 C    3.936 --     4 C    1.377     8 C    1.323     2 O    1.067
     2   8 O    2.237 --     1 C    1.067     3 C    0.978
     3   6 C    3.939 --     2 O    0.978    49 H    0.978    50 H    0.977
                            51 H    0.976
     4   6 C    3.988 --     5 C    1.438     1 C    1.377    52 H    0.965
                             7 C    0.103
     5   6 C    3.990 --     6 C    1.442     4 C    1.438    53 H    0.971
                             8 C    0.105
     6   6 C    3.991 --     5 C    1.442     7 C    1.426    54 H    0.970
     7   6 C    3.988 --     8 C    1.437     6 C    1.426    55 H    0.966
                             4 C    0.103
     8   6 C    3.980 --     7 C    1.437     1 C    1.323     9 C    0.989
                             5 C    0.105
     9   6 C    3.960 --     8 C    0.989    10 C    0.957    56 H    0.953
                            36 N    0.949
    10   6 C    3.960 --    11 C    0.990    19 N    0.957     9 C    0.957
                            57 H    0.948
    11   6 C    3.982 --    12 C    1.434    16 C    1.323    10 C    0.990
                            14 C    0.106
    12   6 C    3.988 --    11 C    1.434    13 C    1.429    58 H    0.964
                            15 C    0.103
    13   6 C    3.991 --    14 C    1.440    12 C    1.429    59 H    0.970
    14   6 C    3.990 --    13 C    1.440    15 C    1.437    60 H    0.971
                            11 C    0.106
    15   6 C    3.986 --    14 C    1.437    16 C    1.376    61 H    0.965
                            12 C    0.103
    16   6 C    3.935 --    15 C    1.376    11 C    1.323    17 O    1.067
    17   8 O    2.239 --    16 C    1.067    18 C    0.978
    18   6 C    3.939 --    17 O    0.978    62 H    0.978    64 H    0.976
                            63 H    0.976
    19   7 N    3.507 --    20 C    1.259    32 C    0.974    10 C    0.957
                            31 O    0.200
    20   6 C    3.956 --    31 O    1.647    19 N    1.259    21 C    0.966
    21   6 C    3.981 --    22 C    1.529    30 C    1.268    20 C    0.966
    22   6 C    3.895 --    21 C    1.529    27 O    1.110    23 C    0.961
                            28 C    0.135
    23   6 C    3.847 --    22 C    0.961    25 F    0.956    26 F    0.950
                            24 F    0.941
    24   9 F    1.076 --    23 C    0.941
    25   9 F    1.080 --    23 C    0.956
    26   9 F    1.081 --    23 C    0.950
    27   8 O    2.446 --    28 C    1.123    22 C    1.110
    28   6 C    3.907 --    30 C    1.568    27 O    1.123    29 C    1.032
                            22 C    0.135
    29   6 C    3.988 --    28 C    1.032    65 H    0.980    66 H    0.971
                            67 H    0.960
    30   6 C    3.977 --    28 C    1.568    21 C    1.268    68 H    0.972
    31   8 O    2.051 --    20 C    1.647    19 N    0.200
    32   6 C    3.961 --    36 N    0.986    19 N    0.974    69 H    0.936
                            33 C    0.913
    33   6 C    3.926 --    35 O    1.776    34 O    1.137    32 C    0.913
    34   8 O    2.203 --    33 C    1.137    70 H    0.858    35 O    0.172
    35   8 O    2.063 --    33 C    1.776    34 O    0.172
    36   7 N    3.487 --    37 C    1.228    32 C    0.986     9 C    0.949
                            48 O    0.201
    37   6 C    3.957 --    48 O    1.687    36 N    1.228    38 C    0.963
    38   6 C    3.980 --    39 C    1.523    47 C    1.273    37 C    0.963
    39   6 C    3.895 --    38 C    1.523    44 O    1.116    40 C    0.962
                            45 C    0.135
    40   6 C    3.845 --    39 C    0.962    43 F    0.956    42 F    0.951
                            41 F    0.937
    41   9 F    1.073 --    40 C    0.937
    42   9 F    1.075 --    40 C    0.951
    43   9 F    1.084 --    40 C    0.956
    44   8 O    2.460 --    45 C    1.133    39 C    1.116
    45   6 C    3.907 --    47 C    1.558    44 O    1.133    46 C    1.033
                            39 C    0.135
    46   6 C    3.987 --    45 C    1.033    73 H    0.981    72 H    0.969
                            71 H    0.959
    47   6 C    3.975 --    45 C    1.558    38 C    1.273    74 H    0.973
    48   8 O    2.029 --    37 C    1.687    36 N    0.201
    49   1 H    0.994 --     3 C    0.978
    50   1 H    0.998 --     3 C    0.977
    51   1 H    0.998 --     3 C    0.976
    52   1 H    0.998 --     4 C    0.965
    53   1 H    0.998 --     5 C    0.971
    54   1 H    0.998 --     6 C    0.970
    55   1 H    0.997 --     7 C    0.966
    56   1 H    0.994 --     9 C    0.953
    57   1 H    0.993 --    10 C    0.948
    58   1 H    0.996 --    12 C    0.964
    59   1 H    0.998 --    13 C    0.970
    60   1 H    0.998 --    14 C    0.971
    61   1 H    0.998 --    15 C    0.965
    62   1 H    0.994 --    18 C    0.978
    63   1 H    0.998 --    18 C    0.976
    64   1 H    0.998 --    18 C    0.976
    65   1 H    0.995 --    29 C    0.980
    66   1 H    0.994 --    29 C    0.971
    67   1 H    0.993 --    29 C    0.960
    68   1 H    0.995 --    30 C    0.972
    69   1 H    0.992 --    32 C    0.936
    70   1 H    0.882 --    34 O    0.858
    71   1 H    0.993 --    46 C    0.959
    72   1 H    0.993 --    46 C    0.969
    73   1 H    0.995 --    46 C    0.981
    74   1 H    0.996 --    47 C    0.973
 ---------------------------------------------------------------------------

Topologies differ in total number of bonds
Writing topology from bond orders to xtbtopo.mol

molecular dipole:
                 x           y           z       tot (Debye)
 q only:       -2.053      -0.440      -2.518
   full:       -2.257      -0.342      -2.336       8.302
molecular quadrupole (traceless):
                xx          xy          yy          xz          yz          zz
 q only:       20.646      19.390     -16.760       1.744     -21.849      -3.886
  q+dip:       18.510      21.331     -22.163       3.190     -24.645       3.653
   full:       20.232      19.410     -20.533       2.567     -23.672       0.301

           -------------------------------------------------
          |                Geometry Summary                 |
           -------------------------------------------------

      molecular mass/u    :      680.5490730
   center of mass at/Å    :        0.2598866       0.2067775       0.3205277
  moments of inertia/u·Å² :        0.4633353E+04   0.9076397E+04   0.9891204E+04
rotational constants/cm⁻¹ :        0.3638322E-02   0.1857304E-02   0.1704305E-02

 * 73 selected distances

     #   Z          #   Z                                           value/Å
     1   6 C        2   8 O                                       1.3604356
     2   8 O        3   6 C                                       1.4095315
     1   6 C        4   6 C                                       1.3898655
     4   6 C        5   6 C                                       1.3837816
     5   6 C        6   6 C                                       1.3814922
     6   6 C        7   6 C                                       1.3838862
     1   6 C        8   6 C                                       1.4038070
     7   6 C        8   6 C                                       1.3839750
     9   6 C       10   6 C                                       1.5429222 (max)
    11   6 C       12   6 C                                       1.3854040
    12   6 C       13   6 C                                       1.3840201
    13   6 C       14   6 C                                       1.3822475
    14   6 C       15   6 C                                       1.3843556
    11   6 C       16   6 C                                       1.4029133
    15   6 C       16   6 C                                       1.3904053
    16   6 C       17   8 O                                       1.3597226
    17   8 O       18   6 C                                       1.4077725
    10   6 C       19   7 N                                       1.4526140
    19   7 N       20   6 C                                       1.3423815
    21   6 C       22   6 C                                       1.3695870
    22   6 C       23   6 C                                       1.4892305
    23   6 C       24   9 F                                       1.3467287
    23   6 C       25   9 F                                       1.3370760
    23   6 C       26   9 F                                       1.3426562
    22   6 C       27   8 O                                       1.3508320
    27   8 O       28   6 C                                       1.3468397
    28   6 C       29   6 C                                       1.4838987
    21   6 C       30   6 C                                       1.4194121
    28   6 C       30   6 C                                       1.3643563
    20   6 C       31   8 O                                       1.2178034
    19   7 N       32   6 C                                       1.4464586
    33   6 C       34   8 O                                       1.3353266
    33   6 C       35   8 O                                       1.1967771
     9   6 C       36   7 N                                       1.4601354
    32   6 C       36   7 N                                       1.4397884
    36   7 N       37   6 C                                       1.3520417
    38   6 C       39   6 C                                       1.3698822
    39   6 C       40   6 C                                       1.4872673
    40   6 C       41   9 F                                       1.3489783
    40   6 C       42   9 F                                       1.3408465
    40   6 C       43   9 F                                       1.3399619
    39   6 C       44   8 O                                       1.3479069
    44   8 O       45   6 C                                       1.3427224
    45   6 C       46   6 C                                       1.4833973
    38   6 C       47   6 C                                       1.4189541
    45   6 C       47   6 C                                       1.3659572
    37   6 C       48   8 O                                       1.2120049
     3   6 C       49   1 H                                       1.0887847
     3   6 C       50   1 H                                       1.0943227
     3   6 C       51   1 H                                       1.0933935
     4   6 C       52   1 H                                       1.0778580
     5   6 C       53   1 H                                       1.0798934
     6   6 C       54   1 H                                       1.0788020
     7   6 C       55   1 H                                       1.0793340
     9   6 C       56   1 H                                       1.0967878
    10   6 C       57   1 H                                       1.0938323
    12   6 C       58   1 H                                       1.0796999
    13   6 C       59   1 H                                       1.0787950
    14   6 C       60   1 H                                       1.0797008
    15   6 C       61   1 H                                       1.0782391
    18   6 C       62   1 H                                       1.0882945
    18   6 C       63   1 H                                       1.0946913
    18   6 C       64   1 H                                       1.0940136
    29   6 C       65   1 H                                       1.0852803
    29   6 C       66   1 H                                       1.0877736
    29   6 C       67   1 H                                       1.0896938
    30   6 C       68   1 H                                       1.0692469
    32   6 C       69   1 H                                       1.1021151
    34   8 O       70   1 H                                       0.9704041 (min)
    46   6 C       71   1 H                                       1.0895057
    46   6 C       72   1 H                                       1.0877902
    46   6 C       73   1 H                                       1.0853454
    47   6 C       74   1 H                                       1.0701313

 * 6 distinct bonds (by element types)

   Z      Z             #   av. dist./Å        max./Å        min./Å
   1 H    6 C          25     1.0857330     1.1021151     1.0692469
   6 C    6 C          23     1.4109138     1.5429222     1.3643563
   6 C    7 N           6     1.4155699     1.4601354     1.3423815
   1 H    8 O           1     0.9704041     0.9704041     0.9704041
   6 C    8 O          12     1.3239729     1.4095315     1.1967771
   6 C    9 F           6     1.3427079     1.3489783     1.3370760


optimized geometry written to: xtbopt.xyz


           -------------------------------------------------
          | TOTAL ENERGY             -148.652531837901 Eh   |
          | GRADIENT NORM               0.000470679507 Eh/α |
          | HOMO-LUMO GAP               3.064511297138 eV   |
           -------------------------------------------------

------------------------------------------------------------------------
 * finished run on 2022/03/16 at 23:56:35.952     
------------------------------------------------------------------------
 total:
 * wall-time:     0 d,  0 h,  0 min, 47.474 sec
 *  cpu-time:     0 d,  0 h, 16 min, 25.879 sec
 * ratio c/w:    20.767 speedup
 SCF:
 * wall-time:     0 d,  0 h,  0 min,  0.583 sec
 *  cpu-time:     0 d,  0 h,  0 min,  9.725 sec
 * ratio c/w:    16.680 speedup
 ANC optimizer:
 * wall-time:     0 d,  0 h,  0 min, 46.756 sec
 *  cpu-time:     0 d,  0 h, 16 min, 12.371 sec
 * ratio c/w:    20.797 speedup

