68
 energy: -121.531369664173 gnorm: 0.000290007625 xtb: 6.3.3 (4ae9cef)
C        -3.38096235161236    2.08694530131211    0.53774738333884
O        -3.15983241966662    3.02358335004122   -0.42599061944067
C        -4.19415151142573    3.92684281508056   -0.74017394473812
C        -4.49939423710055    2.05577544321971    1.36263819894623
C        -4.62005531780207    1.08237279328513    2.33907839552759
C        -3.63025429794707    0.13369632951640    2.51192353019179
C        -2.52031046064531    0.15435993461883    1.68635258632304
C        -2.38640451602886    1.11183981731961    0.69555444103035
C        -1.19261816822716    1.11032424622903   -0.22598769742969
C         0.10780327992461    1.55746677809234    0.47939945462657
C         0.91114711642454    2.53649463646546   -0.35529233827307
C         0.30267644268505    3.75845801268877   -0.61418073979274
C         0.93876117286250    4.74476274656960   -1.34316739422098
C         2.21940503011266    4.51640730322765   -1.81105077669879
C         2.84736652657125    3.31160667223377   -1.55914396797175
C         2.20728157115989    2.30559449835384   -0.83774158269548
O         2.78031269253185    1.09481269370836   -0.57763952245446
C         4.05948131457424    0.81795072675332   -1.10250506451036
N         0.75372894860831    0.29876314499625    0.79654126289621
C         1.58556911988029    0.18672799366252    1.86726563586430
C         2.15913996031476   -1.17681241883623    2.08918216564320
C         3.52168746893721   -1.36905300683921    1.90371032491501
C         4.08765758278757   -2.61285844420921    2.11091062977712
C         3.27383755937544   -3.65180154440423    2.52355788952820
F         3.81603304209720   -4.86781228975146    2.72928320360750
C         1.92033046203667   -3.47778258941655    2.74932092239314
C         1.36575088682858   -2.23029069146822    2.52926804243487
O         1.82839433739853    1.13446956783747    2.58138040890988
C         0.36608114514143   -0.73208148405556   -0.13029367810743
C         1.41735299999760   -0.95890993275089   -1.25966908666162
O         1.18501524628488   -0.30011525544180   -2.39208233989336
O         2.32275476961196   -1.72849040260944   -1.12864234464238
N        -0.88101968216920   -0.24658247268647   -0.67308532908306
C        -1.79300888725670   -0.99824660591767   -1.35393944229508
C        -1.39229911224726   -2.43562884529831   -1.50254608703322
C        -1.68474939280694   -3.31895948668622   -0.46870223765640
C        -1.33667838815123   -4.65257389354639   -0.57148191527100
C        -0.69484831064664   -5.08353533213853   -1.71935211961648
F        -0.35036943269818   -6.38004220316789   -1.82283559965359
C        -0.40556355385574   -4.22531506709377   -2.76433500035370
C        -0.76187558920387   -2.89326746918017   -2.65182884570861
O        -2.81641596530929   -0.52675253095316   -1.79403382759854
H        -4.40716531035135    4.60068351757501    0.09576405416701
H        -3.82706919280374    4.50794471721080   -1.58482819875175
H        -5.10767445302727    3.40136976663761   -1.03173673119832
H        -5.28420261990798    2.78652827226930    1.25066594946576
H        -5.49707180680497    1.07138322304209    2.96840870624421
H        -3.72318749089152   -0.61967621305315    3.27874440480565
H        -1.74457045596436   -0.58750303281494    1.81026088565469
H        -1.42516935827897    1.74168233933362   -1.08909711586762
H        -0.11879243056644    2.05234360408141    1.43206402184603
H        -0.69336360780125    3.92791238066297   -0.23308108878311
H         0.44391340615935    5.68399072557415   -1.53380960580460
H         2.74026039041108    5.27738560828029   -2.37210559448010
H         3.85001379575086    3.16059646096111   -1.92390255598575
H         4.08188540994480    0.95053363850143   -2.18771459358087
H         4.82484850314505    1.44247014560987   -0.63284765315700
H         4.24186688564261   -0.23117875765664   -0.87374338991222
H         4.13374219181028   -0.53626985301857    1.59730295214902
H         5.14152750322357   -2.78417244477716    1.96062358315406
H         1.32259457593334   -4.30747955482675    3.09216105393457
H         0.31442503340793   -2.07402548496184    2.72665189029205
H         0.26482849708743   -1.70009523872205    0.37956704529004
H         0.40920857465481    0.28070143514783   -2.31715737601150
H        -2.19966117420508   -2.96062431400990    0.41087783841440
H        -1.55662431496246   -5.35443478302146    0.21704515816187
H         0.08968321913413   -4.59999445202203   -3.64539333881725
H        -0.55100385214065   -2.21241454467678   -3.46213227542323
