68
 energy: -121.498861026372 gnorm: 0.106453656849 xtb: 6.3.3 (4ae9cef)
C        -3.17143500000000    2.14956900000000    0.16068000000000
O        -2.89498100000000    2.89309600000000   -0.95812000000000
C        -4.00326900000000    3.03061500000000   -1.84436200000000
C        -4.32756900000000    2.34887900000000    0.92159000000000
C        -4.54585700000000    1.59946000000000    2.07787200000000
C        -3.60687000000000    0.65702100000000    2.48700800000000
C        -2.44487400000000    0.46412000000000    1.73885800000000
C        -2.20624800000000    1.21253600000000    0.56910100000000
C        -0.92893900000000    1.00909800000000   -0.23731400000000
C         0.33465000000000    1.39375700000000    0.58706900000000
C         0.96679100000000    2.67277100000000    0.05626000000000
C         0.33675900000000    3.88662400000000    0.41780000000000
C         0.76928300000000    5.11505000000000   -0.08192300000000
C         1.83793300000000    5.15904200000000   -0.96408800000000
C         2.48587000000000    3.97928300000000   -1.32433800000000
C         2.07059700000000    2.74743900000000   -0.80049000000000
O         2.70052400000000    1.59721600000000   -1.18761900000000
C         4.10419800000000    1.63410600000000   -0.92203400000000
N         1.14555500000000    0.16839600000000    0.62437700000000
C         2.00242900000000   -0.04976900000000    1.68734300000000
C         2.49966500000000   -1.41775200000000    1.92839000000000
C         3.59117200000000   -1.92146800000000    1.21746400000000
C         4.03002400000000   -3.22154700000000    1.46709800000000
C         3.38993700000000   -3.99205200000000    2.43399100000000
F         3.82127100000000   -5.23790100000000    2.67518400000000
C         2.32245400000000   -3.48276600000000    3.16945600000000
C         1.87352700000000   -2.18571800000000    2.91929500000000
O         2.29530000000000    0.80626600000000    2.51868000000000
C         0.61671600000000   -0.84873000000000   -0.27701300000000
C         1.50072300000000   -0.99184100000000   -1.56755600000000
O         0.95160500000000   -0.47630800000000   -2.70059000000000
O         2.61423900000000   -1.50508500000000   -1.58460000000000
N        -0.73521400000000   -0.40294300000000   -0.59340300000000
C        -1.65182200000000   -1.10533500000000   -1.35227000000000
C        -1.55554300000000   -2.58095800000000   -1.38697200000000
C        -1.61913000000000   -3.32088100000000   -0.19892400000000
C        -1.56724900000000   -4.71397600000000   -0.25488900000000
C        -1.46357600000000   -5.35114400000000   -1.48871600000000
F        -1.43175600000000   -6.69003600000000   -1.54048300000000
C        -1.42157900000000   -4.62112900000000   -2.67272900000000
C        -1.47930200000000   -3.22711700000000   -2.62727500000000
O        -2.49109200000000   -0.55329500000000   -2.05376000000000
H        -4.68004900000000    3.81756200000000   -1.49612500000000
H        -3.61362400000000    3.33440300000000   -2.81938500000000
H        -4.54887400000000    2.08750500000000   -1.97303000000000
H        -5.05796000000000    3.10148200000000    0.64414400000000
H        -5.44456800000000    1.76150100000000    2.66904900000000
H        -3.77826800000000    0.08192100000000    3.39503800000000
H        -1.71671500000000   -0.26758400000000    2.08357900000000
H        -0.96653300000000    1.55204800000000   -1.18879900000000
H         0.07101600000000    1.60345800000000    1.63380200000000
H        -0.52270600000000    3.87928900000000    1.08719800000000
H         0.25152900000000    6.02980000000000    0.19836400000000
H         2.16354700000000    6.10696300000000   -1.37930800000000
H         3.30296500000000    4.02721000000000   -2.03652700000000
H         4.64067500000000    2.20036400000000   -1.69219100000000
H         4.31446900000000    2.04179400000000    0.07506300000000
H         4.47911600000000    0.60611800000000   -0.95124100000000
H         4.09800900000000   -1.31859600000000    0.46727100000000
H         4.86570200000000   -3.63785500000000    0.91167600000000
H         1.85549700000000   -4.09594600000000    3.93282400000000
H         1.05555800000000   -1.76955400000000    3.50178300000000
H         0.57854900000000   -1.82941600000000    0.20145300000000
H         0.10555600000000   -0.00919500000000   -2.53939600000000
H        -1.73280400000000   -2.82313300000000    0.76019500000000
H        -1.62556000000000   -5.31053400000000    0.64951900000000
H        -1.35499300000000   -5.14263200000000   -3.62274700000000
H        -1.45445200000000   -2.65356600000000   -3.55025600000000
68
 energy: -121.513609882478 gnorm: 0.036942863666 xtb: 6.3.3 (4ae9cef)
C        -3.16183207270916    2.14447885164586    0.16186114201484
O        -2.89998155764902    2.86730529918889   -0.97267583236531
C        -4.00500817093971    3.03743190303125   -1.84769809737862
C        -4.31423787377712    2.33963070973327    0.92152629862203
C        -4.52895046845809    1.59804550313306    2.07106963550281
C        -3.59423459325826    0.65910988394848    2.47524113817473
C        -2.44006143137098    0.47025725767953    1.73108628321705
C        -2.20557497446334    1.20528011260506    0.56986566991627
C        -0.93232722474618    1.00876879526281   -0.22857679979907
C         0.33093265794212    1.39824366568956    0.58541483776703
C         0.95350948538593    2.67568728125811    0.04714243177740
C         0.32919611941945    3.87554286361717    0.40512328594227
C         0.76168730571961    5.09588191899360   -0.08574817245949
C         1.83232291840531    5.14352940018939   -0.96152712580281
C         2.47671797942199    3.97232687394674   -1.31621220754471
C         2.05535594329595    2.74099443509154   -0.80840003594463
O         2.70452294745590    1.58342599533381   -1.16246200958327
C         4.10588997351752    1.62043869520269   -0.92537765530419
N         1.13574834794562    0.17321041538544    0.62418616147491
C         1.97387215776828   -0.04524270692153    1.68526478396410
C         2.48082128061270   -1.42958629490400    1.90303875609793
C         3.57586831695574   -1.93324208896907    1.20846412490003
C         4.02944071410932   -3.21690219176373    1.46918123424531
C         3.39120268533152   -3.97857205084506    2.43427295403893
F         3.81761722383560   -5.22966759907319    2.67397775632152
C         2.32696774401147   -3.47590670332076    3.16550933776798
C         1.87645589531621   -2.19267783561962    2.90178806580690
O         2.26588921371529    0.83284171470863    2.47752978094551
C         0.61842351016281   -0.84451599208107   -0.26826793578001
C         1.50205838344642   -0.95243483587555   -1.55491634888816
O         0.95684906598991   -0.48522962117913   -2.68784970597650
O         2.56940828422630   -1.49632124468916   -1.55915176474568
N        -0.73008886284818   -0.40529034332088   -0.57454765210179
C        -1.62921745094448   -1.09394605671095   -1.35485674578770
C        -1.52505157081299   -2.57878416464496   -1.38246363680480
C        -1.59605977692364   -3.32276401293799   -0.20504731678413
C        -1.56975830896818   -4.70715729768604   -0.25630443024642
C        -1.47003344057286   -5.33625978631979   -1.48746894254958
F        -1.43051776936847   -6.67635556042879   -1.53799661743720
C        -1.42377105166952   -4.61234670350031   -2.66790212721721
C        -1.46705991621778   -3.22845764760681   -2.61436615255485
O        -2.49502323890349   -0.52338693353900   -1.99841559733217
H        -4.68142681529191    3.82154097626821   -1.49505546293645
H        -3.59689087767078    3.33526404914647   -2.81419385758412
H        -4.54999410844124    2.09739883522077   -1.96741608143542
H        -5.04636992633597    3.07991494144752    0.63128614302331
H        -5.42608863595430    1.75770319503484    2.65543250777946
H        -3.76459784593853    0.08223939845914    3.37494247946094
H        -1.71338892882140   -0.25998097394496    2.06464077054482
H        -0.98876483053139    1.59554517018157   -1.15526428633947
H         0.05755281617079    1.61004235720863    1.62844156040364
H        -0.51651525561653    3.85811196507698    1.08043161065086
H         0.25615993596865    6.00685032036306    0.20626778398177
H         2.16295967322688    6.08853924831088   -1.37142583320015
H         3.30254582484722    4.01466688711272   -2.01218844464224
H         4.63184735252716    2.19738163878277   -1.69173698249796
H         4.31527713778136    2.03840911081503    0.06390086730207
H         4.46049595143337    0.58947532820962   -0.96307462267887
H         4.07778298349253   -1.33083620897568    0.46664555165812
H         4.86323180988665   -3.63208366793221    0.92116381408944
H         1.86137244818686   -4.08679653727311    3.92619173293086
H         1.06188890139888   -1.77822524816956    3.48041382589401
H         0.61205876772113   -1.83365141039304    0.20835983277664
H         0.11752560284180   -0.01531102667988   -2.54033096897489
H        -1.71397342216629   -2.82536652559230    0.74785977325480
H        -1.62586537240514   -5.30212575814355    0.64428491759418
H        -1.35803627766553   -5.13225801675419   -3.61337259661959
H        -1.45075630803381   -2.65383195148722   -3.52951380254500
68
 energy: -121.517450650646 gnorm: 0.020675401806 xtb: 6.3.3 (4ae9cef)
C        -3.15516198432219    2.13297465060202    0.15402059640029
O        -2.90041948952746    2.83820549121879   -0.99104739503110
C        -4.00476449829669    3.04459783821725   -1.85288138986864
C        -4.30595882160635    2.32404805236448    0.91258364061756
C        -4.51447715812727    1.59218698590192    2.06451632338926
C        -3.58076385812608    0.65620407219286    2.47005636419109
C        -2.43037967340826    0.47158350195546    1.72743520403413
C        -2.20087243801025    1.20010418032795    0.57137148867617
C        -0.93462062306495    1.00905838533926   -0.22406326569830
C         0.32413274492764    1.39926429238346    0.58829100687908
C         0.94003411936449    2.67053419060705    0.04288014826619
C         0.31523637137711    3.86113817276971    0.39527272549560
C         0.74993834156715    5.07717991978441   -0.08975553849295
C         1.82549949670524    5.12330441418657   -0.95963358477590
C         2.47110617543897    3.95538919296368   -1.30597512530566
C         2.04523047276403    2.72553299972235   -0.80588028655659
O         2.69946549680734    1.55869241744820   -1.13380898697331
C         4.10178589440865    1.59669884143355   -0.93372037249140
N         1.12975243187717    0.18112853565832    0.62333420771686
C         1.96094776244148   -0.03171341391937    1.68011645348189
C         2.46644186570773   -1.43007280446921    1.88315658340289
C         3.56292943555955   -1.93549613411068    1.19773249467926
C         4.02443333410139   -3.21137491299937    1.46381696790715
C         3.38692644181954   -3.96724441531127    2.42929225031972
F         3.81903697525445   -5.21836197005733    2.67781002774623
C         2.32145537596765   -3.47028317379907    3.15655449780071
C         1.86900044677057   -2.19422455369677    2.88142962724129
O         2.23703852562340    0.86122778108315    2.45235230618172
C         0.61590826421347   -0.83445720663365   -0.26367721853991
C         1.48796172827544   -0.96085488255911   -1.55478725198610
O         0.97791433501372   -0.44871222883809   -2.66750780957827
O         2.55861319481132   -1.47543440923778   -1.53085996690893
N        -0.73419440131167   -0.40595729528392   -0.55074278859745
C        -1.63173366704679   -1.08116249562138   -1.33361079453072
C        -1.49958057332208   -2.56951561017445   -1.37479106502976
C        -1.57183963084904   -3.31747781103101   -0.20446717967673
C        -1.55989140141471   -4.69772517204300   -0.25408563795010
C        -1.46543887891661   -5.32023695007432   -1.48590935582972
F        -1.43470072436597   -6.66262830282562   -1.53704117458881
C        -1.41769704372745   -4.59922214617307   -2.66511207843898
C        -1.44859851358317   -3.21952232820109   -2.60361795034386
O        -2.51276280525059   -0.49745105988699   -1.93729221101587
H        -4.67088887854119    3.83324608778210   -1.49210109780413
H        -3.58224193637739    3.34350571949878   -2.81054163739990
H        -4.56355705690431    2.11433317342115   -1.97518805940407
H        -5.03836157665046    3.05577538397329    0.60936976972630
H        -5.41006479153451    1.75287538587903    2.64493088277906
H        -3.74917545060457    0.07735842539862    3.36448893036803
H        -1.70127915435827   -0.25806402000366    2.04878441045642
H        -1.01025323824894    1.61732388133880   -1.13645005493934
H         0.04834568133087    1.61649896361335    1.62933640429462
H        -0.52524606915284    3.83244128152809    1.07123975435729
H         0.25328857152811    5.98684763906326    0.20934264567738
H         2.16529170089520    6.06624721335425   -1.36163837230449
H         3.30984952230996    3.99090584167216   -1.98420204522576
H         4.61386431204834    2.18017557451980   -1.70366003292329
H         4.32983214102321    2.01531215272540    0.05033719276137
H         4.43916670725183    0.56369830763176   -0.98684771713239
H         4.05535727796056   -1.33619886863684    0.45281008056477
H         4.86455121106402   -3.62288058268515    0.92881127213855
H         1.86391853119767   -4.07658005913539    3.92247032934617
H         1.05264884549069   -1.78201624353567    3.45464484784483
H         0.64419154951880   -1.82562127480184    0.21632674711059
H         0.12764190087762   -0.00323156009244   -2.53225789147100
H        -1.67879763197616   -2.81925961910762    0.74685633407821
H        -1.62416596482673   -5.29303050693978    0.64264591730402
H        -1.36355801933039   -5.11876718373000   -3.60828626590785
H        -1.43729223051104   -2.64081975194535   -3.51297583051349
68
 energy: -121.518967711668 gnorm: 0.012997294904 xtb: 6.3.3 (4ae9cef)
C        -3.15661708848380    2.11937929830351    0.14348222658168
O        -2.90027194256320    2.81372853675670   -1.00575187918938
C        -4.00403829650873    3.05386978919710   -1.85823579387028
C        -4.30790156394741    2.30711211926808    0.90104801639269
C        -4.50995296328037    1.58265602809635    2.05939462478222
C        -3.57412665959834    0.65063756121004    2.47079666752522
C        -2.42415484428722    0.46820744892854    1.72802989506919
C        -2.19950457461277    1.19555184448764    0.57212400373145
C        -0.93489417515967    1.00834660122062   -0.21970129106898
C         0.31831413163980    1.39889428448769    0.59502279719043
C         0.93213924070905    2.66464402763026    0.04663309755619
C         0.30111798086755    3.85270162967407    0.39024292378182
C         0.73976219730987    5.06701418848309   -0.09376049255371
C         1.82436011604738    5.10796999748063   -0.95396046834674
C         2.47405383818018    3.93937568566135   -1.29140911096510
C         2.04382278063023    2.71149729727661   -0.79295835119326
O         2.68942528578162    1.53733834851943   -1.11009885880514
C         4.09565980629631    1.56771111537658   -0.94761366615825
N         1.12579172686869    0.18683686634675    0.62856261399759
C         1.95820758187499   -0.01943329625957    1.68295274764864
C         2.46159398154636   -1.42257463512644    1.87811476127351
C         3.55564840913082   -1.92938265242524    1.19039820806061
C         4.01988324705831   -3.20404414124405    1.45750631924423
C         3.38382681653706   -3.95768614241993    2.42547474399350
F         3.82327529243458   -5.20681972423020    2.68188752582016
C         2.31294032433590   -3.46574859897689    3.14827945011363
C         1.85973854806718   -2.19057446601620    2.87023760993944
O         2.22455528394617    0.88082160984865    2.44858784595106
C         0.61642927850699   -0.82547849824074   -0.25855084078715
C         1.50008724836359   -0.92424234614780   -1.54624338123409
O         0.97617846676506   -0.44384874573436   -2.66131142742542
O         2.55116432245489   -1.48948838739620   -1.52143074858692
N        -0.73496613077114   -0.40477517647708   -0.53644791582079
C        -1.63702284046796   -1.07115254507539   -1.31575446161298
C        -1.48536244459865   -2.55856097441474   -1.36979820131007
C        -1.54900828275026   -3.30759327420829   -0.20012956462427
C        -1.54300791614760   -4.68767461036637   -0.25052683011278
C        -1.45851625369612   -5.30688683714722   -1.48485155135166
F        -1.43998765521589   -6.65086217562137   -1.53769882652542
C        -1.40908433020700   -4.58601931658491   -2.66422977506695
C        -1.43612600719977   -3.20652656617669   -2.59912215944636
O        -2.53653161271552   -0.48338317259428   -1.88710171752293
H        -4.65307975886435    3.85209278536077   -1.48630907966944
H        -3.57473995386149    3.35686741685357   -2.81088381197573
H        -4.58433079834469    2.13704566393699   -1.99034994145193
H        -5.04314437605978    3.03135112708874    0.58796141132974
H        -5.40474833725244    1.74534463742455    2.63908677132590
H        -3.73925893003640    0.07290667805963    3.36569862038503
H        -1.68856492288948   -0.25724197096947    2.04432105187636
H        -1.01608668129926    1.61877583679218   -1.12858983725052
H         0.04141480785063    1.61847590504654    1.63525171787881
H        -0.54355342818812    3.81697961022171    1.06033122153532
H         0.24400431852490    5.97728655736903    0.20192595829319
H         2.17015961753279    6.04890308219213   -1.35370559378573
H         3.32187075808357    3.96985579629208   -1.95841610605852
H         4.59244924072724    2.15338428684658   -1.72632539393656
H         4.35383359766890    1.97825397893337    0.03381504869228
H         4.42054875006849    0.53217819559623   -1.01937615365474
H         4.04143935494000   -1.33175118180193    0.43978566705166
H         4.86459246662557   -3.61340251626815    0.92896503687449
H         1.85850216790415   -4.07117302268981    3.91578872472638
H         1.03652037474575   -1.78182173137263    3.43635633730531
H         0.66411678655414   -1.81827611660144    0.22000045761146
H         0.13292210413019    0.01412665805645   -2.53086767103701
H        -1.64253661582914   -2.80825915166515    0.75237971305220
H        -1.61146686297022   -5.28423478718689    0.64439954481377
H        -1.36362285491025   -5.10540557019093   -3.60729025236505
H        -1.42414214799176   -2.62380016269393   -3.50604120664138
68
 energy: -121.520180404053 gnorm: 0.011298227691 xtb: 6.3.3 (4ae9cef)
C        -3.16423729061593    2.10331174368755    0.13161364986510
O        -2.90218109710504    2.78867010229522   -1.01955023177711
C        -4.00422646855664    3.06797836813326   -1.86304737973723
C        -4.31789911976909    2.28651398535922    0.88710165437812
C        -4.51297186594249    1.56916566179247    2.05274255519798
C        -3.57231728448781    0.64498863596701    2.47343171650957
C        -2.42088804146012    0.46464245569798    1.73121822486571
C        -2.20143833413908    1.19048953688486    0.57220566142408
C        -0.93371546873737    1.00573952979308   -0.21424813697830
C         0.31350450370117    1.39825353935742    0.60417962477206
C         0.92753865791759    2.65992309785917    0.05486348530320
C         0.28838846061875    3.84875823968162    0.38581167933157
C         0.73252340210812    5.06102708755604   -0.10015981594225
C         1.83006640172486    5.09444575665249   -0.94521176674841
C         2.48457169586195    3.92383361548435   -1.27198045640628
C         2.04695211111166    2.69827579687945   -0.77472336294528
O         2.67571367680910    1.51617567175719   -1.08837364633164
C         4.08757353039298    1.52948181188676   -0.97020295240677
N         1.12254469922710    0.19027346030325    0.63791353034071
C         1.95785086967966   -0.00902664736467    1.69248917559733
C         2.46166829196132   -1.41127745069599    1.88234117539438
C         3.55240521016991   -1.91773993079796    1.18822771662598
C         4.01646260684849   -3.19368904951306    1.45303332745797
C         3.38173563554017   -3.94728074681927    2.42281775186899
F         3.82727150952230   -5.19429198963886    2.68370411744209
C         2.30383161385429   -3.46103990700477    3.14069850866675
C         1.85102973014760   -2.18433656325644    2.86545547245124
O         2.22193257730021    0.89594382865149    2.45444465772782
C         0.61961140447285   -0.82109409039677   -0.25334308709159
C         1.49859442851384   -0.91525685505794   -1.54667816422039
O         0.98200060323749   -0.40972354200209   -2.65307259343039
O         2.54875845735634   -1.48743590203847   -1.52186223637033
N        -0.73154133734205   -0.40504045672082   -0.52749109063401
C        -1.64243535476808   -1.06561240503441   -1.29853764551774
C        -1.47765577491293   -2.54945262206245   -1.36539007960692
C        -1.52726433422430   -3.29807203051637   -0.19394031034921
C        -1.52151469318945   -4.67870129587879   -0.24648241260699
C        -1.45006603887888   -5.29514673989024   -1.48392962574661
F        -1.44215250436320   -6.63995249712170   -1.53941420955496
C        -1.39970190552476   -4.57319690736690   -2.66337303426583
C        -1.42801999587552   -3.19314490049958   -2.59657602941396
O        -2.56048269614988   -0.47880298619475   -1.84049704071608
H        -4.63006587061896    3.87884154235684   -1.47585053555031
H        -3.57159093983415    3.37531863809521   -2.81293621345372
H        -4.61100742753504    2.16842747816982   -2.00794472500358
H        -5.05948332196002    3.00098687415926    0.56554978883849
H        -5.40795425119783    1.73295198197668    2.63243677839512
H        -3.73308488334851    0.07173245372725    3.37250736313768
H        -1.67677165051502   -0.25296071359442    2.04795734143217
H        -1.01223931833580    1.61184174814917   -1.12430037859368
H         0.03400823026339    1.61821786641720    1.64377476510974
H        -0.56615427793214    3.80954704742410    1.04448563580820
H         0.23189082938778    5.97285957667940    0.18281880824542
H         2.18073064145821    6.03288186645727   -1.34617381749571
H         3.33964715139995    3.95100367521513   -1.92990819295194
H         4.56577995074043    2.11648172266258   -1.76011937624488
H         4.38399383036322    1.92612297697481    0.00848292901720
H         4.39947891289664    0.49057545787525   -1.06441407388366
H         4.03511556889508   -1.31978250795793    0.43447545619730
H         4.86133267260137   -3.60280804226151    0.92404513072951
H         1.84640541557391   -4.06973792690434    3.90371455189524
H         1.01978597797455   -1.77967532139312    3.42441973226268
H         0.67631437256561   -1.81334398902467    0.22238340242424
H         0.13689229461366    0.04519170784532   -2.52051836725800
H        -1.60798063422556   -2.79805662375034    0.76037021615844
H        -1.58545599279858   -5.27689971253126    0.64783662863277
H        -1.35758208460931   -5.09167708248499   -3.60722650674312
H        -1.41382666785786   -2.60661710409047   -3.50207371752814
68
 energy: -121.521477991545 gnorm: 0.011620785431 xtb: 6.3.3 (4ae9cef)
C        -3.18051838193605    2.08151451512057    0.11650725570956
O        -2.90949468040910    2.75522688100569   -1.03668510287642
C        -4.00699378190079    3.09227488225224   -1.86609947058062
C        -4.34007518003496    2.25543839097199    0.86622930387137
C        -4.52603965240228    1.54813762111667    2.04095252521984
C        -3.57574282656272    0.64047079302910    2.47744020146241
C        -2.42022082297601    0.46508371970436    1.73881601863242
C        -2.20784975594936    1.18587467704957    0.57359450677283
C        -0.93375338196843    1.00405117863380   -0.20525388341333
C         0.30748016093079    1.39920097873812    0.61813364751587
C         0.92470142169524    2.65680437789432    0.06705519025315
C         0.27615654187775    3.84811663844546    0.37785122412623
C         0.72850111100157    5.05633961621220   -0.11289466577356
C         1.84533373325203    5.07910498709841   -0.93326309306699
C         2.50651524000583    3.90599823012242   -1.24291811665138
C         2.05533752338844    2.68362983684039   -0.74894407777708
O         2.65837451245044    1.49086726435641   -1.06063996493729
C         4.07643990095730    1.47430395244947   -1.00962781999270
N         1.11817007342779    0.19385007016205    0.65384085822656
C         1.96087331002188    0.00188631922972    1.70660400338731
C         2.46453469780925   -1.39644590625770    1.89266556686022
C         3.55341472467989   -1.89958461840664    1.19276013116700
C         4.01346898318759   -3.17911257268801    1.45046644694168
C         3.37742318835942   -3.93567191644614    2.41796385503787
F         3.82823057783232   -5.18039075454436    2.68038805152585
C         2.29193003229509   -3.45651896915838    3.13055337269389
C         1.84071959600891   -2.17682316248008    2.86245365918120
O         2.22234356331674    0.90729079588697    2.46928934244422
C         0.62514068920798   -0.81615509022669   -0.24603103516700
C         1.49897807213945   -0.89994321563877   -1.54609656056410
O         0.98583724993647   -0.35865337254140   -2.63890602871168
O         2.54694911689100   -1.47778762556111   -1.53499660163902
N        -0.72653092331701   -0.40463375581148   -0.51902056855019
C        -1.65173430786668   -1.06348458432284   -1.27298478554338
C        -1.47089707685360   -2.54144666430008   -1.35870033676892
C        -1.50274137595651   -3.29037926158148   -0.18567465710032
C        -1.48996250292913   -4.67120349085362   -0.24218028355202
C        -1.43351673986530   -5.28326945585560   -1.48333050255672
F        -1.43545394234102   -6.62816922222388   -1.54341698398140
C        -1.38620287786313   -4.55879148481767   -2.66179762114385
C        -1.41849075574168   -3.17795034623043   -2.59288489937857
O        -2.58608791075010   -0.48369880524243   -1.78712335496588
H        -4.59724325811014    3.92029921019435   -1.45565288595536
H        -3.57159061665161    3.40370368438234   -2.81392054971647
H        -4.65027686350504    2.21925326157382   -2.02719259892068
H        -5.09353856663365    2.95374754787938    0.53524110827510
H        -5.42371569470118    1.70952876007037    2.61866240966106
H        -3.73070461919324    0.07606860631070    3.38419510149890
H        -1.66542531484539   -0.24003961779227    2.06102098145707
H        -1.00511059225825    1.60317841509109   -1.11971600066830
H         0.02483357158383    1.61885193403522    1.65713731121534
H        -0.59386395433294    3.80891950371277    1.01811007270840
H         0.21744386932806    5.97089926258080    0.14581353091569
H         2.20446375668316    6.01446247965753   -1.33488226097931
H         3.37201901784047    3.93166830543232   -1.88719205495832
H         4.52763227012226    2.06201074976810   -1.81489019429955
H         4.42747120815345    1.84801445928194   -0.03729819069059
H         4.36503111092885    0.43002272515026   -1.13513933531583
H         4.03649905661177   -1.29843628208165    0.44063558234920
H         4.85563991815792   -3.58878531660783    0.91660779418817
H         1.82648781473121   -4.07243407126777    3.88345202493335
H         1.00294822724778   -1.77601539207826    3.41566103831248
H         0.68853215526114   -1.80897778377150    0.22190810976877
H         0.14049238501970    0.09400325205780   -2.49452368771524
H        -1.57112558752917   -2.79084095813662    0.77036150017251
H        -1.53958264257140   -5.27214599289079    0.65179831344195
H        -1.34521809249928   -5.07495795546023   -3.60741048937935
H        -1.40664670188725   -2.58735023822330   -3.49688037663637
68
 energy: -121.522462613118 gnorm: 0.012998952482 xtb: 6.3.3 (4ae9cef)
C        -3.19818072378682    2.06348290984925    0.10474893285072
O        -2.92106885126274    2.72742707354236   -1.05058806419737
C        -4.01258595317625    3.11778593449694   -1.86409211718505
C        -4.36552544917261    2.22559109586320    0.84563082033529
C        -4.54528651387933    1.52753913234889    2.02715216360648
C        -3.58425713589104    0.63933792698351    2.47995366965960
C        -2.42333291996533    0.47097017015144    1.74753948844830
C        -2.21606694279175    1.18437583900634    0.57653843215135
C        -0.93658314541787    1.00593622364893   -0.19567126048962
C         0.30182080552957    1.40299297573502    0.63043285269647
C         0.92456647297354    2.65635682638109    0.07500535891980
C         0.27111473086173    3.85011509301027    0.36634181803344
C         0.73221545308077    5.05360264789400   -0.12847833563063
C         1.86706265909544    5.06722695116147   -0.92377498633598
C         2.53236846280091    3.89161847921137   -1.21655785742415
C         2.06533851183276    2.67216751507891   -0.72905784344829
O         2.64674794897316    1.47021035712343   -1.03817885501241
C         4.06625143661596    1.42561702921796   -1.05105327413101
N         1.11201184793252    0.19747909381400    0.67073711094084
C         1.96069106795053    0.00925028512645    1.72051832678909
C         2.46591054935393   -1.38589212145542    1.90257661401350
C         3.55558985217105   -1.88416460319611    1.20080613929840
C         4.01214127534245   -3.16678717832624    1.45066231282140
C         3.37209489381413   -3.92890943867114    2.41133572561935
F         3.82354159802211   -5.17348902767684    2.66960158567812
C         2.28254756902249   -3.45521449193829    3.12131733363119
C         1.83369686225271   -2.17277185235563    2.86176243413061
O         2.22329061936370    0.91361285564746    2.48405910239615
C         0.62938056598398   -0.80954818326599   -0.23942868249233
C         1.50117351106130   -0.88068217179593   -1.54248968321013
O         0.98802822673975   -0.31210922825553   -2.62359389748380
O         2.54579266055029   -1.46378980810011   -1.54864919646773