88
 energy: -142.829072425281 gnorm: 0.108123601584 xtb: 6.3.3 (4ae9cef)
C         1.86322900000000   -2.41763600000000   -0.50336600000000
O         0.98531500000000   -2.74017600000000   -1.50678400000000
C         1.12770300000000   -4.00555600000000   -2.13529000000000
C         2.89187500000000   -3.25972200000000   -0.05322500000000
C         3.71911700000000   -2.87214000000000    1.00226100000000
C         3.53137100000000   -1.64001100000000    1.61793000000000
C         2.52614400000000   -0.78247800000000    1.16299100000000
C         1.68020300000000   -1.15381000000000    0.10059400000000
C         0.54495300000000   -0.24312600000000   -0.34405800000000
C        -0.57609600000000   -0.13114200000000    0.74436900000000
C        -1.63518200000000   -1.21131700000000    0.58082200000000
C        -2.43585200000000   -1.26792400000000   -0.57652900000000
C        -3.36656300000000   -2.29507100000000   -0.75031200000000
C        -3.52613600000000   -3.26696800000000    0.23042700000000
C        -2.74422700000000   -3.22770100000000    1.38388000000000
C        -1.79516800000000   -2.21303400000000    1.56698100000000
O        -0.97521700000000   -2.12210100000000    2.66229600000000
C        -1.31698900000000   -2.90856700000000    3.80110100000000
N        -1.01221400000000    1.26757900000000    0.63269300000000
C        -1.95231800000000    1.94391100000000    1.38510300000000
C        -3.11588300000000    1.22394700000000    1.93403800000000
C        -4.34246800000000    1.17775900000000    1.23815100000000
C        -4.56780200000000    1.81606800000000   -0.07714400000000
C        -4.31313400000000    3.18093800000000   -0.28593100000000
C        -4.51188200000000    3.77563800000000   -1.53739300000000
C        -4.99868200000000    3.02337800000000   -2.60272300000000
C        -5.29133400000000    1.67504700000000   -2.41403600000000
C        -5.08465200000000    1.08240900000000   -1.16433700000000
C        -5.40441100000000    0.48780700000000    1.85875900000000
C        -5.26288500000000   -0.10112800000000    3.11746500000000
C        -4.04904700000000   -0.01302800000000    3.79525400000000
C        -2.97559700000000    0.65631900000000    3.21212100000000
O        -1.86933900000000    3.14576000000000    1.62807400000000
C         0.05681500000000    2.07711700000000    0.06421100000000
C         0.93898900000000    2.83439100000000    1.10501700000000
O         0.93525000000000    2.28721300000000    2.34591100000000
O         1.71378500000000    3.75838300000000    0.88129900000000
N         0.92566500000000    1.14717800000000   -0.63368400000000
C         1.62094800000000    1.61029200000000   -1.73173900000000
C         2.49337600000000    0.68283700000000   -2.47704400000000
C         1.89676400000000   -0.07267600000000   -3.50096200000000
C         2.66798100000000   -0.95221700000000   -4.25905100000000
C         4.03840000000000   -1.05661000000000   -4.01275400000000
C         4.63507300000000   -0.27655200000000   -3.01162900000000
C         3.88258800000000    0.61362700000000   -2.22181900000000
C         4.58250900000000    1.42105900000000   -1.19572400000000
C         4.51734600000000    2.82258700000000   -1.19094700000000
C         5.17191500000000    3.57687400000000   -0.21606700000000
C         5.93153700000000    2.95006900000000    0.76812500000000
C         6.03985700000000    1.56210600000000    0.76947000000000
C         5.37425900000000    0.80980900000000   -0.20630200000000
O         1.55134400000000    2.77109400000000   -2.13620100000000
H         0.95195100000000   -4.81231300000000   -1.41700800000000
H         2.10790700000000   -4.10878800000000   -2.61483000000000
H         0.36334200000000   -4.08719100000000   -2.91410300000000
H         3.07160000000000   -4.23742500000000   -0.49417400000000
H         4.51750100000000   -3.52991100000000    1.34455700000000
H         4.17171100000000   -1.33347100000000    2.44622500000000
H         2.41068300000000    0.18795900000000    1.64786400000000
H         0.11354600000000   -0.60139300000000   -1.28779100000000
H        -0.13958000000000   -0.18295100000000    1.75141500000000
H        -2.32857200000000   -0.52056200000000   -1.35705300000000
H        -3.97482000000000   -2.33471400000000   -1.65240400000000
H        -4.25668500000000   -4.06252900000000    0.09515500000000
H        -2.88132300000000   -4.01682100000000    2.11838200000000
H        -0.70641600000000   -2.55182000000000    4.63597700000000
H        -2.36573200000000   -2.77863500000000    4.08192200000000
H        -1.07232000000000   -3.96690200000000    3.63451700000000
H        -3.94848900000000    3.80771000000000    0.52693600000000
H        -4.28474900000000    4.83317600000000   -1.67382600000000
H        -5.14636600000000    3.48894700000000   -3.57609700000000
H        -5.67321300000000    1.08372200000000   -3.23950400000000
H        -5.32923800000000    0.02875300000000   -1.04907500000000
H        -6.37026900000000    0.42531500000000    1.36537500000000
H        -6.10434300000000   -0.62104600000000    3.57032900000000
H        -3.93728300000000   -0.46215200000000    4.78073100000000
H        -2.02644600000000    0.73209300000000    3.74411000000000
H        -0.38503900000000    2.82002100000000   -0.61006700000000
H         1.53489800000000    2.89417400000000    2.83129600000000
H         0.83064600000000    0.02722000000000   -3.69998000000000
H         2.20694500000000   -1.54707700000000   -5.04065300000000
H         4.65129900000000   -1.72202000000000   -4.61457300000000
H         5.71233800000000   -0.34686100000000   -2.85939100000000
H         3.94366600000000    3.34919900000000   -1.95118800000000
H         5.07900700000000    4.66072600000000   -0.23342000000000
H         6.43712700000000    3.54051300000000    1.52662000000000
H         6.63879300000000    1.06810600000000    1.52734900000000
H         5.46669000000000   -0.27355100000000   -0.18791300000000
88
 energy: -142.847140273321 gnorm: 0.037231833808 xtb: 6.3.3 (4ae9cef)
C         1.85950630043991   -2.40776484980953   -0.50015644427454
O         0.99051874939772   -2.73526377464346   -1.50509901504082
C         1.13026815267418   -3.99723665244665   -2.12820319637121
C         2.88151529156922   -3.24493865425592   -0.05246773382190
C         3.70537896234977   -2.85565024473942    0.99288961860004
C         3.52222231527443   -1.62653865833682    1.60036277980193
C         2.51890879560998   -0.77975731443241    1.15002630197949
C         1.67809174868301   -1.14772225421781    0.10259020933108
C         0.54565974588539   -0.24346669827551   -0.34428269983562
C        -0.57025246097669   -0.12607871674445    0.74324161727479
C        -1.63415454849340   -1.19623443176942    0.57853619727582
C        -2.42531268930381   -1.26186587572542   -0.56697598652905
C        -3.35674244016201   -2.27634165147609   -0.74100748962223
C        -3.51100583603309   -3.24712523720506    0.23188345480930
C        -2.73409196248162   -3.20753610030966    1.37830803233366
C        -1.79494120263027   -2.19308522727276    1.56318992402538
O        -0.98910030814514   -2.10654296166328    2.66513144387974
C        -1.31471799965580   -2.90144238419575    3.79332444713301
N        -1.00951230378881    1.27276634009764    0.62589719902520
C        -1.94113655535388    1.94239917662172    1.37310398446130
C        -3.10989533076416    1.19921693416817    1.91629616915509
C        -4.33761142585263    1.16305563416238    1.23506176902121
C        -4.55742777329468    1.81049129804814   -0.08013362267229
C        -4.29864120468397    3.16826675207919   -0.28394807068661
C        -4.50986993597210    3.76142227805844   -1.52267518110693
C        -4.99260042721524    3.01485101558022   -2.58499371871651
C        -5.28449472720871    1.67318019827253   -2.39401671210813
C        -5.07837458494493    1.08224034990262   -1.15512453449860
C        -5.39578764107459    0.48728051653044    1.85329298890580
C        -5.25560911563064   -0.09757628694797    3.10241198889845
C        -4.04955175049215   -0.01046069731604    3.77902448138431
C        -2.98025998853554    0.64070671222878    3.18775320459944
O        -1.84898046039970    3.14208682700372    1.58033190399839
C         0.06170112684501    2.07786297209778    0.06987800165085
C         0.93878134341727    2.81902333028874    1.10207392144670
O         0.92468184862585    2.28140971133229    2.33772505326935
O         1.66697866724156    3.74553734594322    0.86279836599194
N         0.92738764631273    1.14797985686741   -0.62597889869172
C         1.62110098108643    1.61023750587160   -1.71338845406613
C         2.49650499294209    0.66024968514172   -2.45131155814161
C         1.91241006470797   -0.08610269753419   -3.47456294484287
C         2.67927277230299   -0.94411477966358   -4.24489013852712
C         4.03987924772041   -1.04487567174432   -4.00071963981253
C         4.62876767462435   -0.27666993117966   -3.00566253080260
C         3.87993674105483    0.59969248668137   -2.21429382169255
C         4.57105561990543    1.41753120484842   -1.18817267249361
C         4.49935047515816    2.81268978423544   -1.18701688112249
C         5.16194318061782    3.56261511783569   -0.22571308791334
C         5.91923021622599    2.93921381543034    0.75300576815658
C         6.02537095736327    1.55712143427258    0.75163304123617
C         5.36458342897294    0.80748651421721   -0.21235667019030
O         1.53287764633186    2.76255607221288   -2.09876459997504
H         0.96484714641291   -4.80909020140719   -1.41348008001455
H         2.10996604839854   -4.10327461526386   -2.60351479059947
H         0.36056557171570   -4.05450761209432   -2.90028420112450
H         3.05455347282708   -4.21524788376038   -0.49829202736257
H         4.49283856203333   -3.51734542841220    1.33441193556149
H         4.15551002021347   -1.32602197135512    2.42613133197232
H         2.39553865413941    0.18327930235037    1.62797938094063
H         0.11131919964932   -0.64754618779809   -1.26791117594799
H        -0.11816429272208   -0.22984625372794    1.73998479398082
H        -2.32267400690791   -0.50907267753177   -1.33587988714392
H        -3.95824512780091   -2.31721981050386   -1.64054211056713
H        -4.23508600208597   -4.04218357406717    0.09976486936580
H        -2.86852092537943   -3.98859602587011    2.11470949809094
H        -0.69559214370269   -2.53825701159339    4.61581183685585
H        -2.36601552005119   -2.78525487535980    4.06764928933070
H        -1.08016774527922   -3.95747637566132    3.62184611499596
H        -3.93770196759144    3.78405160027759    0.52949359664320
H        -4.28998745088444    4.81351672128314   -1.65752882380356
H        -5.14491174513662    3.47770878958309   -3.55332451495561
H        -5.67097980398734    1.08431406315175   -3.21578952192597
H        -5.31339903381261    0.03205102105323   -1.03342858259881
H        -6.35629596119223    0.43345155863446    1.35744408297070
H        -6.09473694529515   -0.61037537394444    3.55549014177310
H        -3.94117082380135   -0.44836006742555    4.76455241159554
H        -2.03864103689804    0.72633461071671    3.71665771055485
H        -0.35797972848844    2.83175251796996   -0.61089288519863
H         1.51378038520573    2.86569549816016    2.85358447843290
H         0.85378454534193    0.02182594884458   -3.67879577720760
H         2.21855753463040   -1.53178446292382   -5.02856372281214
H         4.64866822693026   -1.71182790599631   -4.59745173447954
H         5.69891425684616   -0.34399256451077   -2.85149036299797
H         3.92789791030675    3.32982612366527   -1.94572713443541
H         5.07603528359946    4.64121261817450   -0.24203805691821
H         6.42678148408549    3.52659016999451    1.50874898585617
H         6.62421947879805    1.06287374989758    1.50588942413671
H         5.45268045963603   -0.27197653267494   -0.19306805705281
88
 energy: -142.853229743125 gnorm: 0.015123372327 xtb: 6.3.3 (4ae9cef)
C         1.85495007279175   -2.39355291454005   -0.50253361303279
O         0.99098137467828   -2.72498030904925   -1.50621611876816
C         1.13026161098736   -3.98342096946440   -2.12474907982972
C         2.87223413213199   -3.22811144890005   -0.05486713161799
C         3.69377368402002   -2.83677679065938    0.98701530087119
C         3.51459066149488   -1.60744202794248    1.58956763142292
C         2.51176002377068   -0.76677829184847    1.13887441164973
C         1.67536182676408   -1.13671692433979    0.10037583861879
C         0.54294151815981   -0.24420365761956   -0.34813891566827
C        -0.56147193031670   -0.12130949981808    0.74426219124871
C        -1.63207439361151   -1.17520152399754    0.57805739914384
C        -2.41860683867153   -1.23964186857141   -0.55988526888431
C        -3.34762418993991   -2.25001204463622   -0.73949523171275
C        -3.49795716167845   -3.22167316333980    0.22993801919249
C        -2.72672272450716   -3.18005500927213    1.37642057330594
C        -1.79306875052918   -2.16642121290967    1.56308223935688
O        -0.99966018983756   -2.07960441880426    2.67034060907103
C        -1.31121132041207   -2.88856206823943    3.78420706159902
N        -1.00331837772004    1.27142583001346    0.62110276892413
C        -1.93356844881527    1.94264365816186    1.35401570995324
C        -3.09891432437266    1.18012190023748    1.90061018264532
C        -4.32680160997597    1.14611458197516    1.23005003344802
C        -4.54187532899105    1.79962075840021   -0.08186067963570
C        -4.28249774172967    3.15453905936149   -0.27468755386792
C        -4.50186837847834    3.74731916597616   -1.50585785994480
C        -4.98852666313634    3.00423554630609   -2.56659921990607
C        -5.27694774290861    1.66360483291809   -2.37775708092331
C        -5.06390845653940    1.07031372026522   -1.14715068161433
C        -5.38542666376150    0.47826928204297    1.84023627603235
C        -5.24883322083558   -0.10168035946757    3.08653853911367
C        -4.04386812650798   -0.01924955838657    3.76142203104184
C        -2.97451201033375    0.62227626346501    3.16570606380033
O        -1.83612515152498    3.14420164525700    1.52425534636403
C         0.06798634425202    2.07324720446188    0.07614674806740
C         0.92448982946809    2.81818159593992    1.10740032294492
O         0.91432163377330    2.25917902719180    2.32725433314995
O         1.62723559397318    3.74830091132705    0.85100919802810
N         0.92818242930389    1.14205599105200   -0.62214703557124
C         1.61856951889071    1.60984068637162   -1.70178261530812
C         2.49521173653590    0.64196137699491   -2.43092862328245
C         1.91906536002513   -0.10195874579451   -3.45145299294794
C         2.68605288599695   -0.94999810174759   -4.22649084104841
C         4.04401440195837   -1.04715986195834   -3.98348579503127
C         4.62658943258142   -0.28564369235637   -2.98916553890476
C         3.87347852608466    0.58274227173790   -2.20317969333730
C         4.55515221265482    1.40819956440763   -1.17947407064285
C         4.47529609178705    2.79879641229616   -1.18715877401232
C         5.14330978510926    3.54765140254189   -0.23446836836943
C         5.90495370270490    2.92638242839170    0.73937585226308
C         6.00889875386860    1.54599389200845    0.74156125222213
C         5.34735711706794    0.79540533343452   -0.21210607701204
O         1.52469539275524    2.76280466319785   -2.06305400899515
H         0.97385198458947   -4.79948547870528   -1.41219407951536
H         2.10950012094786   -4.09183192662835   -2.59972208266403
H         0.35480992376998   -4.02373474148667   -2.88865283364796
H         3.03498339404820   -4.19484212806017   -0.50424591230261
H         4.47434750965730   -3.50208436831572    1.32600891544078
H         4.14919928674826   -1.30609893986396    2.40787395676883
H         2.37923262949302    0.19508438804040    1.60765551740603
H         0.10974648434965   -0.67751244848858   -1.25861733385403
H        -0.10313466769765   -0.25656327724861    1.73422425709526
H        -2.31186440045148   -0.48140463976987   -1.32037287194416
H        -3.94550922191682   -2.28809412268003   -1.63705877986390
H        -4.21496377698076   -4.01918827917464    0.09957173274469
H        -2.85488032105626   -3.95593570152435    2.11490728168825
H        -0.68454698338870   -2.52440224799166    4.59711618441243
H        -2.36399326905907   -2.78699433810761    4.06192948180053
H        -1.07973859079480   -3.94233385196029    3.60175552309843
H        -3.91352972760287    3.75605671227345    0.54100613371094
H        -4.29017768267590    4.79780715145270   -1.63760898038214
H        -5.14732080791414    3.46650727135502   -3.53033574718040
H        -5.67108268824699    1.07767099289232   -3.19625768429460
H        -5.29470031894053    0.02295130715963   -1.01433211515563
H        -6.34289214490481    0.44067150383769    1.34056543887966
H        -6.09077649095095   -0.60192180966838    3.54255663499127
H        -3.94128815064117   -0.44171513603102    4.75082922286680
H        -2.03332914958792    0.70688020822246    3.68780208247829
H        -0.32985265001950    2.83501095439124   -0.61308611275359
H         1.48697685601478    2.81448818664294    2.88912535229447
H         0.86216188616734    0.00214350644060   -3.64995718310008
H         2.22805613923709   -1.52321278136149   -5.01975503134978
H         4.65461642744344   -1.70392622415981   -4.58591447418262
H         5.69416111905616   -0.34043581931998   -2.83405915803943
H         3.89425447659415    3.30409241761577   -1.94177811227762
H         5.06503117293189    4.62384214939417   -0.25339732949895
H         6.41889959415146    3.51287524767428    1.48837003631254
H         6.61295588699540    1.05232995370619    1.49014942459680
H         5.43447024217984   -0.28196223262502   -0.19823241818889
88
 energy: -142.855419726804 gnorm: 0.012854788235 xtb: 6.3.3 (4ae9cef)
C         1.85146870050006   -2.38163135880980   -0.50555360563514
O         0.98793821724820   -2.71262132433226   -1.50780824237452
C         1.12659267120766   -3.96791468656126   -2.12757786582026
C         2.86808437390688   -3.21448529440124   -0.05641159057791
C         3.69059020292124   -2.81811503369587    0.98324274779724
C         3.51535675246191   -1.58564882288937    1.58103448826392
C         2.51037899501405   -0.74825977048045    1.12986958335400
C         1.67391381034897   -1.12570903183383    0.09603709638868
C         0.54104708144587   -0.24044367237474   -0.35267416475073
C        -0.55383382240804   -0.11470219834370    0.74396269957602
C        -1.62985400284062   -1.15568923601115    0.57810293583027
C        -2.41474549827112   -1.21204573184811   -0.55937369028560
C        -3.34480217376565   -2.22016254154913   -0.74279907033468
C        -3.49285392426228   -3.19480364170335    0.22444358821830
C        -2.72612136043649   -3.15448139740588    1.37438864256148
C        -1.79390039004679   -2.14181563788705    1.56478082675789
O        -1.00691304499848   -2.05011823816126    2.67469163732649
C        -1.30509273612667   -2.87349028246740    3.77821400539819
N        -0.99554609438644    1.27170025898232    0.61861089467276
C        -1.92928896288264    1.94506704457777    1.34035131998413
C        -3.08538129942402    1.17009177928371    1.89308123267008
C        -4.31263188373846    1.13221753207101    1.22569914163016
C        -4.52477212795832    1.78622621290230   -0.08280454494424
C        -4.26406299761045    3.14074151402824   -0.26735079107211
C        -4.49335318034514    3.73589461120050   -1.49439183514489
C        -4.98657763720791    2.99375349889365   -2.55354609453517
C        -5.27122359348152    1.65133399696617   -2.36958343437041
C        -5.05054499930323    1.05445149497831   -1.14276566650719
C        -5.37437846909769    0.46682550543758    1.82937157244535
C        -5.24040526393280   -0.11020906524409    3.07681703625836
C        -4.03276038342920   -0.03366689173168    3.74873857281111
C        -2.95991487526087    0.60309390788158    3.15269460087947
O        -1.83710975427095    3.15064214364270    1.48424401406844
C         0.07239056448950    2.07305235064130    0.07553764917950
C         0.92289299897159    2.81098639910766    1.11572118285747
O         0.90347232540305    2.23325382533453    2.32455358854058
O         1.59076373947756    3.77213413658050    0.86989600317422
N         0.92809356468786    1.14028297678641   -0.62428787159646
C         1.61915921459166    1.61035935097453   -1.70024529764998
C         2.48907213255074    0.62902874768086   -2.42249413205736
C         1.91491288234049   -0.12382177565380   -3.43626730287208
C         2.68739846746135   -0.96573550436858   -4.21317936730136
C         4.04695333625682   -1.05704773399405   -3.97219574890374
C         4.62481133229528   -0.29916214170465   -2.97293378884424
C         3.86438750809227    0.56678451374538   -2.19330079684259
C         4.53801458629173    1.39442821919807   -1.17064551182224
C         4.44862150617870    2.78301122930881   -1.18357117289838
C         5.12345566219466    3.53394148935902   -0.23820963883749
C         5.89297716534874    2.91410581931646    0.73093246123579
C         5.99727715293834    1.53343089691458    0.73961943673345
C         5.33249217388815    0.77953105052091   -0.20814533731300
O         1.52877047086349    2.76577147752427   -2.05202776162221
H         0.97605712392580   -4.78654016873228   -1.41607856078045
H         2.10476838659672   -4.07533777139781   -2.60591256491429
H         0.34699590829124   -4.00288547650152   -2.88603998668324
H         3.02521299067505   -4.18111332593352   -0.50627981038122
H         4.46753649621333   -3.48581339963793    1.32333857314317
H         4.15190126779296   -1.28081335540024    2.39554527348046
H         2.37125445622827    0.21644663611659    1.59105385382215
H         0.10586596330138   -0.68363654120022   -1.25624111580174
H        -0.09092746896249   -0.25939541573104    1.72921707807009
H        -2.30373649372790   -0.44676491807412   -1.31278786269139
H        -3.94042560476637   -2.25434988083501   -1.64101996222480
H        -4.20464965364502   -3.99553374156048    0.09188279244929
H        -2.85287882681725   -3.92825477128768    2.11409015201596
H        -0.67280939477228   -2.51438281088033    4.58793472404168
H        -2.35727313335716   -2.78360341308374    4.06552728413701
H        -1.07067383988071   -3.92436123497172    3.58012786264848
H        -3.88961251359120    3.73305705435168    0.55196653638100
H        -4.28650202828432    4.78730051377985   -1.62365011171057
H        -5.15428025418180    3.45846823409354   -3.51357270576927
H        -5.67047440101514    1.06773449180839   -3.18687690784598
H        -5.27420116463376    0.00667150068885   -1.00309912548455
H        -6.32883116595454    0.43649474414583    1.32373804174862
H        -6.08535361949418   -0.60300066721773    3.53472749416016
H        -3.93291345785565   -0.45168319517556    4.73913747839184
H        -2.01592278080805    0.68030190004666    3.67023300351569
H        -0.31518993622098    2.83879076842859   -0.61641266756732
H         1.45012609761810    2.77305809093118    2.92739506267747
H         0.85703713237536   -0.02643023602829   -3.63055357680601
H         2.23251422709877   -1.53432653404140   -5.01021398777159
H         4.66095516674424   -1.70809858902027   -4.57697124822568
H         5.69149055883037   -0.34772041480779   -2.81048167019637
H         3.85816351299400    3.27930768439655   -1.93649723356261
H         5.04716936607147    4.60989443715819   -0.25964737103808
H         6.41359511219331    3.50233424372274    1.47271445016051
H         6.60504862131940    1.04166188928293    1.48600600506703
H         5.41574423580803   -0.29783129781941   -0.19678983015509
88
 energy: -142.856893798868 gnorm: 0.010086169020 xtb: 6.3.3 (4ae9cef)
C         1.85013270621724   -2.36802454372903   -0.50923394123409
O         0.98395558526924   -2.69718666303201   -1.50889652862605
C         1.12128436802137   -3.94902648325836   -2.13382528645425
C         2.86750024820434   -3.19927497866038   -0.05777720516766
C         3.69132736427810   -2.79641846752165    0.97949176545014
C         3.51993286183803   -1.56006559335134    1.57159415692027
C         2.51327908455377   -0.72492748216592    1.11926624057421
C         1.67468964700063   -1.11167366652383    0.08964771137047
C         0.54027820573710   -0.23045113504701   -0.35685874458076
C        -0.54703857826626   -0.10143004009057    0.74333595567142
C        -1.62800368314784   -1.13263517573194    0.57841338520930
C        -2.41186266122535   -1.17780823133412   -0.56099180590281
C        -3.34380692971434   -2.18371443150973   -0.74857357605267
C        -3.49220341422038   -3.16153125638751    0.21613883492082
C        -2.73115369081250   -3.12515297214336    1.37096464299545
C        -1.79755968439610   -2.11483272989430    1.56628001701117
O        -1.01532698564034   -2.01613256763571    2.67828153554758
C        -1.29613547517107   -2.85639530214799    3.77230521859190
N        -0.98658548834354    1.27993620411242    0.61793530141524
C        -1.92816947554769    1.95154869788323    1.32974039714283
C        -3.07010412768206    1.16322524496396    1.88968513693592
C        -4.29663622470667    1.11889572451088    1.22260349113780
C        -4.50826086433191    1.77122261541923   -0.08341257040058
C        -4.24882364934075    3.12646384720293   -0.26241241338635
C        -4.48589309015209    3.72351288372348   -1.48702105989939
C        -4.98594518625256    2.98113328569744   -2.54351530940620
C        -5.26500836605693    1.63627460932209   -2.36493761057109
C        -5.03546553955103    1.03612694855313   -1.14076157739957
C        -5.35947504328866    0.44937478192062    1.82000072863431
C        -5.22568483289612   -0.12690060603211    3.06831750630733
C        -4.01448091020865   -0.05607596753748    3.73591823264614
C        -2.93943883032116    0.58110321683359    3.14257130340321
O        -1.84687785557039    3.15930090981310    1.45720763109607
C         0.07733035718145    2.08171702156947    0.07331918436640
C         0.90603480930090    2.82250881033878    1.13350905036287
O         0.89286295741322    2.20190011732332    2.32073713682711
O         1.55866469678072    3.79794588313798    0.90942438683790
N         0.92779725861997    1.14541725507436   -0.62876748290379
C         1.61964266018511    1.61069940844744   -1.70559187976462
C         2.47904825116618    0.61575261726014   -2.42042034924249
C         1.90610212256188   -0.15094904592106   -3.42568490404592
C         2.68515828015624   -0.99235865386353   -4.19777702123898
C         4.04621252466642   -1.07807777201298   -3.95711674886422
C         4.61959370328888   -0.32087879836369   -2.95372352223470
C         3.85222029880857    0.54798483266805   -2.18359658722150
C         4.51929741121509    1.37629593732982   -1.16111652305148
C         4.42113461612585    2.76393643625306   -1.17727492221882
C         5.10039685041272    3.51800276911860   -0.23757282856413
C         5.87898626360986    2.89990976851843    0.72622259074144
C         5.98503404973544    1.51891262329588    0.74211094062714
C         5.31661115593179    0.76097496131048   -0.20088522170548
O         1.54019371481534    2.76816750083101   -2.05452967312662
H         0.97649982769265   -4.77064560402765   -1.42420057039741
H         2.09730711231889   -4.05280641565252   -2.61843484648701
H         0.33727850918283   -3.98268672956740   -2.88741848010188
H         3.02121206084999   -4.16769504617510   -0.50521061030362
H         4.46780368531323   -3.46401592008217    1.32108493927005
H         4.16086642256205   -1.24895876568791    2.38093069445879
H         2.37079751462577    0.24426406484507    1.57164369616688
H         0.10068810005971   -0.67627156669883   -1.25583801753920
H        -0.07931940042576   -0.24861062683789    1.72482844612313
H        -2.29486860543379   -0.40608729732464   -1.30776794316375
H        -3.93830012561942   -2.21229277154726   -1.64794980010735
H        -4.20136110734123   -3.96380865862003    0.07924691668242
H        -2.86129919808330   -3.89805073093666    2.11088796404847
H        -0.65701453219600   -2.50572365885448    4.58046865036433
H        -2.34575814389063   -2.77800271561115    4.07425288781559
H        -1.05658304175803   -3.90305204225229    3.55438277468247
H        -3.86887813176722    3.71210398646377    0.55917019819249
H        -4.28155795247750    4.77594798675824   -1.61492227827215
H        -5.16443332681718    3.44923432009874   -3.50001538928081
H        -5.66805322361281    1.05457137173292   -3.18164176741691
H        -5.25134976585877   -0.01273117813061   -0.99598759013845
H        -6.31062732993450    0.42087688095823    1.30822727861622
H        -6.07255886966852   -0.61463794154310    3.52842726717469
H        -3.91433045783603   -0.47737921684652    4.72459594520739
H        -1.99193514607144    0.64801807678489    3.65637480346432
H        -0.30372486094832    2.84944150346637   -0.61881574670509
H         1.42004668712883    2.71725417287372    2.96143502823367
H         0.84657158318296   -0.06344227278222   -3.61713101254851
H         2.23386826296326   -1.56304672917603   -4.99468071295515
H         4.66456432721225   -1.72309704588474   -4.56428149189895
H         5.68527791254520   -0.36639062196432   -2.78129229417053
H         3.82107279837287    3.25251823957215   -1.92802426355239
H         5.02204158278910    4.59405171353103   -0.26038787183384
H         6.40729167887248    3.49129337783733    1.45973775610227
H         6.59716883273098    1.03023955585654    1.48691300003902
H         5.39683485508652   -0.31669804311289   -0.19135274924986
88
 energy: -142.857885733936 gnorm: 0.011528744278 xtb: 6.3.3 (4ae9cef)
C         1.85059286702556   -2.35375562490126   -0.51257126483466