      -----------------------------------------------------------      
     |                   =====================                   |     
     |                           x T B                           |     
     |                   =====================                   |     
     |                         S. Grimme                         |     
     |          Mulliken Center for Theoretical Chemistry        |     
     |                    University of Bonn                     |     
      -----------------------------------------------------------      

   * xtb version 6.3.3 (4ae9cef) compiled by 'conda@95abc7406d43' on 2020-10-14

   xtb is free software: you can redistribute it and/or modify it under
   the terms of the GNU Lesser General Public License as published by
   the Free Software Foundation, either version 3 of the License, or
   (at your option) any later version.
   
   xtb is distributed in the hope that it will be useful,
   but WITHOUT ANY WARRANTY; without even the implied warranty of
   MERCHANTABILITY or FITNESS FOR A PARTICULAR PURPOSE.  See the
   GNU Lesser General Public License for more details.
   
   Cite this work as:
   * C. Bannwarth, E. Caldeweyher, S. Ehlert, A. Hansen, P. Pracht,
     J. Seibert, S. Spicher, S. Grimme, WIREs Comput. Mol. Sci., 2020,
     e01493. DOI: 10.1002/wcms.1493
   
   for GFN2-xTB:
   * S. Grimme, C. Bannwarth, P. Shushkov, J. Chem. Theory Comput., 2017,
     13, 1989-2009. DOI: 10.1021/acs.jctc.7b00118
   for GFN1-xTB:
   * C. Bannwarth, S. Ehlert and S. Grimme., J. Chem. Theory Comput., 2019,
     15, 1652-1671. DOI: 10.1021/acs.jctc.8b01176
   for GFN0-xTB:
   * P. Pracht, E. Caldeweyher, S. Ehlert, S. Grimme, ChemRxiv, 2019, preprint.
     DOI: 10.26434/chemrxiv.8326202.v1
   for GFN-FF:
   * S. Spicher and S. Grimme, Angew. Chem. Int. Ed., 2020, 59, 15665-15673.
     DOI: 10.1002/anie.202004239
   
   for DFT-D4:
   * E. Caldeweyher, C. Bannwarth and S. Grimme, J. Chem. Phys., 2017,
     147, 034112. DOI: 10.1063/1.4993215
   * E. Caldeweyher, S. Ehlert, A. Hansen, H. Neugebauer, S. Spicher,
     C. Bannwarth and S. Grimme, J. Chem. Phys., 2019, 150, 154122.
     DOI: 10.1063/1.5090222
   * E. Caldeweyher, J.-M. Mewes, S. Ehlert and S. Grimme, Phys. Chem. Chem. Phys.
     2020, 22, 8499-8512. DOI: 10.1039/D0CP00502A
   
   for sTDA-xTB:
   * S. Grimme and C. Bannwarth, J. Chem. Phys., 2016, 145, 054103.
     DOI: 10.1063/1.4959605
   
   in the mass-spec context:
   * V. Asgeirsson, C. Bauer and S. Grimme, Chem. Sci., 2017, 8, 4879.
     DOI: 10.1039/c7sc00601b
   * J. Koopman and S. Grimme, ACS Omega 2019, 4, 12, 15120-15133.
     DOI: 10.1021/acsomega.9b02011
   
   for metadynamics refer to:
   * S. Grimme, J. Chem. Theory Comput., 2019, 155, 2847-2862
     DOI: 10.1021/acs.jctc.9b00143
   
   with help from (in alphabetical order)
   C. Bannwarth, F. Bohle, G. Brandenburg, E. Caldeweyher, M. Checinski,
   S. Dohm, S. Ehlert, S. Ehrlich, F. März, H. Neugebauer, J. Pisarek,
   P. Pracht, P. Shushkov, and S. Spicher.
   
 * started run on 2022/03/17 at 19:35:14.875     

           -------------------------------------------------
          |                Calculation Setup                |
           -------------------------------------------------

          program call               : xtb alk_9.xyz --opt --chrg 0 --uhf 0 --gfn 2
          coordinate file            : alk_9.xyz
          omp threads                :                    64
          number of atoms            :                    28
          number of electrons        :                    74
          charge                     :                     0
          spin                       :                   0.0
          first test random number   :      0.33724178397123

   ID    Z sym.   atoms
    1    6 C      1-8, 10, 11, 13, 14
    2    8 O      9, 12
    3    1 H      15-28

           -------------------------------------------------
          |                 G F N 2 - x T B                 |
           -------------------------------------------------

        Reference                      10.1021/acs.jctc.8b01176
      * Hamiltonian:
        H0-scaling (s, p, d)           1.850000    2.230000    2.230000
        zeta-weighting                 0.500000
      * Dispersion:
        s8                             2.700000
        a1                             0.520000
        a2                             5.000000
        s9                             5.000000
      * Repulsion:
        kExp                           1.500000    1.000000
        rExp                           1.000000
      * Coulomb:
        alpha                          2.000000
        third order                    shell-resolved
        anisotropic                    true
        a3                             3.000000
        a5                             4.000000
        cn-shift                       1.200000
        cn-exp                         4.000000
        max-rad                        5.000000

q/qsh data taken from xtbrestart
CAMM data taken from xtbrestart

          ...................................................
          :                      SETUP                      :
          :.................................................:
          :  # basis functions                  70          :
          :  # atomic orbitals                  70          :
          :  # shells                           42          :
          :  # electrons                        74          :
          :  max. iterations                   250          :
          :  Hamiltonian                  GFN2-xTB          :
          :  restarted?                       true          :
          :  GBSA solvation                  false          :
          :  PC potential                    false          :
          :  electronic temp.          300.0000000     K    :
          :  accuracy                    1.0000000          :
          :  -> integral cutoff          0.2500000E+02      :
          :  -> integral neglect         0.1000000E-07      :
          :  -> SCF convergence          0.1000000E-05 Eh   :
          :  -> wf. convergence          0.1000000E-03 e    :
          :  Broyden damping             0.4000000          :
          ...................................................

 iter      E             dE          RMSdq      gap      omega  full diag
   1    -41.5208550 -0.415209E+02  0.289E-01    3.59       0.0  T
   2    -41.5209035 -0.485612E-04  0.172E-01    3.60       1.0  T
   3    -41.5208195  0.840589E-04  0.695E-02    3.59       1.0  T
   4    -41.5209168 -0.973382E-04  0.180E-02    3.59       1.0  T
   5    -41.5209243 -0.754679E-05  0.541E-03    3.59       3.5  T
   6    -41.5209244 -0.474176E-07  0.253E-03    3.59       7.5  T
   7    -41.5209245 -0.586253E-07  0.944E-04    3.59      20.0  T
   8    -41.5209245 -0.122132E-07  0.367E-04    3.59      51.5  T

   *** convergence criteria satisfied after 8 iterations ***

         #    Occupation            Energy/Eh            Energy/eV
      -------------------------------------------------------------
         1        2.0000           -0.7325121             -19.9327
       ...           ...                  ...                  ...
        31        2.0000           -0.4413895             -12.0108
        32        2.0000           -0.4405648             -11.9884
        33        2.0000           -0.4283026             -11.6547
        34        2.0000           -0.4113364             -11.1930
        35        2.0000           -0.4081662             -11.1068
        36        2.0000           -0.4062417             -11.0544
        37        2.0000           -0.4022954             -10.9470 (HOMO)
        38                         -0.2702107              -7.3528 (LUMO)
        39                         -0.2349789              -6.3941
        40                         -0.2139221              -5.8211
        41                         -0.1885557              -5.1309
        42                         -0.0964644              -2.6249
       ...                                ...                  ...
        70                          0.6638209              18.0635
      -------------------------------------------------------------
                  HL-Gap            0.1320847 Eh            3.5942 eV
             Fermi-level           -0.3362531 Eh           -9.1499 eV

 SCC (total)                   0 d,  0 h,  0 min,  0.017 sec
 SCC setup                      ...        0 min,  0.000 sec (  0.764%)
 Dispersion                     ...        0 min,  0.000 sec (  1.930%)
 classical contributions        ...        0 min,  0.000 sec (  0.325%)
 integral evaluation            ...        0 min,  0.004 sec ( 24.683%)
 iterations                     ...        0 min,  0.010 sec ( 55.461%)
 molecular gradient             ...        0 min,  0.003 sec ( 15.718%)
 printout                       ...        0 min,  0.000 sec (  0.915%)

         :::::::::::::::::::::::::::::::::::::::::::::::::::::
         ::                     SUMMARY                     ::
         :::::::::::::::::::::::::::::::::::::::::::::::::::::
         :: total energy             -40.938636327755 Eh    ::
         :: gradient norm              0.056140419848 Eh/a0 ::
         :: HOMO-LUMO gap              3.594207465335 eV    ::
         ::.................................................::
         :: SCC energy               -41.520924463964 Eh    ::
         :: -> isotropic ES            0.047496699530 Eh    ::
         :: -> anisotropic ES          0.003282051893 Eh    ::
         :: -> anisotropic XC          0.019639543622 Eh    ::
         :: -> dispersion             -0.023173485227 Eh    ::
         :: repulsion energy           0.582357727071 Eh    ::
         :: add. restraining           0.000000000000 Eh    ::
         :: total charge               0.000000000000 e     ::
         :::::::::::::::::::::::::::::::::::::::::::::::::::::

      ----------------------------------------------------------- 
     |                   =====================                   |
     |                        A N C O P T                        |
     |                   =====================                   |
     |               Approximate Normal Coordinate               |
     |                Rational Function Optimizer                |
      ----------------------------------------------------------- 

          ...................................................
          :                      SETUP                      :
          :.................................................:
          :   optimization level            normal          :
          :   max. optcycles                   200          :
          :   ANC micro-cycles                  20          :
          :   degrees of freedom                78          :
          :.................................................:
          :   RF solver                   davidson          :
          :   write xtbopt.log                true          :
          :   linear?                        false          :
          :   energy convergence         0.5000000E-05 Eh   :
          :   grad. convergence          0.1000000E-02 Eh/α :
          :   maximium RF displ.         1.0000000          :
          :   Hlow (freq-cutoff)         0.1000000E-01      :
          :   Hmax (freq-cutoff)         5.0000000          :
          :   S6 in model hess.         20.0000000          :
          ...................................................

generating ANC from model Hessian ...
Using Lindh-Hessian (1995)
 Shifting diagonal of input Hessian by    9.6533321241847325E-003
 Lowest  eigenvalues of input Hessian
    0.000000    0.000000    0.000000    0.000000    0.000000    0.000000
    0.010000    0.011008    0.011145    0.011675    0.012656    0.013461
    0.015235    0.018377    0.019599    0.022820    0.023642    0.025840
 Highest eigenvalues
    1.733584    1.823998    1.859194    1.896642    1.960907    2.317608


........................................................................
.............................. CYCLE    1 ..............................
........................................................................
   1    -41.5209245 -0.415209E+02  0.142E-04    3.59       0.0  T
   2    -41.5209245 -0.118085E-09  0.915E-05    3.59     206.6  T
   3    -41.5209245 -0.630322E-10  0.594E-05    3.59     317.9  T
     SCC iter.                  ...        0 min,  0.004 sec
     gradient                   ...        0 min,  0.002 sec
 * total energy  :   -40.9386363 Eh     change       -0.9299583E-09 Eh
   gradient norm :     0.0561414 Eh/α   predicted     0.0000000E+00 (-100.00%)
   displ. norm   :     0.1898744 α      lambda       -0.6198978E-02
   maximum displ.:     0.0688199 α      in ANC's #14, #43, #27, ...

........................................................................
.............................. CYCLE    2 ..............................
........................................................................
   1    -41.5561655 -0.415562E+02  0.173E-01    3.70       0.0  T
   2    -41.5561884 -0.228799E-04  0.103E-01    3.69       1.0  T
   3    -41.5561717  0.166677E-04  0.354E-02    3.70       1.0  T
   4    -41.5561928 -0.210978E-04  0.864E-03    3.70       2.2  T
   5    -41.5561943 -0.148006E-05  0.352E-03    3.69       5.4  T
   6    -41.5561944 -0.694311E-07  0.163E-03    3.69      11.6  T
   7    -41.5561944 -0.766827E-08  0.624E-04    3.69      30.3  T
   8    -41.5561944 -0.361613E-08  0.233E-04    3.69      81.0  T
     SCC iter.                  ...        0 min,  0.009 sec
     gradient                   ...        0 min,  0.003 sec
 * total energy  :   -40.9424867 Eh     change       -0.3850332E-02 Eh
   gradient norm :     0.0149904 Eh/α   predicted    -0.3211240E-02 ( -16.60%)
   displ. norm   :     0.1217559 α      lambda       -0.7586834E-03
   maximum displ.:     0.0565674 α      in ANC's #7, #14, #3, ...

........................................................................
.............................. CYCLE    3 ..............................
........................................................................
   1    -41.5666113 -0.415666E+02  0.768E-02    3.72       0.0  T
   2    -41.5666174 -0.612997E-05  0.457E-02    3.72       1.0  T
   3    -41.5666142  0.318317E-05  0.164E-02    3.72       1.2  T
   4    -41.5666181 -0.388984E-05  0.488E-03    3.72       3.9  T
   5    -41.5666187 -0.579513E-06  0.156E-03    3.72      12.1  T
   6    -41.5666187 -0.196571E-07  0.811E-04    3.72      23.3  T
   7    -41.5666187 -0.179911E-08  0.314E-04    3.72      60.2  T
     SCC iter.                  ...        0 min,  0.008 sec
     gradient                   ...        0 min,  0.003 sec
 * total energy  :   -40.9429081 Eh     change       -0.4213977E-03 Eh
   gradient norm :     0.0058921 Eh/α   predicted    -0.3849710E-03 (  -8.64%)
   displ. norm   :     0.0820276 α      lambda       -0.1508684E-03
   maximum displ.:     0.0430555 α      in ANC's #7, #3, #4, ...

........................................................................
.............................. CYCLE    4 ..............................
........................................................................
   1    -41.5674481 -0.415674E+02  0.423E-02    3.71       0.0  T
   2    -41.5674501 -0.202894E-05  0.251E-02    3.71       1.0  T
   3    -41.5674491  0.105603E-05  0.859E-03    3.71       2.2  T
   4    -41.5674502 -0.115211E-05  0.288E-03    3.71       6.6  T
   5    -41.5674504 -0.214256E-06  0.779E-04    3.71      24.3  T
   6    -41.5674504 -0.686192E-08  0.383E-04    3.71      49.3  T
     SCC iter.                  ...        0 min,  0.007 sec
     gradient                   ...        0 min,  0.003 sec
 * total energy  :   -40.9429854 Eh     change       -0.7736394E-04 Eh
   gradient norm :     0.0032552 Eh/α   predicted    -0.7594676E-04 (  -1.83%)
   displ. norm   :     0.0789630 α      lambda       -0.7648842E-04
   maximum displ.:     0.0434844 α      in ANC's #3, #7, #4, ...

........................................................................
.............................. CYCLE    5 ..............................
........................................................................
   1    -41.5663565 -0.415664E+02  0.350E-02    3.70       0.0  T
   2    -41.5663571 -0.648426E-06  0.207E-02    3.70       1.0  T
   3    -41.5663567  0.419973E-06  0.469E-03    3.70       4.0  T
   4    -41.5663572 -0.450250E-06  0.159E-03    3.70      11.9  T
   5    -41.5663572 -0.643882E-07  0.462E-04    3.70      40.9  T
   6    -41.5663572 -0.142754E-08  0.268E-04    3.70      70.4  T
     SCC iter.                  ...        0 min,  0.008 sec
     gradient                   ...        0 min,  0.002 sec
 * total energy  :   -40.9430338 Eh     change       -0.4841496E-04 Eh
   gradient norm :     0.0019564 Eh/α   predicted    -0.3848412E-04 ( -20.51%)
   displ. norm   :     0.0981044 α      lambda       -0.2848589E-04
   maximum displ.:     0.0589847 α      in ANC's #3, #4, #7, ...

........................................................................
.............................. CYCLE    6 ..............................
........................................................................
   1    -41.5652220 -0.415652E+02  0.385E-02    3.70       0.0  T
   2    -41.5652222 -0.178724E-06  0.227E-02    3.70       1.0  T
   3    -41.5652218  0.373441E-06  0.389E-03    3.70       4.9  T
   4    -41.5652223 -0.445788E-06  0.719E-04    3.70      26.3  T
   5    -41.5652223 -0.669920E-08  0.379E-04    3.70      49.9  T
     SCC iter.                  ...        0 min,  0.007 sec
     gradient                   ...        0 min,  0.002 sec
 * total energy  :   -40.9430587 Eh     change       -0.2487001E-04 Eh
   gradient norm :     0.0020847 Eh/α   predicted    -0.1431023E-04 ( -42.46%)
   displ. norm   :     0.0401258 α      lambda       -0.1339786E-04
   maximum displ.:     0.0243108 α      in ANC's #3, #4, #1, ...

........................................................................
.............................. CYCLE    7 ..............................
........................................................................
   1    -41.5655822 -0.415656E+02  0.143E-02    3.70       0.0  T
   2    -41.5655822 -0.834942E-07  0.840E-03    3.70       2.3  T
   3    -41.5655822  0.761870E-07  0.192E-03    3.70       9.8  T
   4    -41.5655822 -0.821218E-07  0.672E-04    3.70      28.1  T
   5    -41.5655823 -0.105540E-07  0.183E-04    3.70     103.2  T
     SCC iter.                  ...        0 min,  0.006 sec
     gradient                   ...        0 min,  0.002 sec
 * total energy  :   -40.9430696 Eh     change       -0.1090398E-04 Eh
   gradient norm :     0.0012048 Eh/α   predicted    -0.6710357E-05 ( -38.46%)
   displ. norm   :     0.1163997 α      lambda       -0.1931406E-04
   maximum displ.:     0.0686619 α      in ANC's #3, #4, #1, ...

........................................................................
.............................. CYCLE    8 ..............................
........................................................................
   1    -41.5665233 -0.415665E+02  0.433E-02    3.70       0.0  T
   2    -41.5665236 -0.311229E-06  0.254E-02    3.70       1.0  T
   3    -41.5665230  0.615670E-06  0.539E-03    3.70       3.5  T
   4    -41.5665237 -0.713897E-06  0.123E-03    3.70      15.4  T
   5    -41.5665237 -0.239176E-07  0.493E-04    3.70      38.3  T
   6    -41.5665237 -0.326757E-09  0.248E-04    3.70      76.3  T
     SCC iter.                  ...        0 min,  0.008 sec
     gradient                   ...        0 min,  0.003 sec
 * total energy  :   -40.9430832 Eh     change       -0.1362867E-04 Eh
   gradient norm :     0.0016160 Eh/α   predicted    -0.9717895E-05 ( -28.70%)
   displ. norm   :     0.0352087 α      lambda       -0.5282507E-05
   maximum displ.:     0.0198865 α      in ANC's #3, #1, #4, ...

........................................................................
.............................. CYCLE    9 ..............................
........................................................................
   1    -41.5663456 -0.415663E+02  0.155E-02    3.70       0.0  T
   2    -41.5663456 -0.666545E-07  0.906E-03    3.70       2.1  T
   3    -41.5663456  0.165463E-07  0.121E-03    3.70      15.6  T
   4    -41.5663456 -0.276008E-07  0.370E-04    3.70      51.0  T
   5    -41.5663456 -0.193754E-08  0.194E-04    3.70      97.3  T
     SCC iter.                  ...        0 min,  0.007 sec
     gradient                   ...        0 min,  0.002 sec
 * total energy  :   -40.9430880 Eh     change       -0.4803971E-05 Eh
   gradient norm :     0.0008876 Eh/α   predicted    -0.2650765E-05 ( -44.82%)
   displ. norm   :     0.0394335 α      lambda       -0.4441219E-05
   maximum displ.:     0.0214154 α      in ANC's #1, #3, #8, ...

   *** GEOMETRY OPTIMIZATION CONVERGED AFTER 9 ITERATIONS ***

------------------------------------------------------------------------
 total energy gain   :        -0.0044517 Eh       -2.7935 kcal/mol
 total RMSD          :         0.1125489 a0        0.0596 Å
 total power (kW/mol):        -1.2986645 (step)  -87.2921 (real)
------------------------------------------------------------------------

 ANCopt (total)                0 d,  0 h,  0 min,  0.134 sec
 optimizer setup                ...        0 min,  0.000 sec (  0.044%)
 model hessian                  ...        0 min,  0.004 sec (  3.122%)
 ANC generation                 ...        0 min,  0.001 sec (  0.811%)
 coordinate transformation      ...        0 min,  0.000 sec (  0.073%)
 single point calculation       ...        0 min,  0.126 sec ( 94.289%)
 optimization log               ...        0 min,  0.001 sec (  0.452%)
 hessian update                 ...        0 min,  0.000 sec (  0.171%)
 rational function              ...        0 min,  0.001 sec (  0.423%)

================
 final structure:
================
28
 xtb: 6.3.3 (4ae9cef)
C         4.91805131027334    1.21182980630612    0.96360380926485
C         4.05079345715774    0.22325782232316    0.86376342338993
C         3.54105623964014   -0.33068136042297   -0.43516364171937
C         2.04353784295893   -0.19779881903375   -0.48279383521758
C         1.46245335328816    1.01685052075263   -0.83218862426849
C         0.09057931508337    1.15926701645002   -0.84860197239995
C        -0.73079903303510    0.08515743148724   -0.51147541529705
C        -2.19870148634677    0.28012922929494   -0.55406650407397
O        -2.87214936787021   -0.84220467506524   -0.25685389973125
C        -4.29572349831512   -0.76046654243694   -0.26896171971616
C        -4.83512330699650   -0.22766807702488    1.05074115731456
O        -2.73553555062458    1.32331616732337   -0.84085372634512
C        -0.15475733368543   -1.12966668519269   -0.15130728689444
C         1.21994275660702   -1.26306204765878   -0.13676948817032
H         5.33701871500743    1.68955484947440    0.09294627930450
H         5.25404017150477    1.58154294705777    1.91714715703054
H         3.63946633603208   -0.24059070555578    1.75067712713621
H         3.99481958705741    0.20987801460881   -1.26759568524871
H         3.81868479984800   -1.38559698246145   -0.50815879126071
H         2.09578158286570    1.85214826903965   -1.09285463571980
H        -0.37029009123521    2.09648439135671   -1.12160669854525
H        -4.63764816114402   -1.78199217438503   -0.45094782769249
H        -4.60634081989601   -0.11005691896510   -1.09370227245316
H        -5.92114546931017   -0.23781524839563    1.03172916662855
H        -4.48700060090494   -0.84436434503528    1.87611955512533
H        -4.49466831645499    0.79346464848672    1.20410281154467
H        -0.78814836784540   -1.96159945794018    0.11373367812737
H         1.66180793634012   -2.20931407438766    0.14186785988778

 Bond Distances (Angstroems)
 ---------------------------
C1-C2=1.3189         C1-H15=1.0779        C1-H16=1.0765        C2-C1=1.3189         C2-C3=1.5013         C2-H17=1.0821        
C3-C2=1.5013         C3-C4=1.5042         C3-H18=1.0914        C3-H19=1.0933        C4-C3=1.5042         C4-C5=1.3911         
C4-C14=1.3903        C5-C4=1.3911         C5-C6=1.3793         C5-H20=1.0802        C6-C5=1.3793         C6-C7=1.3936         
C6-H21=1.0795        C7-C6=1.3936         C7-C8=1.4814         C7-C13=1.3919        C8-C7=1.4814         C8-O9=1.3422         
C8-O12=1.2078        O9-C8=1.3422         O9-C10=1.4260        C10-O9=1.4260        C10-C11=1.5220       C10-H22=1.0925       
C10-H23=1.0953       C11-C10=1.5220       C11-H24=1.0862       C11-H25=1.0875       C11-H26=1.0873       O12-C8=1.2078        
C13-C7=1.3919        C13-C14=1.3812       C13-H27=1.0787       C14-C4=1.3903        C14-C13=1.3812       C14-H28=1.0809       
H15-C1=1.0779        H16-C1=1.0765        H17-C2=1.0821        H18-C3=1.0914        H19-C3=1.0933        H20-C5=1.0802        
H21-C6=1.0795        H22-C10=1.0925       H23-C10=1.0953       H24-C11=1.0862       H25-C11=1.0875       H26-C11=1.0873       
H27-C13=1.0787       H28-C14=1.0809       
 C  H  Rav=1.0849 sigma=0.0061  Rmin=1.0765  Rmax=1.0953    14
 C  C  Rav=1.4232 sigma=0.0635  Rmin=1.3189  Rmax=1.5220    11
 O  C  Rav=1.3253 sigma=0.0899  Rmin=1.2078  Rmax=1.4260     3

 selected bond angles (degree)
 --------------------
H15-C1-C2=121.78               H16-C1-C2=121.99               H16-C1-H15=116.23              C3-C2-C1=124.43                
H17-C2-C1=120.61               H17-C2-C3=114.96               C4-C3-C2=109.44                H18-C3-C2=109.63               
H18-C3-C4=110.25               H19-C3-C2=109.12               H19-C3-C4=109.63               H19-C3-H18=108.75              
C5-C4-C3=120.06                C14-C4-C3=120.95               C14-C4-C5=118.95               C6-C5-C4=120.57                
H20-C5-C4=119.40               H20-C5-C6=120.03               C7-C6-C5=120.25                H21-C6-C5=121.15               
H21-C6-C7=118.60               C8-C7-C6=118.40                C13-C7-C6=119.43               C13-C7-C8=122.17               
O9-C8-C7=112.38                O12-C8-C7=124.12               O12-C8-O9=123.49               C10-O9-C8=116.81               
C11-C10-O9=111.50              H22-C10-O9=105.09              H22-C10-C11=111.15             H23-C10-O9=108.88              
H23-C10-C11=110.15             H23-C10-H22=109.94             

 selected dihedral angles (degree)
 ---------------------------------
C3-C2-C1-H15=359.18           C3-C2-C1-H16=179.72           H17-C2-C1-H15=180.21          H17-C2-C1-H16=  0.75          
C4-C3-C2-C1=238.82            C4-C3-C2-H17= 57.84           H18-C3-C2-C1=359.85           H18-C3-C2-H17=178.88          
H19-C3-C2-C1=118.86           H19-C3-C2-H17=297.88          C5-C4-C3-C2= 80.85            C5-C4-C3-H18=320.19           
C5-C4-C3-H19=200.50           C14-C4-C3-C2=263.09           C14-C4-C3-H18=142.42          C14-C4-C3-H19= 22.74          
C6-C5-C4-C3=181.54            C6-C5-C4-C14=359.35           H20-C5-C4-C3=  1.59           H20-C5-C4-C14=179.40          
C7-C6-C5-C4=  0.14            C7-C6-C5-H20=180.08           H21-C6-C5-C4=180.22           H21-C6-C5-H20=  0.16          
C8-C7-C6-C5=180.52            C8-C7-C6-H21=  0.44           C13-C7-C6-C5=  0.35           C13-C7-C6-H21=180.27          
O9-C8-C7-C6=177.66            O9-C8-C7-C13=357.84           O12-C8-C7-C6=358.61           O12-C8-C7-C13=178.79          
C10-O9-C8-C7=179.95           C10-O9-C8-O12=359.01          C11-C10-O9-C8=276.10          H22-C10-O9-C8=155.58          
H23-C10-O9-C8= 37.84          
           -------------------------------------------------
          |                Final Singlepoint                |
           -------------------------------------------------

          ...................................................
          :                      SETUP                      :
          :.................................................:
          :  # basis functions                  70          :
          :  # atomic orbitals                  70          :
          :  # shells                           42          :
          :  # electrons                        74          :
          :  max. iterations                   250          :
          :  Hamiltonian                  GFN2-xTB          :
          :  restarted?                      false          :
          :  GBSA solvation                  false          :
          :  PC potential                    false          :
          :  electronic temp.          300.0000000     K    :
          :  accuracy                    1.0000000          :
          :  -> integral cutoff          0.2500000E+02      :
          :  -> integral neglect         0.1000000E-07      :
          :  -> SCF convergence          0.1000000E-05 Eh   :
          :  -> wf. convergence          0.1000000E-03 e    :
          :  Broyden damping             0.4000000          :
          ...................................................

 iter      E             dE          RMSdq      gap      omega  full diag
   1    -41.5663456 -0.415663E+02  0.115E-04    3.70       0.0  T
   2    -41.5663456 -0.337792E-10  0.879E-05    3.70     214.9  T
   3    -41.5663456 -0.115620E-09  0.484E-05    3.70     390.2  T

   *** convergence criteria satisfied after 3 iterations ***

         #    Occupation            Energy/Eh            Energy/eV
      -------------------------------------------------------------
         1        2.0000           -0.7351761             -20.0052
       ...           ...                  ...                  ...
        31        2.0000           -0.4404261             -11.9846
        32        2.0000           -0.4397254             -11.9655
        33        2.0000           -0.4273714             -11.6294
        34        2.0000           -0.4141466             -11.2695
        35        2.0000           -0.4101723             -11.1614
        36        2.0000           -0.4062454             -11.0545
        37        2.0000           -0.4033398             -10.9754 (HOMO)
        38                         -0.2673122              -7.2739 (LUMO)
        39                         -0.2310522              -6.2872
        40                         -0.2085033              -5.6737
        41                         -0.1823005              -4.9606
        42                         -0.0887667              -2.4155
       ...                                ...                  ...
        70                          0.7001748              19.0527
      -------------------------------------------------------------
                  HL-Gap            0.1360277 Eh            3.7015 eV
             Fermi-level           -0.3353260 Eh           -9.1247 eV

 SCC (total)                   0 d,  0 h,  0 min,  0.011 sec
 SCC setup                      ...        0 min,  0.000 sec (  0.686%)
 Dispersion                     ...        0 min,  0.000 sec (  2.415%)
 classical contributions        ...        0 min,  0.000 sec (  0.473%)
 integral evaluation            ...        0 min,  0.003 sec ( 31.607%)
 iterations                     ...        0 min,  0.004 sec ( 41.356%)
 molecular gradient             ...        0 min,  0.002 sec ( 21.747%)
 printout                       ...        0 min,  0.000 sec (  1.356%)

         :::::::::::::::::::::::::::::::::::::::::::::::::::::
         ::                     SUMMARY                     ::
         :::::::::::::::::::::::::::::::::::::::::::::::::::::
         :: total energy             -40.943088044568 Eh    ::
         :: gradient norm              0.000888510249 Eh/a0 ::
         :: HOMO-LUMO gap              3.701501073661 eV    ::
         ::.................................................::
         :: SCC energy               -41.566345635834 Eh    ::
         :: -> isotropic ES            0.047971220664 Eh    ::
         :: -> anisotropic ES          0.002138720727 Eh    ::
         :: -> anisotropic XC          0.018162677846 Eh    ::
         :: -> dispersion             -0.023425166715 Eh    ::
         :: repulsion energy           0.623328802701 Eh    ::
         :: add. restraining           0.000000000000 Eh    ::
         :: total charge               0.000000000000 e     ::
         :::::::::::::::::::::::::::::::::::::::::::::::::::::

           -------------------------------------------------
          |                Property Printout                |
           -------------------------------------------------

    * Orbital Energies and Occupations

         #    Occupation            Energy/Eh            Energy/eV
      -------------------------------------------------------------
         1        2.0000           -0.7351761             -20.0052
       ...           ...                  ...                  ...
        25        2.0000           -0.4831148             -13.1462
        26        2.0000           -0.4747358             -12.9182
        27        2.0000           -0.4696998             -12.7812
        28        2.0000           -0.4608618             -12.5407
        29        2.0000           -0.4473431             -12.1728
        30        2.0000           -0.4450703             -12.1110
        31        2.0000           -0.4404261             -11.9846
        32        2.0000           -0.4397254             -11.9655
        33        2.0000           -0.4273714             -11.6294
        34        2.0000           -0.4141466             -11.2695
        35        2.0000           -0.4101723             -11.1614
        36        2.0000           -0.4062454             -11.0545
        37        2.0000           -0.4033398             -10.9754 (HOMO)
        38                         -0.2673122              -7.2739 (LUMO)
        39                         -0.2310522              -6.2872
        40                         -0.2085033              -5.6737
        41                         -0.1823005              -4.9606
        42                         -0.0887667              -2.4155
        43                          0.0124996               0.3401
        44                          0.0941028               2.5607
        45                          0.1111631               3.0249
        46                          0.1150078               3.1295
        47                          0.1201035               3.2682
        48                          0.1284974               3.4966
       ...                                ...                  ...
        70                          0.7001748              19.0527
      -------------------------------------------------------------
                  HL-Gap            0.1360277 Eh            3.7015 eV
             Fermi-level           -0.3353260 Eh           -9.1247 eV

     #   Z          covCN         q      C6AA      α(0)
     1   6 C        2.837    -0.093    30.334     9.026
     2   6 C        2.891    -0.022    28.556     8.761
     3   6 C        3.812    -0.065    21.733     6.636
     4   6 C        2.975     0.025    27.431     8.591
     5   6 C        2.923    -0.035    28.871     8.812
     6   6 C        2.923    -0.021    28.531     8.759
     7   6 C        2.973    -0.024    28.611     8.774
     8   6 C        2.725     0.353    21.014     7.505
     9   8 O        1.704    -0.273    18.527     5.811
    10   6 C        3.700     0.082    19.371     6.294
    11   6 C        3.750    -0.113    22.722     6.798
    12   8 O        0.856    -0.421    22.115     6.305
    13   6 C        2.919    -0.024    28.607     8.771
    14   6 C        2.923    -0.036    28.900     8.816
    15   1 H        0.926     0.039     2.463     2.454
    16   1 H        0.926     0.038     2.471     2.458
    17   1 H        0.925     0.033     2.538     2.491
    18   1 H        0.924     0.049     2.327     2.386
    19   1 H        0.924     0.049     2.333     2.389
    20   1 H        0.926     0.042     2.420     2.433
    21   1 H        0.926     0.060     2.195     2.317
    22   1 H        0.924     0.051     2.303     2.373
    23   1 H        0.924     0.057     2.240     2.341
    24   1 H        0.925     0.048     2.341     2.393
    25   1 H        0.925     0.050     2.316     2.380
    26   1 H        0.925     0.060     2.198     2.319
    27   1 H        0.926     0.052     2.293     2.368
    28   1 H        0.926     0.038     2.471     2.458

 Mol. C6AA /au·bohr⁶  :       8385.644770
 Mol. C8AA /au·bohr⁸  :     196994.376246
 Mol. α(0) /au        :        143.217897


Wiberg/Mayer (AO) data.
largest (>0.10) Wiberg bond orders for each atom

 ---------------------------------------------------------------------------
     #   Z sym  total        # sym  WBO       # sym  WBO       # sym  WBO
 ---------------------------------------------------------------------------
     1   6 C    3.989 --     2 C    1.978    16 H    0.976    15 H    0.975
     2   6 C    3.989 --     1 C    1.978     3 C    1.004    17 H    0.967
     3   6 C    3.996 --     2 C    1.004     4 C    1.000    18 H    0.968
                            19 H    0.958
     4   6 C    3.986 --    14 C    1.403     5 C    1.399     3 C    1.000
     5   6 C    3.991 --     6 C    1.465     4 C    1.399    20 H    0.968
                            13 C    0.105
     6   6 C    3.988 --     5 C    1.465     7 C    1.380    21 H    0.966
                            14 C    0.103
     7   6 C    3.986 --    13 C    1.386     6 C    1.380     8 C    1.006
     8   6 C    3.917 --    12 O    1.719     9 O    1.117     7 C    1.006
     9   8 O    2.298 --     8 C    1.117    10 C    0.942    12 O    0.168
    10   6 C    3.929 --    11 C    1.012    22 H    0.973    23 H    0.968
                             9 O    0.942
    11   6 C    3.992 --    10 C    1.012    25 H    0.986    26 H    0.985
                            24 H    0.984
    12   8 O    2.025 --     8 C    1.719     9 O    0.168
    13   6 C    3.990 --    14 C    1.459     7 C    1.386    27 H    0.967
                             5 C    0.105
    14   6 C    3.991 --    13 C    1.459     4 C    1.403    28 H    0.968
                             6 C    0.103
    15   1 H    0.998 --     1 C    0.975
    16   1 H    0.997 --     1 C    0.976
    17   1 H    0.999 --     2 C    0.967
    18   1 H    0.997 --     3 C    0.968
    19   1 H    0.997 --     3 C    0.958
    20   1 H    0.998 --     5 C    0.968
    21   1 H    0.996 --     6 C    0.966
    22   1 H    0.997 --    10 C    0.973
    23   1 H    0.997 --    10 C    0.968
    24   1 H    0.997 --    11 C    0.984
    25   1 H    0.997 --    11 C    0.986
    26   1 H    0.996 --    11 C    0.985
    27   1 H    0.997 --    13 C    0.967
    28   1 H    0.998 --    14 C    0.968
 ---------------------------------------------------------------------------

Topologies differ in total number of bonds
Writing topology from bond orders to xtbtopo.mol

molecular dipole:
                 x           y           z       tot (Debye)
 q only:        0.524      -0.721       0.266
   full:        0.496      -0.829       0.268       2.547
molecular quadrupole (traceless):
                xx          xy          yy          xz          yz          zz
 q only:        7.464       6.729      -4.245      -4.948       1.137      -3.220
  q+dip:        6.904       8.847      -2.409      -4.749      -0.400      -4.494
   full:        6.291       8.124      -4.213      -4.729       1.249      -2.077

           -------------------------------------------------
          |                Geometry Summary                 |
           -------------------------------------------------

      molecular mass/u    :      190.2388111
   center of mass at/Å    :       -0.1462830       0.0417969      -0.1633824
  moments of inertia/u·Å² :        0.2385060E+03   0.1866372E+04   0.1942275E+04
rotational constants/cm⁻¹ :        0.7068011E-01   0.9032301E-02   0.8679321E-02

 * 25 selected distances

     #   Z          #   Z                                           value/Å
     1   6 C        2   6 C                                       1.3188551
     4   6 C        5   6 C                                       1.3910819
     5   6 C        6   6 C                                       1.3793441
     6   6 C        7   6 C                                       1.3935667
     8   6 C        9   8 O                                       1.3422000
     9   8 O       10   6 C                                       1.4259702
    10   6 C       11   6 C                                       1.5219862 (max)
     8   6 C       12   8 O                                       1.2077569
     7   6 C       13   6 C                                       1.3918846
     4   6 C       14   6 C                                       1.3902617
    13   6 C       14   6 C                                       1.3812335
     1   6 C       15   1 H                                       1.0778680
     1   6 C       16   1 H                                       1.0764856 (min)
     2   6 C       17   1 H                                       1.0821097
     3   6 C       18   1 H                                       1.0913518
     3   6 C       19   1 H                                       1.0932762
     5   6 C       20   1 H                                       1.0801730
     6   6 C       21   1 H                                       1.0794946
    10   6 C       22   1 H                                       1.0924953
    10   6 C       23   1 H                                       1.0953140
    11   6 C       24   1 H                                       1.0862360
    11   6 C       25   1 H                                       1.0875446
    11   6 C       26   1 H                                       1.0872633
    13   6 C       27   1 H                                       1.0786765
    14   6 C       28   1 H                                       1.0808684

 * 3 distinct bonds (by element types)

   Z      Z             #   av. dist./Å        max./Å        min./Å
   1 H    6 C          14     1.0849398     1.0953140     1.0764856
   6 C    6 C           8     1.3960267     1.5219862     1.3188551
   6 C    8 O           3     1.3253090     1.4259702     1.2077569


optimized geometry written to: xtbopt.xyz


           -------------------------------------------------
          | TOTAL ENERGY              -40.943088044568 Eh   |
          | GRADIENT NORM               0.000888510249 Eh/α |
          | HOMO-LUMO GAP               3.701501073661 eV   |
           -------------------------------------------------

------------------------------------------------------------------------
 * finished run on 2022/03/17 at 19:35:15.056     
------------------------------------------------------------------------
 total:
 * wall-time:     0 d,  0 h,  0 min,  0.182 sec
 *  cpu-time:     0 d,  0 h,  0 min,  9.762 sec
 * ratio c/w:    53.698 speedup
 SCF:
 * wall-time:     0 d,  0 h,  0 min,  0.018 sec
 *  cpu-time:     0 d,  0 h,  0 min,  0.747 sec
 * ratio c/w:    42.459 speedup
 ANC optimizer:
 * wall-time:     0 d,  0 h,  0 min,  0.145 sec
 *  cpu-time:     0 d,  0 h,  0 min,  8.203 sec
 * ratio c/w:    56.451 speedup

