28
 energy: -40.938636328685 gnorm: 0.056141394980 xtb: 6.3.3 (4ae9cef)
C         5.00966800000000    1.20695200000000    0.96064800000000
C         4.10918700000000    0.21779600000000    0.88754700000000
C         3.54011900000000   -0.31827500000000   -0.39551000000000
C         2.03681000000000   -0.17938400000000   -0.45727700000000
C         1.45312100000000    1.04124700000000   -0.82360800000000
C         0.06325800000000    1.17777900000000   -0.86789900000000
C        -0.76519500000000    0.09674200000000   -0.54132300000000
C        -2.23897400000000    0.29689100000000   -0.60423500000000
O        -2.89042000000000   -0.84071200000000   -0.25470000000000
C        -4.32367500000000   -0.77117400000000   -0.27910900000000
C        -4.84447600000000   -0.25011000000000    1.04713300000000
O        -2.76210200000000    1.35185100000000   -0.92678700000000
C        -0.18596400000000   -1.12253800000000   -0.16703000000000
C         1.20529500000000   -1.25727400000000   -0.12319500000000
H         5.39242700000000    1.69947700000000    0.07224500000000
H         5.38165300000000    1.54777800000000    1.92220900000000
H         3.75863300000000   -0.24335800000000    1.80884000000000
H         3.98092400000000    0.18297000000000   -1.26679200000000
H         3.81777500000000   -1.37561300000000   -0.48913700000000
H         2.08008500000000    1.89527200000000   -1.07252000000000
H        -0.37005200000000    2.13400000000000   -1.15557900000000
H        -4.69023000000000   -1.78970100000000   -0.44378100000000
H        -4.67964500000000   -0.16174400000000   -1.11773900000000
H        -5.93802100000000   -0.24890000000000    1.06091100000000
H        -4.48118200000000   -0.87032300000000    1.87314600000000
H        -4.49146600000000    0.76881500000000    1.23494500000000
H        -0.80371800000000   -1.97754100000000    0.09591500000000
H         1.63616700000000   -2.21092000000000    0.17521200000000
28
 energy: -40.942486661174 gnorm: 0.014990400970 xtb: 6.3.3 (4ae9cef)
C         4.98756972419301    1.20199025410376    0.95372929590606
C         4.09764463841743    0.22645727838975    0.87759621889626
C         3.53454016774082   -0.31728491067906   -0.40129543613880
C         2.03308127283967   -0.17667723945713   -0.44776585483165
C         1.45058637772017    1.03418164706642   -0.81300430407014
C         0.07316372363637    1.16984940028822   -0.85959533556813
C        -0.75442968560320    0.09484434405608   -0.53779213460095
C        -2.22707898933455    0.28557337331820   -0.60147419876809
O        -2.89157315192347   -0.83846993088122   -0.26920972168043
C        -4.31912547892685   -0.76998940211798   -0.27204778379871
C        -4.84325183363097   -0.24474344087696    1.05352950702133
O        -2.75509976602946    1.32355726111296   -0.92134270511106
C        -0.17626405994658   -1.11604456025927   -0.16453381054271
C         1.20276450229191   -1.24525216371420   -0.11928759832968
H         5.37912860936912    1.68801202067908    0.07398466890926
H         5.37147976454582    1.53599848646100    1.90475695087746
H         3.73852398155741   -0.23939877923186    1.78739617306824
H         3.98052137475107    0.20482393391435   -1.25374048807978
H         3.80206966529101   -1.37734523319051   -0.48065439832309
H         2.07804380596742    1.87785772505866   -1.06784033865911
H        -0.36879316714267    2.11356978989072   -1.14929530510577
H        -4.66496405244812   -1.79413797368641   -0.44678171105879
H        -4.65286847355952   -0.13620969796520   -1.10113744177990
H        -5.93133386350782   -0.24708304276580    1.05553565222306
H        -4.48586970501842   -0.87122469010387    1.87092345712058
H        -4.49430373312764    0.77377173526675    1.22312564329283
H        -0.79883244241472   -1.96180335897598    0.09034059856571
H         1.63467279429277   -2.19481982570048    0.16841040056604
28
 energy: -40.942908058830 gnorm: 0.005892092556 xtb: 6.3.3 (4ae9cef)
C         4.97915686458761    1.19363589449257    0.95080747277727
C         4.09004274141687    0.22309354417684    0.87320472854394
C         3.53134418287365   -0.31935609835623   -0.40846130752945
C         2.03257419356461   -0.17811854031990   -0.44994897728724
C         1.45047772008488    1.03193941098755   -0.81027931916936
C         0.07777183501333    1.16831396408038   -0.85279203709004
C        -0.74740350346292    0.09346611404517   -0.53104198153344
C        -2.21835234075499    0.27974232328372   -0.59760090786417
O        -2.88649013908071   -0.83828417903690   -0.27232260770150
C        -4.31116047577835   -0.76728193389521   -0.27091198281668
C        -4.83880406465282   -0.24231640981143    1.05568959117742
O        -2.75468236720711    1.31216993296141   -0.91530967251878
C        -0.17016188792107   -1.11601954762299   -0.15829435738166
C         1.20454606251395   -1.24410544473866   -0.11877256186112
H         5.36802671757175    1.68365149108488    0.07382241955340
H         5.34961223016140    1.54643907871069    1.89767435892482
H         3.71174970222301   -0.23940559749254    1.77585409228418
H         3.97797627517407    0.21170991727032   -1.25203358085454
H         3.79408525062471   -1.37886858610607   -0.48352084191919
H         2.08023633557880    1.87181884504465   -1.06361149915761
H        -0.37368005369788    2.10530923361621   -1.14153821684509
H        -4.64794056109345   -1.79207072672123   -0.45003232038759
H        -4.63552525577179   -0.12058922982898   -1.09393734217381
H        -5.92495481780058   -0.24725966872633    1.04735794481907
H        -4.48647783410274   -0.86750910063395    1.87314295768676
H        -4.49311894407280    0.77626396284031    1.21577849970452
H        -0.79893977945240   -1.95569956709134    0.09238965240597
H         1.64009391346094   -2.19066608221293    0.16721779621396
28
 energy: -40.942985422766 gnorm: 0.003255159313 xtb: 6.3.3 (4ae9cef)
C         4.96141071389043    1.20054632710291    0.95153781859222
C         4.07733792508705    0.22578672855346    0.87189673309639
C         3.53073098107480   -0.32113489091035   -0.41434254795026
C         2.03331197682657   -0.18079483802079   -0.45447499291341
C         1.45172412793211    1.03089874344118   -0.81137691679520
C         0.07986347886294    1.16810738251825   -0.85015940529820
C        -0.74348597729119    0.09205210833640   -0.52686387149616
C        -2.21278771308785    0.27795806046580   -0.59105471884531
O        -2.88179957843595   -0.83919424962590   -0.27008648440942
C        -4.30562661610951   -0.76620874235857   -0.27135167703804
C        -4.83600755960021   -0.24052951078635    1.05511420109730
O        -2.75307992453276    1.30985730401256   -0.90791995470204
C        -0.16726654872981   -1.11858746066792   -0.15496004263575
C         1.20689628004172   -1.24678422762232   -0.11930338840395
H         5.36754068313669    1.67562239716103    0.07329454026597
H         5.34008801792790    1.54954126572316    1.89647452237165
H         3.69345483112016   -0.24085478908215    1.76987737745901
H         3.97755373245367    0.21378619620386   -1.25420619462084
H         3.79578365467955   -1.37926035441179   -0.48844430370263
H         2.08371550252931    1.86931092091113   -1.06390191932757
H        -0.37757301983842    2.10320067198309   -1.13496291681292
H        -4.64139637130315   -1.78983779056375   -0.45269833307173
H        -4.62621324307662   -0.11447672038736   -1.09155680927156
H        -5.92190180256412   -0.24691885243086    1.04157019499172
H        -4.48596546573249   -0.86395494221874    1.87408166661725
H        -4.49161885294730    0.77831747649226    1.21233468471398
H        -0.80014266626719   -1.95421130110696    0.09799677172227
H         1.64545543395362   -2.19223391271124    0.16601596636730
28
 energy: -40.943033837731 gnorm: 0.001956407135 xtb: 6.3.3 (4ae9cef)
C         4.95477711900757    1.19862971819592    0.95228418631496
C         4.07109089878968    0.22309236527193    0.87027810013358
C         3.53165784729572   -0.32360688076630   -0.42015584749268
C         2.03479919165981   -0.18360666102305   -0.45964696288566
C         1.45385897242758    1.03012630697245   -0.81326471284202
C         0.08185106059421    1.16844527399112   -0.84737325720930
C        -0.74018872693224    0.09115072731609   -0.52237243517987
C        -2.20806392806154    0.27729074243483   -0.58455700798104
O        -2.87771421074783   -0.84030679689480   -0.26658174997157
C        -4.30132317008634   -0.76539875476324   -0.27192846623217
C        -4.83430564704026   -0.23858629597702    1.05372579919721
O        -2.74976443859940    1.31075776286027   -0.89828098467681
C        -0.16490799358137   -1.12110004394641   -0.15185494838172
C         1.20957768209156   -1.25007267745385   -0.12071291072782
H         5.36038992385721    1.67442994818461    0.07386334208617
H         5.32083621594335    1.56042314495579    1.89802904819339
H         3.67510809644124   -0.23983936615062    1.76516407599878
H         3.97967242295842    0.21292189039208   -1.25791101793470
H         3.79879347086570   -1.38074138182660   -0.49502212146602
H         2.08782561447643    1.86736893621708   -1.06629719538464
H        -0.37976831525155    2.10289330904069   -1.12845498876316
H        -4.63871918387902   -1.78761526293595   -0.45467099885190
H        -4.61930651182037   -0.11180389257532   -1.09114613462127
H        -5.92032923505745   -0.24594323396682    1.03733322343373
H        -4.48534424824873   -0.86035741912678    1.87438578185629
H        -4.49053518324037    0.78061541716493    1.21008242262404
H        -0.80053485544526   -1.95396948188430    0.10421572866395
H         1.65056913158314   -2.19519439370668    0.16340003210039
28
 energy: -40.943058707744 gnorm: 0.002084666762 xtb: 6.3.3 (4ae9cef)
C         4.94275758903562    1.20125579271915    0.95491007763889
C         4.06254280922207    0.22267369311563    0.86816172501146
C         3.53425331002388   -0.32632751983576   -0.42656289203482
C         2.03720870993720   -0.18843399248207   -0.46833626946172
C         1.45704257864593    1.02706338084795   -0.81848306616179
C         0.08471030116327    1.16741067008638   -0.84478885960152
C        -0.73659262434175    0.09001322393658   -0.51630838253704
C        -2.20357985652378    0.27775824699494   -0.57528932626695
O        -2.87461231957117   -0.84140590409284   -0.26140841226124
C        -4.29828618868466   -0.76399975590977   -0.27216137248528
C        -4.83428056443885   -0.23580492850158    1.05166149653696
O        -2.74344551452918    1.31461355834211   -0.88220747014211
C        -0.16181099721621   -1.12384871155943   -0.14860673251898
C         1.21311044318623   -1.25486405361658   -0.12492731826658
H         5.35343493331875    1.67390598787519    0.07688434712545
H         5.29705851394127    1.57066206752826    1.90263431738776
H         3.65717745489464   -0.23795819114551    1.75972309936568
H         3.98467760201163    0.21143556607838   -1.26251964211909
H         3.80630149988705   -1.38240019606767   -0.50247365044981
H         2.09228921620023    1.86334954600517   -1.07279862602320
H        -0.37877407620699    2.10242617032182   -1.12173865020862
H        -4.63902455826856   -1.78510862610689   -0.45569016786904
H        -4.61303129038890   -0.11146460675222   -1.09306519175702
H        -5.92046641816440   -0.24377815979217    1.03462724674675
H        -4.48534940687694   -0.85592945050947    1.87412607830556
H        -4.49089433501009    0.78391089612910    1.20822548312362
H        -0.79822380742875   -1.95526663755381    0.11115698352422
H         1.65580899618235   -2.19988506605479    0.15778517539866
28
 energy: -40.943069611724 gnorm: 0.001204784296 xtb: 6.3.3 (4ae9cef)
C         4.93755426110408    1.20340502011760    0.95651348087726
C         4.05968772174459    0.22309514306856    0.86702265230683
C         3.53573075614653   -0.32722103779731   -0.42857403408919
C         2.03848680210332   -0.19046062689993   -0.47136495332022
C         1.45828642894893    1.02486743568545   -0.82117153607636
C         0.08609278069812    1.16570292369343   -0.84524630275692
C        -0.73528459842665    0.08911378526796   -0.51480827153032
C        -2.20252847596624    0.27858891262250   -0.57008673894670
O        -2.87420013008960   -0.84149056592800   -0.25967092482983
C        -4.29784189904833   -0.76316398225111   -0.27166605712224
C        -4.83487861330155   -0.23433196213583    1.05114046663760
O        -2.74127551082108    1.31648819589025   -0.87408111129261
C        -0.16020543155902   -1.12493811705696   -0.14879573528000
C         1.21460736297603   -1.25656674518244   -0.12719690954263
H         5.35035063885055    1.67617438810169    0.07979544769080
H         5.28805421783845    1.57280666039149    1.90530130195266
H         3.65232658771911   -0.23744714187072    1.75751664772531
H         3.98701262295355    0.21116606621941   -1.26384446096718
H         3.80934344801222   -1.38308143580510   -0.50412365516417
H         2.09320164401221    1.86078221240206   -1.07705490588262
H        -0.37671823065834    2.10135628788035   -1.12081407624275
H        -4.63911836535826   -1.78437875186996   -0.45530573529941
H        -4.61119144433629   -0.11123201718722   -1.09375564909108
H        -5.92100918444030   -0.24265197498895    1.03411269047313
H        -4.48588032286622   -0.85406729895365    1.87396644644430
H        -4.49198112661984    0.78564265324095    1.20758089293995
H        -0.79582840141966   -1.95632683274904    0.11272552653504
H         1.65720846180355   -2.20182819390537    0.15441550385161
28
 energy: -40.943083240390 gnorm: 0.001616009973 xtb: 6.3.3 (4ae9cef)
C         4.92231277877936    1.21029938345197    0.96189871511294
C         4.05220806603916    0.22408732599883    0.86397984178397
C         3.54008522975932   -0.32967238931220   -0.43390394970233
C         2.04243885695995   -0.19640702733108   -0.48050551439945
C         1.46161349527479    1.01826810440218   -0.82946677962797
C         0.08977971506223    1.16066594195541   -0.84624802147902
C        -0.73179005332251    0.08626777224117   -0.51084331153443
C        -2.19991316780518    0.27959032315793   -0.55891352410270
O        -2.87307853007288   -0.84213144430280   -0.25712596102093
C        -4.29660771182473   -0.76079609066486   -0.26942312072757
C        -4.83589406707357   -0.22922691595024    1.05053096134198
O        -2.73637607511121    1.32205233166495   -0.84838745459172
C        -0.15566081155992   -1.12820859241667   -0.14989024237714
C         1.21891138511593   -1.26156678256080   -0.13461451044629
H         5.34169291276747    1.68491563050972    0.08980756465762
H         5.26162752056131    1.57895987726125    1.91434760866457
H         3.64116818821779   -0.23815215716631    1.75160068939904
H         3.99342249080729    0.21053428468713   -1.26705163462704
H         3.81736482711163   -1.38487694851227   -0.50758599992005
H         2.09505659653731    1.85345290283818   -1.08994017703913
H        -0.37077505611206    2.09757596943412   -1.12043765377509
H        -4.63859831158188   -1.78247303298701   -0.45211589609350
H        -4.60710405568181   -0.11065503507048   -1.09450191896377
H        -5.92187511556065   -0.23891996686233    1.03280871125663
H        -4.48707607282961   -0.84718086212967    1.87479961020229
H        -4.49491146450878    0.79166899291211    1.20518955107072
H        -0.78882888703463   -1.96039585050286    0.11445988064884
H         1.66080931708569   -2.20767274474518    0.14406253628994
28
 energy: -40.943088044361 gnorm: 0.000887579101 xtb: 6.3.3 (4ae9cef)
C         4.91805131027334    1.21182980630612    0.96360380926485
C         4.05079345715774    0.22325782232316    0.86376342338993
C         3.54105623964014   -0.33068136042297   -0.43516364171937
C         2.04353784295893   -0.19779881903375   -0.48279383521758
C         1.46245335328816    1.01685052075263   -0.83218862426849
C         0.09057931508337    1.15926701645002   -0.84860197239995
C        -0.73079903303510    0.08515743148724   -0.51147541529705
C        -2.19870148634677    0.28012922929494   -0.55406650407397
O        -2.87214936787021   -0.84220467506524   -0.25685389973125
C        -4.29572349831512   -0.76046654243694   -0.26896171971616
C        -4.83512330699650   -0.22766807702488    1.05074115731456
O        -2.73553555062458    1.32331616732337   -0.84085372634512
C        -0.15475733368543   -1.12966668519269   -0.15130728689444
C         1.21994275660702   -1.26306204765878   -0.13676948817032
H         5.33701871500743    1.68955484947440    0.09294627930450
H         5.25404017150477    1.58154294705777    1.91714715703054
H         3.63946633603208   -0.24059070555578    1.75067712713621
H         3.99481958705741    0.20987801460881   -1.26759568524871
H         3.81868479984800   -1.38559698246145   -0.50815879126071
H         2.09578158286570    1.85214826903965   -1.09285463571980
H        -0.37029009123521    2.09648439135671   -1.12160669854525
H        -4.63764816114402   -1.78199217438503   -0.45094782769249
H        -4.60634081989601   -0.11005691896510   -1.09370227245316
H        -5.92114546931017   -0.23781524839563    1.03172916662855
H        -4.48700060090494   -0.84436434503528    1.87611955512533
H        -4.49466831645499    0.79346464848672    1.20410281154467
H        -0.78814836784540   -1.96159945794018    0.11373367812737
H         1.66180793634012   -2.20931407438766    0.14186785988778
