56
 energy: -105.155136679572 gnorm: 0.123722227145 xtb: 6.3.3 (4ae9cef)
C        -2.84372100000000   -1.45822000000000   -1.08980300000000
C        -3.59402800000000   -1.69838300000000   -2.24194100000000
C        -3.19528800000000   -1.15420800000000   -3.45973700000000
C        -2.04393800000000   -0.37407500000000   -3.52821700000000
C        -1.29038100000000   -0.13290900000000   -2.37808100000000
C        -1.68586900000000   -0.66309400000000   -1.13923500000000
C        -0.89163200000000   -0.42855100000000    0.14114100000000
C         0.38291300000000   -1.31537300000000    0.18182700000000
C         0.65362200000000   -1.98198100000000    1.52997300000000
C         1.25828000000000   -3.25140600000000    1.54885600000000
C         1.53501700000000   -3.90242900000000    2.75264000000000
C         1.21626100000000   -3.29425900000000    3.96234000000000
C         0.62559800000000   -2.03413600000000    3.96755000000000
C         0.34907000000000   -1.38181300000000    2.76267400000000
N         1.46059800000000   -0.39326000000000   -0.18445800000000
C         2.60683000000000   -0.85482300000000   -0.81431500000000
C         3.65176700000000    0.06487600000000   -1.24001900000000
C         4.94108300000000   -0.21604400000000   -1.66784000000000
C         5.56214100000000    1.01950800000000   -1.97246000000000
C         4.61312500000000    1.98262400000000   -1.72898300000000
C         4.65383800000000    3.39629700000000   -1.84937200000000
N         4.70636100000000    4.55059100000000   -1.96213600000000
O         3.45069000000000    1.41717500000000   -1.30673800000000
O         2.73725600000000   -2.06355600000000   -1.02328500000000
C         1.06894300000000    0.98239900000000    0.09294000000000
C         1.80945800000000    1.49847200000000    1.36729400000000
O         0.99774100000000    1.92316300000000    2.36466800000000
O         3.01975400000000    1.52324200000000    1.54500200000000
N        -0.37947400000000    0.94087800000000    0.25532300000000
C        -1.09131000000000    2.12866600000000    0.21344300000000
C        -2.52558400000000    2.08232000000000    0.41897800000000
C        -3.33589700000000    1.41683300000000    1.32418100000000
C        -4.67439800000000    1.77779400000000    1.02505800000000
C        -4.60063700000000    2.65624800000000   -0.02974500000000
C        -5.60838500000000    3.34647100000000   -0.75273300000000
N        -6.45809300000000    3.89308400000000   -1.32507300000000
O        -3.30875900000000    2.86315700000000   -0.39326900000000
O        -0.49946000000000    3.18574000000000   -0.00828700000000
H        -3.17585300000000   -1.89856500000000   -0.15157900000000
H        -4.49046500000000   -2.31150900000000   -2.19089100000000
H        -3.78042500000000   -1.33911300000000   -4.35714400000000
H        -1.73220400000000    0.04959000000000   -4.48008600000000
H        -0.39658800000000    0.48002100000000   -2.46755900000000
H        -1.55189300000000   -0.62462100000000    0.99056100000000
H         0.31203800000000   -2.11127000000000   -0.57189200000000
H         1.53217000000000   -3.74365700000000    0.61583000000000
H         2.00728600000000   -4.88160000000000    2.74221600000000
H         1.43582300000000   -3.79875400000000    4.89961300000000
H         0.38475300000000   -1.55454700000000    4.91314200000000
H        -0.10464400000000   -0.39609400000000    2.81642600000000
H         5.37202200000000   -1.20707500000000   -1.73419300000000
H         6.57242900000000    1.18316100000000   -2.32221500000000
H         1.29463900000000    1.64464600000000   -0.74500600000000
H         1.62593700000000    2.24844700000000    3.04432000000000
H        -3.00250100000000    0.76220800000000    2.11721300000000
H        -5.57602000000000    1.44771500000000    1.52308200000000
56
 energy: -105.167438172658 gnorm: 0.050006655020 xtb: 6.3.3 (4ae9cef)
C        -2.83694477481020   -1.44675548035706   -1.08921338654448
C        -3.57988923903298   -1.69091475874960   -2.23462093574870
C        -3.18512207772612   -1.14998011318676   -3.44716857279207
C        -2.03982172014763   -0.37288677415688   -3.50952004290383
C        -1.29391477120957   -0.13137817143960   -2.36425260843208
C        -1.68740998398988   -0.65895831020184   -1.13639920020205
C        -0.89067907991053   -0.43015245442349    0.14002221168459
C         0.38401405145293   -1.30977204721045    0.19191593375756
C         0.65681131369754   -1.97932521502383    1.53322833915224
C         1.25395401868764   -3.24010837201550    1.54705138325237
C         1.53240909797085   -3.88587818345525    2.74266280172849
C         1.21563811468812   -3.28329577835035    3.94886204288093
C         0.62852989048951   -2.02876698079293    3.95069737425606
C         0.35411181414804   -1.37995285813134    2.75394853278461
N         1.45333503245522   -0.38700829795316   -0.19142362652471
C         2.58633593809579   -0.84969399304016   -0.81622757191059
C         3.63534454369932    0.08197973842307   -1.23652333301009
C         4.91983219185451   -0.21032583797383   -1.65374402048886
C         5.54158686425297    1.01412031874581   -1.96259182633803
C         4.59582218500566    1.98321827023952   -1.72336877142728
C         4.65155866121104    3.38617025177447   -1.85184552163823
N         4.71592399831107    4.52212689988395   -1.96421584738698
O         3.44114089012512    1.42536910242888   -1.29074973265049
O         2.72419810658750   -2.04868781907888   -1.01031920649702
C         1.06975231391842    0.97922740978904    0.09578585717655
C         1.80173936643508    1.48799223846219    1.35798617442450
O         0.99400070705323    1.91320979576191    2.34107263638825
O         2.99654844670371    1.50123685792707    1.49921910448935
N        -0.37263568263849    0.93212487654800    0.25904846082426
C        -1.07451092283122    2.11145315377309    0.20095760509377
C        -2.52874608701068    2.05445860575021    0.40057443643854
C        -3.33537343955031    1.39948910262543    1.30509258348967
C        -4.66232382509009    1.78339318267811    1.02603807782762
C        -4.58318328040479    2.65787954004362   -0.03151896078619
C        -5.59242578614402    3.33935738034033   -0.74370097288125
N        -6.43337770663522    3.87341151545175   -1.30484585056755
O        -3.29530381841756    2.83481257364924   -0.40351781048036
O        -0.49038051541131    3.16203815855911   -0.00029913754632
H        -3.16076588420669   -1.88223897242747   -0.15226348740051
H        -4.47181608111536   -2.30122464947836   -2.18124515955333
H        -3.76763752882719   -1.33359005483522   -4.34062847305114
H        -1.72616872067492    0.04776277448721   -4.45570336236584
H        -0.40287641878030    0.47738314187665   -2.44425291121865
H        -1.54064041548275   -0.64924838578606    0.99142564144459
H         0.32869577815106   -2.09881166882994   -0.56806898019312
H         1.52214895128605   -3.72101118590703    0.61538567315127
H         1.99728137468412   -4.86278304104459    2.73110101288884
H         1.42887817162934   -3.78742198013724    4.88287457435402
H         0.38365467006802   -1.55134617479350    4.89054112522127
H        -0.09728881311805   -0.39716796175543    2.79722926441068
H         5.34698100509640   -1.19375294048627   -1.72184560431150
H         6.54555101386394    1.17083600923841   -2.31209770202731
H         1.32101738359987    1.66089455272009   -0.72725263429283
H         1.58981929096274    2.24395567966072    3.04115690659464
H        -3.00976043057269    0.75780735871818    2.10153012086850
H        -5.55762218244627    1.46073097146595    1.52401637658819
56
 energy: -105.171366434901 gnorm: 0.017584314208 xtb: 6.3.3 (4ae9cef)
C        -2.83157148761648   -1.43813759300733   -1.07842530355939
C        -3.56969218697228   -1.68157409851387   -2.22158734541921
C        -3.17319065087274   -1.14185176670841   -3.43160929787927
C        -2.03013717498412   -0.36535888677647   -3.48842612059651
C        -1.28955611124250   -0.12521914162230   -2.34429072389801
C        -1.68578023237737   -0.65543480921646   -1.12472248037289
C        -0.88980962723168   -0.43334631861673    0.14708484789351
C         0.38266495003626   -1.30920769288847    0.18956294716699
C         0.66020736520771   -1.97132848889713    1.52706813621068
C         1.25221690631382   -3.22796304858589    1.53644829804101
C         1.52869732503540   -3.87040502637440    2.72889251848418
C         1.21264432851683   -3.26852392835572    3.93352827621824
C         0.62945398299226   -2.01471515138735    3.93305318183687
C         0.35865622961166   -1.36717019918771    2.73978233049346
N         1.44466378248592   -0.38428834873766   -0.20162432333619
C         2.56951837143290   -0.85159435477046   -0.81135703250911
C         3.61406175117614    0.09645116885748   -1.23227149616216
C         4.89301155013628   -0.20949422078092   -1.64362948044637
C         5.51942862186745    1.00698871348446   -1.95082580444502
C         4.57748887947456    1.98259327117836   -1.71310524918325
C         4.65429793883373    3.37894044867535   -1.84913727715396
N         4.72820045966596    4.51556145384789   -1.97473536082962
O         3.42403612683904    1.42988697152581   -1.28740467385480
O         2.71431116915034   -2.04425409963330   -1.00383062559283
C         1.06779718691472    0.97203122133519    0.10050266812540
C         1.79838703658748    1.47233597254212    1.35579101143226
O         0.98674449961628    1.89840820828411    2.32055015118196
O         2.98921048830463    1.47243115543800    1.46515067775805
N        -0.36867814355486    0.92223848511490    0.26387802500569
C        -1.05749539107713    2.09541211405354    0.18890575053747
C        -2.52774930922780    2.02261505375832    0.37760117318296
C        -3.32859624439980    1.37924381792418    1.28965558486523
C        -4.64744619833795    1.78144511264250    1.02275071473102
C        -4.56257218981965    2.64865904703493   -0.04232220973594
C        -5.57713291524996    3.33010987972254   -0.73677707614235
N        -6.42549875414298    3.86335435234526   -1.29227276705105
O        -3.27828856316869    2.79941499674618   -0.42115900073831
O        -0.48333045890596    3.14616728171299    0.00247227359124
H        -3.15010230617037   -1.86729991080714   -0.14005235950524
H        -4.45770869867214   -2.29231064391390   -2.16783114877830
H        -3.75096333303139   -1.32651144314108   -4.32423461802150
H        -1.71284988920255    0.05431990927700   -4.43034947271393
H        -0.40020033980145    0.48286214190668   -2.41244331352848
H        -1.53003209711951   -0.67029135044585    1.00163035328235
H         0.34159310545297   -2.09500225583252   -0.57396766511657
H         1.51295704364751   -3.70057274948960    0.60333365203253
H         1.98991847722075   -4.84587138745476    2.71747839589130
H         1.42231989688253   -3.77110124199356    4.86594100730122
H         0.38229355880426   -1.53713735913773    4.86920571557118
H        -0.09071205475082   -0.38535997562538    2.77129726806899
H         5.31594331365511   -1.18957368401229   -1.70835536914453
H         6.52035513634845    1.15838749406077   -2.29856610253063
H         1.33687303888987    1.67244910644412   -0.70775399294547
H         1.54053136800048    2.24228191905132    3.04616710236111
H        -3.01005893389452    0.74092324086964    2.08651688584718
H        -5.53933459727650    1.47538763808079    1.52881774407883
56
 energy: -105.172319630397 gnorm: 0.010610972079 xtb: 6.3.3 (4ae9cef)
C        -2.83399153891449   -1.43233216102859   -1.06519835754545
C        -3.56695805441695   -1.67481671536794   -2.21168557951291
C        -3.16375181942449   -1.13367904599223   -3.42002257134906
C        -2.02094311195831   -0.35502311026471   -3.47262820408005
C        -1.28495853964643   -0.11553305605857   -2.32579940942416
C        -1.68826681927140   -0.64999674693988   -1.11027623846417
C        -0.89013859895419   -0.43585537525559    0.15629467350363
C         0.37932183205634   -1.31172861784476    0.18148498098351
C         0.66264575042333   -1.96612093698787    1.51702054361471
C         1.25276467578613   -3.22332867614343    1.52599276352769
C         1.52892884820481   -3.86165231330595    2.72052985599442
C         1.21288546906193   -3.25446971815048    3.92343937957295
C         0.63300552093379   -1.99829922034464    3.92104066957982
C         0.36367655947790   -1.35307542908036    2.72637524967476
N         1.43692222011196   -0.38579709391069   -0.21487228674164
C         2.55913079547448   -0.85582010427700   -0.81655735909532
C         3.59835031446257    0.10309975879691   -1.23366904908568
C         4.87798385617038   -0.20991263384242   -1.63513639928129
C         5.50783949750494    1.00462985807671   -1.94119985406381
C         4.56429844203678    1.98309305675269   -1.71261521275326
C         4.64899693644478    3.37579175902805   -1.86745791216875
N         4.75497188329261    4.51280067238220   -1.97238941888483
O         3.41012665582694    1.43202781278801   -1.29072504699807
O         2.71405271296969   -2.04805150802364   -1.00565039891854
C         1.06641442011054    0.96489918492337    0.10548371408216
C         1.80089463144216    1.45608746554237    1.36464533667663
O         0.98357826280984    1.88761689383212    2.31575360315290
O         2.99424630797214    1.44321175559712    1.46309814000386
N        -0.36722233958513    0.91602590311998    0.26952944824430
C        -1.04999094642546    2.08630677208801    0.18165224437445
C        -2.52588543763857    2.00132765533645    0.35827410256655
C        -3.32267032385286    1.36644935034209    1.28062180212183
C        -4.63917819104470    1.77606447787761    1.01579679072789
C        -4.55262330889860    2.63401124235242   -0.05908176166404
C        -5.57286757104720    3.30666588403521   -0.74983113796281
N        -6.42647515935049    3.86758829369863   -1.27112224711425
O        -3.27016162537578    2.77162818975269   -0.44280678156025
O        -0.48334735039943    3.14202130205607    0.00176528912781
H        -3.15120424652615   -1.85928544189401   -0.12525950623746
H        -4.45487937537787   -2.28559977209137   -2.16053660769894
H        -3.73714732580256   -1.31839427468266   -4.31487628492610
H        -1.69948337701812    0.06640925639297   -4.41231393079626
H        -0.39448018019210    0.49236438609042   -2.38441700483098
H        -1.52261293011699   -0.67950957176825    1.01462743141378
H         0.33822697131440   -2.09645692412857   -0.58250015276945
H         1.50925073361350   -3.69364337228632    0.59061116910755
H         1.98759106859635   -4.83822682351049    2.71155934737790
H         1.41865242753072   -3.75558265786872    4.85685847198025
H         0.38526740725244   -1.51775393136504    4.85560315641190
H        -0.08277396776140   -0.36967556502947    2.74949172961737
H         5.29692905621330   -1.19181157662586   -1.69479424660053
H         6.50961555455710    1.15444824169320   -2.28607568084229
H         1.33608671749825    1.67653746421466   -0.69385459487801
H         1.50715627835906    2.24138390236448    3.05826867539002
H        -3.00715138158167    0.72481422823624    2.07631615189815
H        -5.53065228692772    1.48412860669883    1.53121751552165
56
 energy: -105.171891173719 gnorm: 0.020912430732 xtb: 6.3.3 (4ae9cef)
C        -2.84113278837721   -1.42428191003759   -1.04833583311420
C        -3.56716550393605   -1.66412535079499   -2.20058238096399
C        -3.15343746863069   -1.12035492942792   -3.40593802909293
C        -2.01063653599942   -0.33890984911103   -3.45290930747946
C        -1.28083429717165   -0.10139263766294   -2.30161264218817
C        -1.69451655432476   -0.64203331148763   -1.09094888356251
C        -0.89132298049067   -0.43875546690539    0.16818576729546
C         0.37457856651147   -1.31532236532425    0.16968297187115
C         0.66754946865010   -1.96075277197284    1.50283281741779
C         1.25527711463007   -3.21985634383173    1.51351175778970
C         1.53092065505530   -3.85197882129578    2.71222630806336
C         1.21548732013122   -3.23544062992306    3.91192137869399
C         0.64112344314890   -1.97541047251198    3.90632273704990
C         0.37311920207947   -1.33476978502197    2.70845760030531
N         1.42677402835367   -0.38826166208504   -0.23513772216832
C         2.54865320435160   -0.86011743019669   -0.82702081477176
C         3.57992637284914    0.11028639888298   -1.24186724696064
C         4.86073538655061   -0.21282846130880   -1.63189465613871
C         5.49838360365672    0.99893413536569   -1.93401334486076
C         4.55811763749221    1.98323563076377   -1.70857807724414
C         4.68144006763064    3.37572940730218   -1.83497893298783
N         4.74670961243439    4.50599783004602   -2.01795386355282
O         3.39784946229971    1.43637042540015   -1.29804985766141
O         2.71425977441730   -2.05187729714374   -1.01657916268346
C         1.06577870722731    0.95549072963355    0.11358223239761
C         1.80655155619021    1.43143389707538    1.38215954270961
O         0.98125129283423    1.87593918040920    2.31391761100159
O         3.00235756431237    1.39551689466963    1.47632233834174
N        -0.36551678006411    0.90907321053532    0.27812515509137
C        -1.04482766908887    2.07490826451479    0.17139930557594
C        -2.52500017054387    1.97314694125026    0.32929695955083
C        -3.31609748580191    1.34797759668913    1.26556105246848
C        -4.63137891355635    1.76329139467637    1.00239500376396
C        -4.54508338748674    2.61943947175755   -0.07627643799528
C        -5.57173740137930    3.33159399009770   -0.71692050489155
N        -6.43193959103644    3.82021535932341   -1.29553822321258
O        -3.26525816176687    2.74049384510136   -0.47033043152671
O        -0.48858001593879    3.13861335992606   -0.00029245480943
H        -3.15814751863696   -1.84936574191883   -0.10673719989402
H        -4.45556515176873   -2.27529630468921   -2.15480202849848
H        -3.72001597093243   -1.30561835219118   -4.30506080267481
H        -1.68302724385839    0.08526849301327   -4.38987712904763
H        -0.38851367981011    0.50631864486481   -2.34744136725775
H        -1.51300874036215   -0.68881558067885    1.03227704282383
H         0.32726514316649   -2.09902931119672   -0.59412676912173
H         1.50610570413288   -3.68966441758463    0.57548329192651
H         1.98660655660602   -4.83042632233082    2.70794481969461
H         1.41693242305884   -3.73352807824366    4.84774434390433
H         0.39478684594925   -1.48895197909269    4.83890045507959
H        -0.06894754686161   -0.34881517949087    2.72120914122758
H         5.27250190281801   -1.19909816114365   -1.68154744672234
H         6.50566827875012    1.14670218000549   -2.26479366970399
H         1.33185649820155    1.68257722941574   -0.67297321054818
H         1.46681403349581    2.23880287593521    3.07731466178961
H        -3.00230901166517    0.70245299098574    2.06001957673267
H        -5.52138485749606    1.49526954696381    1.53632355876916
56
 energy: -105.172939776200 gnorm: 0.008050112987 xtb: 6.3.3 (4ae9cef)
C        -2.84427189551855   -1.42350756257520   -1.05119909108514
C        -3.57081337368159   -1.66214519017753   -2.20367577512449
C        -3.15707882609917   -1.11824329607930   -3.40833203453623
C        -2.01423527356912   -0.33760663062246   -3.45538953736732
C        -1.28422081221180   -0.10130787970611   -2.30393598998273
C        -1.69711025692774   -0.64155752252901   -1.09275269934454
C        -0.89243350407082   -0.43761716412288    0.16728081710029
C         0.37404550541522   -1.31545503576845    0.17088807684639
C         0.66836887763513   -1.96341460236134    1.50437626073873
C         1.25637794906658   -3.22265854305638    1.51715330610391
C         1.53247787161761   -3.85422542482642    2.71633887016181
C         1.21848074473915   -3.23656679202265    3.91533040051291
C         0.64490012283597   -1.97661607612497    3.90899630342943
C         0.37554065020214   -1.33778029438508    2.71049313419779
N         1.42765541503017   -0.38937420477721   -0.23429699217022
C         2.55304870963605   -0.85954449541518   -0.82727183293274
C         3.58557345102987    0.10635859039250   -1.24221768831484
C         4.86792093362820   -0.21235670294072   -1.63250036049284
C         5.50381717807363    1.00111501884660   -1.93356368952643
C         4.56068287112195    1.98275036611409   -1.71244236182486
C         4.66896446657309    3.37487129249620   -1.85850203394733
N         4.76451621956009    4.50768755036426   -2.00101793103274
O         3.39995130065492    1.43427618141088   -1.30207705183861
O         2.71445568731531   -2.05099599141247   -1.02048277774152
C         1.06749556152096    0.95595763532667    0.11468171513722
C         1.80732353311519    1.42931248572160    1.38571265337220
O         0.98279225734080    1.87946134361069    2.31826403236331
O         3.00068764256485    1.38998306897080    1.49126254517299
N        -0.36545871103909    0.91143495832451    0.27983346898990
C        -1.04908562253187    2.07768508133343    0.17358301393065
C        -2.52555637860441    1.98057411422963    0.33351276893747
C        -3.31792531070348    1.35593367290449    1.26909940093556
C        -4.63478177209740    1.76513209901344    1.00282259434437
C        -4.55094706504293    2.61528764846778   -0.07988270917512
C        -5.57824447460715    3.29460314702796   -0.75271263527644
N        -6.43851154929467    3.84649803802213   -1.27115055984880
O        -3.27045239971555    2.74465114344925   -0.47068543442933
O        -0.49100666691882    3.13950350421727   -0.00375407766338
H        -3.16318463564755   -1.84994296984503   -0.11072792499842
H        -4.45948685518520   -2.27347080524644   -2.15933576293690
H        -3.72324266361932   -1.30381673844428   -4.30811398216020
H        -1.68659295623373    0.08647678952838   -4.39255869966597
H        -0.39201859394082    0.50623117067336   -2.35116462921804
H        -1.51492935319922   -0.68518833459663    1.03130216941132
H         0.32169710094302   -2.09935675916008   -0.59265467133846
H         1.50749103043120   -3.69540416382441    0.58035980816559
H         1.98867866822654   -4.83262575086689    2.71300020076812
H         1.42172213700855   -3.73348629721448    4.85184839422332
H         0.40118320797029   -1.48846340123069    4.84149633499602
H        -0.06639654632921   -0.35187409216681    2.72516047731230
H         5.28023546083748   -1.19864621852798   -1.68284089752717
H         6.51062584013216    1.15044637119765   -2.26615385766529
H         1.33196856145747    1.68235092578933   -0.67170071301251
H         1.47669417051109    2.23569892947900    3.07692478154401
H        -3.00241291022664    0.71120882971255    2.06352313479027
H        -5.52497871917856    1.48775998340271    1.52984873869283
56
 energy: -105.172877805096 gnorm: 0.012715900225 xtb: 6.3.3 (4ae9cef)
C        -2.84947256770935   -1.41935232129714   -1.05132703413703
C        -3.57537659217012   -1.65558161541031   -2.20488321836218
C        -3.15996827778837   -1.11108438942782   -3.40820170144285
C        -2.01700492926630   -0.33104053954525   -3.45375261903701
C        -1.28784513709314   -0.09724151277172   -2.30138930784263
C        -1.70119065520924   -0.63900103094992   -1.09102236998362
C        -0.89409959573994   -0.43773145136527    0.16879670326133
C         0.37241339012028   -1.31685582522136    0.16995777814097
C         0.67059119260957   -1.96503215986527    1.50352183859672
C         1.25799816530155   -3.22451420336987    1.51875992165478
C         1.53590901984449   -3.85347189858961    2.71907535386652
C         1.22544896294976   -3.23253839105371    3.91693545429088
C         0.65374156095856   -1.97208806791625    3.90888933935935
C         0.38164465166849   -1.33691256655080    2.70920804171191
N         1.42504966833216   -0.39094360374175   -0.23901861298901
C         2.55351807500992   -0.85977735130655   -0.83088926991297
C         3.58760365001482    0.10404174343151   -1.24214909404059
C         4.87245624017758   -0.21179234330443   -1.62773006559173
C         5.50673110458544    1.00248977099511   -1.92958454034533
C         4.55967709061804    1.98196833403349   -1.71753413761194
C         4.65374831246082    3.37232144898017   -1.89303986123729
N         4.79806933417274    4.50931944867668   -1.98093432368322
O         3.39906529952351    1.43276661436428   -1.30586190950407
O         2.71381114156072   -2.05105171725826   -1.02538281578407
C         1.06841946069323    0.95372186290691    0.11841613784618
C         1.80883663326939    1.41806120634420    1.39339670090160
O         0.98442131871135    1.88152137504139    2.32107618642752
O         3.00030912816253    1.36472722682966    1.50950707025248
N        -0.36557588532707    0.91174918915304    0.28383840787278
C        -1.05303100834009    2.07691776041650    0.17119820230914
C        -2.52738863794246    1.97945203255071    0.32842172178163
C        -3.31928182209599    1.35579949393127    1.26497136822077
C        -4.63746010284148    1.76056922786154    0.99824290821966
C        -4.55627955758338    2.61010678861187   -0.08429248644671
C        -5.58486150166768    3.29895676193169   -0.74751537788140
N        -6.44754300962094    3.82606657044087   -1.28701795411150
O        -3.27609776412892    2.74206361327473   -0.47683127442842
O        -0.49518312655136    3.13849925049950   -0.00879986487645
H        -3.17046054614825   -1.84687942717641   -0.11204197042068
H        -4.46493369283995   -2.26593832030202   -2.16291640420136
H        -3.72516682758176   -1.29563668283203   -4.30902787629811
H        -1.68846075072202    0.09399110456085   -4.39015157100103
H        -0.39533231187399    0.50958145328045   -2.34728751991776
H        -1.51522055658505   -0.68532265818972    1.03371831697860
H         0.31462587805022   -2.10081857917880   -0.59332275002790
H         1.50733914177435   -3.70061672381050    0.58304781086776
H         1.99100463826637   -4.83243437705025    2.71761862645277
H         1.43002418298634   -3.72744321996461    4.85450199895937
H         0.41373478124094   -1.48071769808909    4.84065349621717
H        -0.05969256037330   -0.35092360721550    2.72356302657365
H         5.28409326145135   -1.19844376444325   -1.67752244950634
H         6.51306696150091    1.15300662359784   -2.26344417086084
H         1.33276846124133    1.68476118566206   -0.66301036793467
H         1.47907883594121    2.23086449434450    3.08071374714559
H        -3.00152016227971    0.71463563042563    2.06124625191719
H        -5.52675596371779    1.48322683505118    1.52660550959236
56
 energy: -105.173274863441 gnorm: 0.005628254357 xtb: 6.3.3 (4ae9cef)
C        -2.85469948717440   -1.41397536751480   -1.04944200310486
C        -3.57949118374188   -1.64752133445053   -2.20440931878379
C        -3.16172876598538   -1.10216781760546   -3.40630052497516
C        -2.01848569309795   -0.32257477735354   -3.44977281597638
C        -1.29058682511640   -0.09148153270477   -2.29620799270606
C        -1.70525538448948   -0.63534860311280   -1.08715023112089
C        -0.89575800329489   -0.43793988936549    0.17186172902397
C         0.37060051527308   -1.31797858785095    0.16778714343721
C         0.67341613413489   -1.96516755117670    1.50113609579928
C         1.25968114154773   -3.22510529887209    1.51845414163673
C         1.53950443176437   -3.85106211144784    2.72006329069183
C         1.23294998178127   -3.22631400885979    3.91681864065942
C         0.66342821396537   -1.96503373381104    3.90697588795796
C         0.38863572547061   -1.33357046390132    2.70605750024230
N         1.42113837008177   -0.39161120489840   -0.24604462516167
C         2.55158191059485   -0.85926581364432   -0.83651661276935
C         3.58686994394214    0.10383398641799   -1.24463870639282
C         4.87284186312193   -0.21307839032148   -1.62635236930174
C         5.50926640187296    1.00018453755544   -1.92724960545324
C         4.56403444055150    1.98098967824318   -1.71552544670820
C         4.67029046506268    3.37200111731249   -1.87692023102141
N         4.79000945646299    4.50559207329124   -2.00450970742394
O         3.40075893140116    1.43378808360580   -1.30681104648639
O         2.71134027841273   -2.05024977219803   -1.03306258712167
C         1.06867324635697    0.95102679780340    0.12326722394783
C         1.81065414059061    1.40429429807554    1.40235359157967
O         0.98617104529796    1.88263628546916    2.32306485533040
O         3.00077416680913    1.33340705302362    1.52653699290161
N        -0.36573779862919    0.91143851091715    0.28927853957797
C        -1.05543347079591    2.07525963582647    0.16796470048670
C        -2.52882532773975    1.97615209392906    0.32139815880254
C        -3.31970542147169    1.35602575807835    1.26130655100053
C        -4.63877971676386    1.75668585736739    0.99317799888478
C        -4.55973818416020    2.59940447673486   -0.09483956711226
C        -5.59117179253187    3.27521305628080   -0.76682749073865
N        -6.45731536111294    3.82701897177297   -1.27876842306701
O        -3.27996001400509    2.73330562902321   -0.48799432463657
O        -0.49879642474505    3.13699805245577   -0.01498804765008
H        -3.17745858418979   -1.84228404123878   -0.11110681256494
H        -4.47002359115139   -2.25668409244961   -2.16492518865463
H        -3.72566176612837   -1.28540252122603   -4.30829581334993
H        -1.68862840618239    0.10375382892359   -4.38507480920290
H        -0.39752869164459    0.51450439115835   -2.33951996520322
H        -1.51451359392865   -0.68715461302931    1.03799734213039
H         0.30800258790680   -2.10193110779098   -0.59523168781209
H         1.50632563285198   -3.70416632100899    0.58343109555640
H         1.99296834297637   -4.83079900581607    2.72060081469724