      -----------------------------------------------------------      
     |                   =====================                   |     
     |                           x T B                           |     
     |                   =====================                   |     
     |                         S. Grimme                         |     
     |          Mulliken Center for Theoretical Chemistry        |     
     |                    University of Bonn                     |     
      -----------------------------------------------------------      

   * xtb version 6.3.3 (4ae9cef) compiled by 'conda@95abc7406d43' on 2020-10-14

   xtb is free software: you can redistribute it and/or modify it under
   the terms of the GNU Lesser General Public License as published by
   the Free Software Foundation, either version 3 of the License, or
   (at your option) any later version.
   
   xtb is distributed in the hope that it will be useful,
   but WITHOUT ANY WARRANTY; without even the implied warranty of
   MERCHANTABILITY or FITNESS FOR A PARTICULAR PURPOSE.  See the
   GNU Lesser General Public License for more details.
   
   Cite this work as:
   * C. Bannwarth, E. Caldeweyher, S. Ehlert, A. Hansen, P. Pracht,
     J. Seibert, S. Spicher, S. Grimme, WIREs Comput. Mol. Sci., 2020,
     e01493. DOI: 10.1002/wcms.1493
   
   for GFN2-xTB:
   * S. Grimme, C. Bannwarth, P. Shushkov, J. Chem. Theory Comput., 2017,
     13, 1989-2009. DOI: 10.1021/acs.jctc.7b00118
   for GFN1-xTB:
   * C. Bannwarth, S. Ehlert and S. Grimme., J. Chem. Theory Comput., 2019,
     15, 1652-1671. DOI: 10.1021/acs.jctc.8b01176
   for GFN0-xTB:
   * P. Pracht, E. Caldeweyher, S. Ehlert, S. Grimme, ChemRxiv, 2019, preprint.
     DOI: 10.26434/chemrxiv.8326202.v1
   for GFN-FF:
   * S. Spicher and S. Grimme, Angew. Chem. Int. Ed., 2020, 59, 15665-15673.
     DOI: 10.1002/anie.202004239
   
   for DFT-D4:
   * E. Caldeweyher, C. Bannwarth and S. Grimme, J. Chem. Phys., 2017,
     147, 034112. DOI: 10.1063/1.4993215
   * E. Caldeweyher, S. Ehlert, A. Hansen, H. Neugebauer, S. Spicher,
     C. Bannwarth and S. Grimme, J. Chem. Phys., 2019, 150, 154122.
     DOI: 10.1063/1.5090222
   * E. Caldeweyher, J.-M. Mewes, S. Ehlert and S. Grimme, Phys. Chem. Chem. Phys.
     2020, 22, 8499-8512. DOI: 10.1039/D0CP00502A
   
   for sTDA-xTB:
   * S. Grimme and C. Bannwarth, J. Chem. Phys., 2016, 145, 054103.
     DOI: 10.1063/1.4959605
   
   in the mass-spec context:
   * V. Asgeirsson, C. Bauer and S. Grimme, Chem. Sci., 2017, 8, 4879.
     DOI: 10.1039/c7sc00601b
   * J. Koopman and S. Grimme, ACS Omega 2019, 4, 12, 15120-15133.
     DOI: 10.1021/acsomega.9b02011
   
   for metadynamics refer to:
   * S. Grimme, J. Chem. Theory Comput., 2019, 155, 2847-2862
     DOI: 10.1021/acs.jctc.9b00143
   
   with help from (in alphabetical order)
   C. Bannwarth, F. Bohle, G. Brandenburg, E. Caldeweyher, M. Checinski,
   S. Dohm, S. Ehlert, S. Ehrlich, F. März, H. Neugebauer, J. Pisarek,
   P. Pracht, P. Shushkov, and S. Spicher.
   
 * started run on 2022/03/17 at 02:10:51.910     

           -------------------------------------------------
          |                Calculation Setup                |
           -------------------------------------------------

          program call               : xtb acid_87.xyz --opt --chrg 0 --uhf 0 --gfn 2
          coordinate file            : acid_87.xyz
          omp threads                :                    64
          number of atoms            :                    86
          number of electrons        :                   238
          charge                     :                     0
          spin                       :                   0.0
          first test random number   :      0.74459230635454

   ID    Z sym.   atoms
    1    6 C      1, 3-16, 18, 20-29, 31, 32, 36-45
    2    8 O      2, 17, 30, 33, 34, 46
    3    7 N      19, 35
    4    1 H      47-86

           -------------------------------------------------
          |                 G F N 2 - x T B                 |
           -------------------------------------------------

        Reference                      10.1021/acs.jctc.8b01176
      * Hamiltonian:
        H0-scaling (s, p, d)           1.850000    2.230000    2.230000
        zeta-weighting                 0.500000
      * Dispersion:
        s8                             2.700000
        a1                             0.520000
        a2                             5.000000
        s9                             5.000000
      * Repulsion:
        kExp                           1.500000    1.000000
        rExp                           1.000000
      * Coulomb:
        alpha                          2.000000
        third order                    shell-resolved
        anisotropic                    true
        a3                             3.000000
        a5                             4.000000
        cn-shift                       1.200000
        cn-exp                         4.000000
        max-rad                        5.000000


          ...................................................
          :                      SETUP                      :
          :.................................................:
          :  # basis functions                 224          :
          :  # atomic orbitals                 224          :
          :  # shells                          132          :
          :  # electrons                       238          :
          :  max. iterations                   250          :
          :  Hamiltonian                  GFN2-xTB          :
          :  restarted?                      false          :
          :  GBSA solvation                  false          :
          :  PC potential                    false          :
          :  electronic temp.          300.0000000     K    :
          :  accuracy                    1.0000000          :
          :  -> integral cutoff          0.2500000E+02      :
          :  -> integral neglect         0.1000000E-07      :
          :  -> SCF convergence          0.1000000E-05 Eh   :
          :  -> wf. convergence          0.1000000E-03 e    :
          :  Broyden damping             0.4000000          :
          ...................................................

 iter      E             dE          RMSdq      gap      omega  full diag
   1   -133.6533141 -0.133653E+03  0.425E+00    3.20       0.0  T
   2   -133.8426752 -0.189361E+00  0.241E+00    3.08       1.0  T
   3   -133.8401265  0.254867E-02  0.115E+00    3.37       1.0  T
   4   -133.8628064 -0.226799E-01  0.269E-01    2.91       1.0  T
   5   -133.8663799 -0.357350E-02  0.993E-02    2.95       1.0  T
   6   -133.8667059 -0.326007E-03  0.472E-02    2.99       1.0  T
   7   -133.8667429 -0.369990E-04  0.198E-02    2.99       1.0  T
   8   -133.8667484 -0.547901E-05  0.655E-03    3.00       1.6  T
   9   -133.8667499 -0.155353E-05  0.306E-03    3.00       3.5  T
  10   -133.8667503 -0.424510E-06  0.117E-03    3.00       9.3  T
  11   -133.8667504 -0.403601E-07  0.579E-04    3.00      18.6  T
  12   -133.8667504 -0.571814E-08  0.248E-04    3.00      43.4  T

   *** convergence criteria satisfied after 12 iterations ***

         #    Occupation            Energy/Eh            Energy/eV
      -------------------------------------------------------------
         1        2.0000           -0.7639843             -20.7891
       ...           ...                  ...                  ...
       113        2.0000           -0.3988385             -10.8529
       114        2.0000           -0.3958320             -10.7711
       115        2.0000           -0.3945142             -10.7353
       116        2.0000           -0.3912042             -10.6452
       117        2.0000           -0.3897311             -10.6051
       118        2.0000           -0.3834332             -10.4337
       119        2.0000           -0.3783157             -10.2945 (HOMO)
       120                         -0.2681349              -7.2963 (LUMO)
       121                         -0.2553559              -6.9486
       122                         -0.2351986              -6.4001
       123                         -0.2349721              -6.3939
       124                         -0.2332479              -6.3470
       ...                                ...                  ...
       224                          0.6299862              17.1428
      -------------------------------------------------------------
                  HL-Gap            0.1101808 Eh            2.9982 eV
             Fermi-level           -0.3232253 Eh           -8.7954 eV

 SCC (total)                   0 d,  0 h,  0 min,  0.641 sec
 SCC setup                      ...        0 min,  0.020 sec (  3.067%)
 Dispersion                     ...        0 min,  0.012 sec (  1.897%)
 classical contributions        ...        0 min,  0.016 sec (  2.487%)
 integral evaluation            ...        0 min,  0.134 sec ( 20.943%)
 iterations                     ...        0 min,  0.312 sec ( 48.719%)
 molecular gradient             ...        0 min,  0.143 sec ( 22.325%)
 printout                       ...        0 min,  0.003 sec (  0.545%)

         :::::::::::::::::::::::::::::::::::::::::::::::::::::
         ::                     SUMMARY                     ::
         :::::::::::::::::::::::::::::::::::::::::::::::::::::
         :: total energy            -132.050591427830 Eh    ::
         :: gradient norm              0.094592643913 Eh/a0 ::
         :: HOMO-LUMO gap              2.998171957525 eV    ::
         ::.................................................::
         :: SCC energy              -133.866750380392 Eh    ::
         :: -> isotropic ES            0.156184607182 Eh    ::
         :: -> anisotropic ES          0.014477678672 Eh    ::
         :: -> anisotropic XC          0.052956150577 Eh    ::
         :: -> dispersion             -0.108620726708 Eh    ::
         :: repulsion energy           1.812071492019 Eh    ::
         :: add. restraining           0.000000000000 Eh    ::
         :: total charge              -0.000000000000 e     ::
         :::::::::::::::::::::::::::::::::::::::::::::::::::::

      ----------------------------------------------------------- 
     |                   =====================                   |
     |                        A N C O P T                        |
     |                   =====================                   |
     |               Approximate Normal Coordinate               |
     |                Rational Function Optimizer                |
      ----------------------------------------------------------- 

          ...................................................
          :                      SETUP                      :
          :.................................................:
          :   optimization level            normal          :
          :   max. optcycles                   258          :
          :   ANC micro-cycles                  20          :
          :   degrees of freedom               252          :
          :.................................................:
          :   RF solver                   davidson          :
          :   write xtbopt.log                true          :
          :   linear?                        false          :
          :   energy convergence         0.5000000E-05 Eh   :
          :   grad. convergence          0.1000000E-02 Eh/α :
          :   maximium RF displ.         1.0000000          :
          :   Hlow (freq-cutoff)         0.1000000E-01      :
          :   Hmax (freq-cutoff)         5.0000000          :
          :   S6 in model hess.         20.0000000          :
          ...................................................

generating ANC from model Hessian ...
Using Lindh-Hessian (1995)
 Shifting diagonal of input Hessian by    9.9258422407969039E-003
 Lowest  eigenvalues of input Hessian
    0.000000    0.000000    0.000000    0.000000    0.000000    0.000000
    0.010000    0.010025    0.010086    0.010190    0.010235    0.010282
    0.010359    0.010459    0.010508    0.010710    0.011047    0.011192
 Highest eigenvalues
    1.980599    2.007275    2.020488    2.195398    2.235422    2.245382


........................................................................
.............................. CYCLE    1 ..............................
........................................................................
   1   -133.8667504 -0.133867E+03  0.968E-05    3.00       0.0  T
   2   -133.8667504 -0.150521E-09  0.613E-05    3.00     175.9  T
   3   -133.8667504 -0.112749E-09  0.382E-05    3.00     281.9  T
     SCC iter.                  ...        0 min,  0.081 sec
     gradient                   ...        0 min,  0.130 sec
 * total energy  :  -132.0505914 Eh     change       -0.2218172E-08 Eh
   gradient norm :     0.0945973 Eh/α   predicted     0.0000000E+00 (-100.00%)
   displ. norm   :     0.3893642 α      lambda       -0.2101826E-01
   maximum displ.:     0.1601373 α      in ANC's #90, #46, #39, ...

........................................................................
.............................. CYCLE    2 ..............................
........................................................................
   1   -133.9568013 -0.133957E+03  0.162E-01    3.26       0.0  T
   2   -133.9569307 -0.129498E-03  0.998E-02    3.21       1.0  T
   3   -133.9568568  0.739519E-04  0.443E-02    3.22       1.0  T
   4   -133.9569746 -0.117831E-03  0.776E-03    3.20       1.4  T
   5   -133.9569784 -0.380805E-05  0.292E-03    3.20       3.7  T
   6   -133.9569787 -0.230157E-06  0.142E-03    3.20       7.6  T
   7   -133.9569787 -0.178092E-07  0.509E-04    3.20      21.2  T
   8   -133.9569787 -0.941043E-08  0.210E-04    3.20      51.2  T
     SCC iter.                  ...        0 min,  0.211 sec
     gradient                   ...        0 min,  0.151 sec
 * total energy  :  -132.0652033 Eh     change       -0.1461188E-01 Eh
   gradient norm :     0.0350338 Eh/α   predicted    -0.1210236E-01 ( -17.17%)
   displ. norm   :     0.3928463 α      lambda       -0.6972355E-02
   maximum displ.:     0.1598352 α      in ANC's #21, #39, #46, ...

........................................................................
.............................. CYCLE    3 ..............................
........................................................................
   1   -134.0017268 -0.134002E+03  0.106E-01    3.33       0.0  T
   2   -134.0017911 -0.642815E-04  0.667E-02    3.30       1.0  T
   3   -134.0017610  0.300488E-04  0.305E-02    3.31       1.0  T
   4   -134.0018154 -0.543938E-04  0.552E-03    3.30       2.0  T
   5   -134.0018177 -0.229165E-05  0.180E-03    3.30       6.0  T
   6   -134.0018178 -0.587314E-07  0.917E-04    3.30      11.8  T
   7   -134.0018178 -0.797920E-08  0.373E-04    3.30      28.9  T
     SCC iter.                  ...        0 min,  0.184 sec
     gradient                   ...        0 min,  0.151 sec
 * total energy  :  -132.0695822 Eh     change       -0.4378845E-02 Eh
   gradient norm :     0.0125540 Eh/α   predicted    -0.4024191E-02 (  -8.10%)
   displ. norm   :     0.3229192 α      lambda       -0.1722971E-02
   maximum displ.:     0.1842696 α      in ANC's #21, #39, #22, ...

........................................................................
.............................. CYCLE    4 ..............................
........................................................................
   1   -134.0088481 -0.134009E+03  0.588E-02    3.32       0.0  T
   2   -134.0088644 -0.163584E-04  0.361E-02    3.31       1.0  T
   3   -134.0088532  0.112034E-04  0.153E-02    3.32       1.0  T
   4   -134.0088697 -0.165130E-04  0.329E-03    3.31       3.3  T
   5   -134.0088707 -0.909458E-06  0.112E-03    3.31       9.6  T
   6   -134.0088707 -0.148947E-07  0.599E-04    3.31      18.0  T
   7   -134.0088707 -0.674893E-08  0.205E-04    3.31      52.5  T
     SCC iter.                  ...        0 min,  0.191 sec
     gradient                   ...        0 min,  0.130 sec
 * total energy  :  -132.0708512 Eh     change       -0.1269002E-02 Eh
   gradient norm :     0.0093103 Eh/α   predicted    -0.9513290E-03 ( -25.03%)
   displ. norm   :     0.3870303 α      lambda       -0.1207879E-02
   maximum displ.:     0.2312366 α      in ANC's #21, #12, #39, ...

........................................................................
.............................. CYCLE    5 ..............................
........................................................................
   1   -134.0102951 -0.134010E+03  0.646E-02    3.33       0.0  T
   2   -134.0103044 -0.928410E-05  0.385E-02    3.32       1.0  T
   3   -134.0102918  0.125643E-04  0.134E-02    3.32       1.0  T
   4   -134.0103075 -0.157346E-04  0.276E-03    3.32       3.9  T
   5   -134.0103081 -0.532669E-06  0.120E-03    3.32       9.0  T
   6   -134.0103081 -0.150523E-07  0.595E-04    3.32      18.1  T
   7   -134.0103081 -0.928728E-08  0.198E-04    3.32      54.4  T
     SCC iter.                  ...        0 min,  0.185 sec
     gradient                   ...        0 min,  0.129 sec
 * total energy  :  -132.0716867 Eh     change       -0.8355780E-03 Eh
   gradient norm :     0.0066366 Eh/α   predicted    -0.6944150E-03 ( -16.89%)
   displ. norm   :     0.3012416 α      lambda       -0.5196541E-03
   maximum displ.:     0.1640072 α      in ANC's #21, #12, #10, ...

........................................................................
.............................. CYCLE    6 ..............................
........................................................................
   1   -134.0107042 -0.134011E+03  0.500E-02    3.33       0.0  T
   2   -134.0107078 -0.359742E-05  0.295E-02    3.32       1.0  T
   3   -134.0107032  0.460880E-05  0.825E-03    3.32       1.3  T
   4   -134.0107089 -0.565166E-05  0.174E-03    3.32       6.2  T
   5   -134.0107090 -0.182278E-06  0.791E-04    3.32      13.6  T
   6   -134.0107090 -0.680359E-08  0.417E-04    3.32      25.8  T
     SCC iter.                  ...        0 min,  0.161 sec
     gradient                   ...        0 min,  0.146 sec
 * total energy  :  -132.0720470 Eh     change       -0.3602630E-03 Eh
   gradient norm :     0.0046515 Eh/α   predicted    -0.2834063E-03 ( -21.33%)
   displ. norm   :     0.2513206 α      lambda       -0.2785252E-03
   maximum displ.:     0.1143852 α      in ANC's #12, #21, #10, ...

........................................................................
.............................. CYCLE    7 ..............................
........................................................................
   1   -134.0118293 -0.134012E+03  0.429E-02    3.34       0.0  T
   2   -134.0118316 -0.227177E-05  0.251E-02    3.33       1.0  T
   3   -134.0118296  0.197809E-05  0.569E-03    3.34       1.9  T
   4   -134.0118320 -0.238960E-05  0.127E-03    3.34       8.5  T
   5   -134.0118321 -0.972721E-07  0.495E-04    3.34      21.8  T
   6   -134.0118321 -0.246712E-08  0.285E-04    3.34      37.8  T
     SCC iter.                  ...        0 min,  0.157 sec
     gradient                   ...        0 min,  0.128 sec
 * total energy  :  -132.0722507 Eh     change       -0.2037379E-03 Eh
   gradient norm :     0.0036174 Eh/α   predicted    -0.1480613E-03 ( -27.33%)
   displ. norm   :     0.2808575 α      lambda       -0.2412591E-03
   maximum displ.:     0.1241719 α      in ANC's #12, #10, #8, ...

........................................................................
.............................. CYCLE    8 ..............................
........................................................................
   1   -134.0126700 -0.134013E+03  0.521E-02    3.34       0.0  T
   2   -134.0126715 -0.150811E-05  0.306E-02    3.34       1.0  T
   3   -134.0126693  0.220124E-05  0.561E-03    3.34       1.9  T
   4   -134.0126720 -0.265821E-05  0.100E-03    3.34      10.8  T
   5   -134.0126720 -0.430154E-07  0.452E-04    3.34      23.9  T
   6   -134.0126720 -0.130029E-08  0.215E-04    3.34      50.1  T
     SCC iter.                  ...        0 min,  0.161 sec
     gradient                   ...        0 min,  0.134 sec
 * total energy  :  -132.0724368 Eh     change       -0.1860669E-03 Eh
   gradient norm :     0.0043391 Eh/α   predicted    -0.1301468E-03 ( -30.05%)
   displ. norm   :     0.3644647 α      lambda       -0.2745500E-03
   maximum displ.:     0.1469075 α      in ANC's #12, #10, #8, ...

........................................................................
.............................. CYCLE    9 ..............................
........................................................................
   1   -134.0129380 -0.134013E+03  0.703E-02    3.35       0.0  T
   2   -134.0129403 -0.227326E-05  0.413E-02    3.35       1.0  T
   3   -134.0129367  0.358347E-05  0.699E-03    3.35       1.5  T
   4   -134.0129410 -0.433186E-05  0.117E-03    3.35       9.2  T
   5   -134.0129411 -0.525282E-07  0.548E-04    3.35      19.7  T
   6   -134.0129411 -0.263509E-08  0.239E-04    3.35      45.1  T
     SCC iter.                  ...        0 min,  0.162 sec
     gradient                   ...        0 min,  0.132 sec
 * total energy  :  -132.0726522 Eh     change       -0.2154270E-03 Eh
   gradient norm :     0.0054122 Eh/α   predicted    -0.1555107E-03 ( -27.81%)
   displ. norm   :     0.4409026 α      lambda       -0.3036505E-03
   maximum displ.:     0.1592526 α      in ANC's #12, #10, #8, ...

........................................................................
.............................. CYCLE   10 ..............................
........................................................................
   1   -134.0122346 -0.134012E+03  0.854E-02    3.36       0.0  T
   2   -134.0122372 -0.261404E-05  0.503E-02    3.36       1.0  T
   3   -134.0122319  0.528884E-05  0.837E-03    3.36       1.3  T
   4   -134.0122383 -0.640578E-05  0.129E-03    3.36       8.4  T
   5   -134.0122384 -0.490047E-07  0.661E-04    3.36      16.3  T
   6   -134.0122384 -0.491542E-08  0.239E-04    3.36      45.1  T
     SCC iter.                  ...        0 min,  0.159 sec
     gradient                   ...        0 min,  0.102 sec
 * total energy  :  -132.0728879 Eh     change       -0.2356904E-03 Eh
   gradient norm :     0.0053490 Eh/α   predicted    -0.1813523E-03 ( -23.05%)
   displ. norm   :     0.4471344 α      lambda       -0.2785715E-03
   maximum displ.:     0.1544107 α      in ANC's #7, #10, #8, ...

........................................................................
.............................. CYCLE   11 ..............................
........................................................................
   1   -134.0116272 -0.134012E+03  0.849E-02    3.36       0.0  T
   2   -134.0116301 -0.291787E-05  0.499E-02    3.36       1.0  T
   3   -134.0116242  0.589531E-05  0.881E-03    3.37       1.2  T
   4   -134.0116313 -0.709991E-05  0.132E-03    3.37       8.1  T
   5   -134.0116314 -0.555097E-07  0.675E-04    3.37      16.0  T
   6   -134.0116314 -0.472539E-08  0.283E-04    3.37      38.1  T
     SCC iter.                  ...        0 min,  0.158 sec
     gradient                   ...        0 min,  0.139 sec
 * total energy  :  -132.0730990 Eh     change       -0.2110570E-03 Eh
   gradient norm :     0.0044333 Eh/α   predicted    -0.1671373E-03 ( -20.81%)
   displ. norm   :     0.3908136 α      lambda       -0.2083715E-03
   maximum displ.:     0.1556664 α      in ANC's #7, #4, #8, ...

........................................................................
.............................. CYCLE   12 ..............................
........................................................................
   1   -134.0117817 -0.134012E+03  0.709E-02    3.37       0.0  T
   2   -134.0117848 -0.303965E-05  0.416E-02    3.37       1.0  T
   3   -134.0117796  0.519645E-05  0.821E-03    3.37       1.3  T
   4   -134.0117857 -0.616182E-05  0.126E-03    3.37       8.6  T
   5   -134.0117858 -0.788617E-07  0.566E-04    3.37      19.1  T
   6   -134.0117858 -0.347623E-08  0.291E-04    3.37      37.0  T
     SCC iter.                  ...        0 min,  0.159 sec
     gradient                   ...        0 min,  0.114 sec
 * total energy  :  -132.0732566 Eh     change       -0.1575778E-03 Eh
   gradient norm :     0.0035002 Eh/α   predicted    -0.1201018E-03 ( -23.78%)
   displ. norm   :     0.3703755 α      lambda       -0.1660908E-03
   maximum displ.:     0.1654033 α      in ANC's #7, #4, #8, ...

........................................................................
.............................. CYCLE   13 ..............................
........................................................................
   1   -134.0120981 -0.134012E+03  0.644E-02    3.38       0.0  T
   2   -134.0121007 -0.261155E-05  0.378E-02    3.38       1.0  T
   3   -134.0120945  0.618420E-05  0.884E-03    3.38       1.2  T
   4   -134.0121018 -0.729749E-05  0.110E-03    3.38       9.8  T
   5   -134.0121019 -0.506869E-07  0.533E-04    3.38      20.2  T
   6   -134.0121019 -0.398609E-08  0.265E-04    3.38      40.7  T
     SCC iter.                  ...        0 min,  0.160 sec
     gradient                   ...        0 min,  0.134 sec
 * total energy  :  -132.0733906 Eh     change       -0.1340570E-03 Eh
   gradient norm :     0.0031970 Eh/α   predicted    -0.9443761E-04 ( -29.55%)
   displ. norm   :     0.3917781 α      lambda       -0.1835941E-03
   maximum displ.:     0.1924344 α      in ANC's #7, #4, #8, ...

........................................................................
.............................. CYCLE   14 ..............................
........................................................................
   1   -134.0135123 -0.134014E+03  0.644E-02    3.39       0.0  T
   2   -134.0135154 -0.316234E-05  0.379E-02    3.39       1.0  T
   3   -134.0135071  0.831112E-05  0.103E-02    3.39       1.0  T
   4   -134.0135170 -0.983656E-05  0.115E-03    3.39       9.3  T
   5   -134.0135170 -0.436139E-07  0.586E-04    3.39      18.4  T
   6   -134.0135170 -0.749804E-08  0.288E-04    3.39      37.5  T
     SCC iter.                  ...        0 min,  0.171 sec
     gradient                   ...        0 min,  0.150 sec
 * total energy  :  -132.0735456 Eh     change       -0.1549359E-03 Eh
   gradient norm :     0.0037761 Eh/α   predicted    -0.1058876E-03 ( -31.66%)
   displ. norm   :     0.5079377 α      lambda       -0.2351979E-03
   maximum displ.:     0.2563621 α      in ANC's #7, #4, #8, ...

........................................................................
.............................. CYCLE   15 ..............................
........................................................................
   1   -134.0131781 -0.134013E+03  0.821E-02    3.39       0.0  T
   2   -134.0131836 -0.543880E-05  0.483E-02    3.39       1.0  T
   3   -134.0131682  0.153810E-04  0.142E-02    3.39       1.0  T
   4   -134.0131864 -0.182171E-04  0.147E-03    3.39       7.3  T
   5   -134.0131865 -0.575983E-07  0.747E-04    3.39      14.4  T
   6   -134.0131865 -0.143866E-07  0.369E-04    3.39      29.2  T
     SCC iter.                  ...        0 min,  0.163 sec
     gradient                   ...        0 min,  0.118 sec
 * total energy  :  -132.0737515 Eh     change       -0.2059712E-03 Eh
   gradient norm :     0.0046148 Eh/α   predicted    -0.1479472E-03 ( -28.17%)
   displ. norm   :     0.5707277 α      lambda       -0.3056464E-03
   maximum displ.:     0.3034765 α      in ANC's #7, #4, #1, ...

........................................................................
.............................. CYCLE   16 ..............................
........................................................................
   1   -134.0155382 -0.134016E+03  0.873E-02    3.39       0.0  T
   2   -134.0155455 -0.731157E-05  0.514E-02    3.39       1.0  T
   3   -134.0155262  0.192980E-04  0.164E-02    3.39       1.0  T
   4   -134.0155493 -0.231232E-04  0.169E-03    3.39       6.4  T
   5   -134.0155494 -0.649551E-07  0.885E-04    3.39      12.2  T
   6   -134.0155494 -0.240022E-07  0.428E-04    3.39      25.2  T
     SCC iter.                  ...        0 min,  0.159 sec
     gradient                   ...        0 min,  0.125 sec
 * total energy  :  -132.0740043 Eh     change       -0.2527959E-03 Eh
   gradient norm :     0.0055805 Eh/α   predicted    -0.2026027E-03 ( -19.86%)
   displ. norm   :     0.6655182 α      lambda       -0.3234512E-03
   maximum displ.:     0.3536074 α      in ANC's #7, #4, #1, ...

........................................................................
.............................. CYCLE   17 ..............................
........................................................................
   1   -134.0113153 -0.134011E+03  0.107E-01    3.38       0.0  T
   2   -134.0113267 -0.114425E-04  0.630E-02    3.38       1.0  T
   3   -134.0112957  0.309496E-04  0.204E-02    3.38       1.0  T
   4   -134.0113326 -0.368667E-04  0.196E-03    3.38       5.5  T
   5   -134.0113327 -0.106319E-06  0.942E-04    3.38      11.5  T
   6   -134.0113327 -0.229532E-07  0.485E-04    3.38      22.2  T
     SCC iter.                  ...        0 min,  0.158 sec
     gradient                   ...        0 min,  0.146 sec
 * total energy  :  -132.0742556 Eh     change       -0.2512378E-03 Eh
   gradient norm :     0.0052478 Eh/α   predicted    -0.2333592E-03 (  -7.12%)
   displ. norm   :     0.5425824 α      lambda       -0.3045900E-03
   maximum displ.:     0.3052255 α      in ANC's #7, #1, #4, ...

........................................................................
.............................. CYCLE   18 ..............................
........................................................................
   1   -134.0130038 -0.134013E+03  0.844E-02    3.37       0.0  T
   2   -134.0130121 -0.829622E-05  0.497E-02    3.37       1.0  T
   3   -134.0129931  0.190253E-04  0.168E-02    3.37       1.0  T
   4   -134.0130161 -0.230263E-04  0.170E-03    3.37       6.3  T
   5   -134.0130162 -0.968084E-07  0.841E-04    3.37      12.8  T
   6   -134.0130163 -0.203829E-07  0.407E-04    3.37      26.5  T
     SCC iter.                  ...        0 min,  0.155 sec
     gradient                   ...        0 min,  0.150 sec
 * total energy  :  -132.0744904 Eh     change       -0.2348384E-03 Eh
   gradient norm :     0.0035258 Eh/α   predicted    -0.1971307E-03 ( -16.06%)
   displ. norm   :     0.5901047 α      lambda       -0.2473707E-03
   maximum displ.:     0.3358755 α      in ANC's #7, #1, #4, ...

........................................................................
.............................. CYCLE   19 ..............................
........................................................................
   1   -134.0116136 -0.134012E+03  0.943E-02    3.35       0.0  T
   2   -134.0116236 -0.999396E-05  0.556E-02    3.35       1.0  T
   3   -134.0115997  0.238686E-04  0.185E-02    3.35       1.0  T
   4   -134.0116284 -0.286756E-04  0.182E-03    3.35       5.9  T
   5   -134.0116285 -0.113924E-06  0.870E-04    3.35      12.4  T
   6   -134.0116285 -0.190044E-07  0.440E-04    3.35      24.5  T
     SCC iter.                  ...        0 min,  0.163 sec
     gradient                   ...        0 min,  0.139 sec
 * total energy  :  -132.0746965 Eh     change       -0.2061448E-03 Eh
   gradient norm :     0.0046790 Eh/α   predicted    -0.1667591E-03 ( -19.11%)
   displ. norm   :     0.5564247 α      lambda       -0.3034624E-03
   maximum displ.:     0.3289512 α      in ANC's #7, #1, #4, ...

........................................................................
.............................. CYCLE   20 ..............................
........................................................................
   1   -134.0139572 -0.134014E+03  0.896E-02    3.34       0.0  T
   2   -134.0139669 -0.972695E-05  0.527E-02    3.34       1.0  T
   3   -134.0139463  0.206014E-04  0.176E-02    3.34       1.0  T
   4   -134.0139713 -0.249493E-04  0.183E-03    3.34       5.9  T
   5   -134.0139714 -0.136384E-06  0.859E-04    3.34      12.6  T
   6   -134.0139714 -0.184084E-07  0.428E-04    3.34      25.2  T
     SCC iter.                  ...        0 min,  0.159 sec
     gradient                   ...        0 min,  0.133 sec
 * total energy  :  -132.0749332 Eh     change       -0.2366845E-03 Eh
   gradient norm :     0.0049573 Eh/α   predicted    -0.1987103E-03 ( -16.04%)
   displ. norm   :     0.6664446 α      lambda       -0.3055798E-03
   maximum displ.:     0.3844044 α      in ANC's #7, #1, #4, ...
 * RMSD in coord.:     0.7431368 α      energy gain  -0.2434180E-01 Eh

generating ANC from model Hessian ...
Using Lindh-Hessian (1995)
 Shifting diagonal of input Hessian by    9.9260505188707559E-003
 Lowest  eigenvalues of input Hessian
    0.000000    0.000000    0.000000    0.000000    0.000000    0.000000
    0.010000    0.010063    0.010093    0.010194    0.010224    0.010310
    0.010381    0.010509    0.010567    0.010762    0.011217    0.011349
 Highest eigenvalues
    2.054642    2.088104    2.091711    2.332025    2.336150    2.387828


........................................................................
.............................. CYCLE   21 ..............................
........................................................................
   1   -134.0111405 -0.134011E+03  0.108E-01    3.32       0.0  T
   2   -134.0111523 -0.118626E-04  0.638E-02    3.32       1.0  T
   3   -134.0111257  0.265995E-04  0.195E-02    3.33       1.0  T
   4   -134.0111576 -0.318612E-04  0.215E-03    3.33       5.0  T
   5   -134.0111578 -0.171413E-06  0.103E-03    3.33      10.5  T
   6   -134.0111578 -0.200031E-07  0.519E-04    3.33      20.8  T
   7   -134.0111578 -0.327668E-08  0.187E-04    3.33      57.6  T
     SCC iter.                  ...        0 min,  0.188 sec
     gradient                   ...        0 min,  0.125 sec
 * total energy  :  -132.0751856 Eh     change       -0.2524110E-03 Eh
   gradient norm :     0.0070120 Eh/α   predicted     0.0000000E+00 (-100.00%)
   displ. norm   :     0.0741226 α      lambda       -0.1579717E-03
   maximum displ.:     0.0265792 α      in ANC's #23, #12, #7, ...

........................................................................
.............................. CYCLE   22 ..............................
........................................................................
   1   -134.0151106 -0.134015E+03  0.175E-02    3.33       0.0  T
   2   -134.0151111 -0.491641E-06  0.105E-02    3.33       1.0  T
   3   -134.0151103  0.763772E-06  0.339E-03    3.33       3.2  T
   4   -134.0151113 -0.943414E-06  0.542E-04    3.33      19.9  T
   5   -134.0151113 -0.145237E-07  0.251E-04    3.33      43.0  T
     SCC iter.                  ...        0 min,  0.131 sec
     gradient                   ...        0 min,  0.144 sec
 * total energy  :  -132.0753081 Eh     change       -0.1224231E-03 Eh
   gradient norm :     0.0027957 Eh/α   predicted    -0.7944698E-04 ( -35.10%)
   displ. norm   :     0.1762418 α      lambda       -0.1868742E-03
   maximum displ.:     0.0659174 α      in ANC's #23, #12, #7, ...

........................................................................
.............................. CYCLE   23 ..............................
........................................................................
   1   -134.0186715 -0.134019E+03  0.338E-02    3.34       0.0  T
   2   -134.0186727 -0.122286E-05  0.199E-02    3.34       1.0  T
   3   -134.0186709  0.181658E-05  0.544E-03    3.34       2.0  T
   4   -134.0186731 -0.222592E-05  0.897E-04    3.34      12.0  T
   5   -134.0186732 -0.317258E-07  0.444E-04    3.34      24.3  T
   6   -134.0186732 -0.268565E-08  0.227E-04    3.34      47.6  T
     SCC iter.                  ...        0 min,  0.159 sec
     gradient                   ...        0 min,  0.132 sec
 * total energy  :  -132.0754413 Eh     change       -0.1332641E-03 Eh
   gradient norm :     0.0030199 Eh/α   predicted    -0.9636761E-04 ( -27.69%)
   displ. norm   :     0.2418556 α      lambda       -0.1560865E-03
   maximum displ.:     0.0946161 α      in ANC's #23, #12, #7, ...

........................................................................
.............................. CYCLE   24 ..............................
........................................................................
   1   -134.0195866 -0.134020E+03  0.408E-02    3.34       0.0  T
   2   -134.0195884 -0.181048E-05  0.241E-02    3.34       1.0  T
   3   -134.0195859  0.248061E-05  0.639E-03    3.34       1.7  T
   4   -134.0195890 -0.304191E-05  0.112E-03    3.34       9.6  T
   5   -134.0195890 -0.462907E-07  0.536E-04    3.34      20.1  T
   6   -134.0195890 -0.322478E-08  0.279E-04    3.34      38.7  T
     SCC iter.                  ...        0 min,  0.166 sec
     gradient                   ...        0 min,  0.136 sec
 * total energy  :  -132.0755694 Eh     change       -0.1281222E-03 Eh
   gradient norm :     0.0053270 Eh/α   predicted    -0.8261259E-04 ( -35.52%)
   displ. norm   :     0.4681398 α      lambda       -0.2715532E-03
   maximum displ.:     0.1848910 α      in ANC's #23, #7, #12, ...

........................................................................
.............................. CYCLE   25 ..............................
........................................................................
   1   -134.0173077 -0.134017E+03  0.747E-02    3.33       0.0  T
   2   -134.0173158 -0.802087E-05  0.441E-02    3.33       1.0  T
   3   -134.0173055  0.102998E-04  0.131E-02    3.33       1.0  T
   4   -134.0173182 -0.127116E-04  0.226E-03    3.33       4.8  T
   5   -134.0173184 -0.189827E-06  0.103E-03    3.33      10.5  T
   6   -134.0173184 -0.107014E-07  0.541E-04    3.33      19.9  T
   7   -134.0173184 -0.859580E-08  0.190E-04    3.33      56.9  T
     SCC iter.                  ...        0 min,  0.189 sec
     gradient                   ...        0 min,  0.146 sec
 * total energy  :  -132.0757504 Eh     change       -0.1809351E-03 Eh
   gradient norm :     0.0088383 Eh/α   predicted    -0.1655326E-03 (  -8.51%)
   displ. norm   :     0.2483438 α      lambda       -0.1915838E-03
   maximum displ.:     0.0973381 α      in ANC's #7, #6, #1, ...

........................................................................
.............................. CYCLE   26 ..............................
........................................................................
   1   -134.0156614 -0.134016E+03  0.379E-02    3.32       0.0  T
   2   -134.0156642 -0.274388E-05  0.225E-02    3.32       1.0  T
   3   -134.0156603  0.390651E-05  0.824E-03    3.32       1.3  T
   4   -134.0156652 -0.491214E-05  0.114E-03    3.32       9.5  T
   5   -134.0156652 -0.458122E-07  0.515E-04    3.32      21.0  T
   6   -134.0156652 -0.420283E-08  0.273E-04    3.32      39.5  T
     SCC iter.                  ...        0 min,  0.161 sec
     gradient                   ...        0 min,  0.147 sec
 * total energy  :  -132.0759150 Eh     change       -0.1645818E-03 Eh
   gradient norm :     0.0077912 Eh/α   predicted    -0.1017339E-03 ( -38.19%)
   displ. norm   :     0.3835564 α      lambda       -0.5106509E-03
   maximum displ.:     0.1715441 α      in ANC's #7, #6, #1, ...

........................................................................
.............................. CYCLE   27 ..............................
........................................................................
   1   -134.0151303 -0.134015E+03  0.617E-02    3.31       0.0  T
   2   -134.0151406 -0.102233E-04  0.365E-02    3.31       1.0  T
   3   -134.0151294  0.112217E-04  0.154E-02    3.31       1.0  T
   4   -134.0151443 -0.149466E-04  0.212E-03    3.31       5.1  T
   5   -134.0151445 -0.175711E-06  0.918E-04    3.31      11.7  T
   6   -134.0151445 -0.101850E-07  0.476E-04    3.31      22.7  T
     SCC iter.                  ...        0 min,  0.158 sec
     gradient                   ...        0 min,  0.124 sec
 * total energy  :  -132.0762109 Eh     change       -0.2959681E-03 Eh
   gradient norm :     0.0060140 Eh/α   predicted    -0.2929559E-03 (  -1.02%)
   displ. norm   :     0.5928518 α      lambda       -0.4069526E-03
   maximum displ.:     0.2388974 α      in ANC's #7, #6, #23, ...

........................................................................
.............................. CYCLE   28 ..............................
........................................................................
   1   -134.0095300 -0.134010E+03  0.918E-02    3.30       0.0  T
   2   -134.0095469 -0.168633E-04  0.543E-02    3.30       1.0  T
   3   -134.0095255  0.213567E-04  0.205E-02    3.30       1.0  T
   4   -134.0095528 -0.272655E-04  0.294E-03    3.30       3.7  T
   5   -134.0095531 -0.253406E-06  0.136E-03    3.30       7.9  T
   6   -134.0095531 -0.196561E-07  0.702E-04    3.30      15.4  T
   7   -134.0095531 -0.137973E-07  0.234E-04    3.30      46.0  T
     SCC iter.                  ...        0 min,  0.187 sec
     gradient                   ...        0 min,  0.126 sec
 * total energy  :  -132.0763887 Eh     change       -0.1778183E-03 Eh
   gradient norm :     0.0132073 Eh/α   predicted    -0.2750008E-03 (  54.65%)
   displ. norm   :     0.0965425 α      lambda       -0.3058297E-03
   maximum displ.:     0.0364774 α      in ANC's #7, #12, #6, ...

........................................................................
.............................. CYCLE   29 ..............................
........................................................................
   1   -134.0133422 -0.134013E+03  0.220E-02    3.31       0.0  T
   2   -134.0133428 -0.659657E-06  0.130E-02    3.31       1.0  T
   3   -134.0133424  0.394515E-06  0.310E-03    3.31       3.5  T
   4   -134.0133430 -0.546479E-06  0.755E-04    3.31      14.3  T
   5   -134.0133430 -0.175365E-07  0.365E-04    3.31      29.5  T
     SCC iter.                  ...        0 min,  0.136 sec
     gradient                   ...        0 min,  0.133 sec
 * total energy  :  -132.0766250 Eh     change       -0.2362860E-03 Eh
   gradient norm :     0.0078884 Eh/α   predicted    -0.1543438E-03 ( -34.68%)
   displ. norm   :     0.4613218 α      lambda       -0.5164111E-03
   maximum displ.:     0.2285317 α      in ANC's #7, #6, #1, ...

........................................................................
.............................. CYCLE   30 ..............................
........................................................................
   1   -134.0169353 -0.134017E+03  0.767E-02    3.31       0.0  T
   2   -134.0169446 -0.923812E-05  0.451E-02    3.32       1.0  T
   3   -134.0169325  0.120302E-04  0.158E-02    3.32       1.0  T
   4   -134.0169476 -0.150711E-04  0.209E-03    3.32       5.1  T
   5   -134.0169477 -0.133710E-06  0.951E-04    3.32      11.3  T
   6   -134.0169478 -0.155342E-07  0.502E-04    3.32      21.5  T
     SCC iter.                  ...        0 min,  0.158 sec
     gradient                   ...        0 min,  0.119 sec
 * total energy  :  -132.0770325 Eh     change       -0.4075015E-03 Eh
   gradient norm :     0.0048853 Eh/α   predicted    -0.3131582E-03 ( -23.15%)
   displ. norm   :     0.6363707 α      lambda       -0.4946872E-03
   maximum displ.:     0.3143396 α      in ANC's #7, #6, #1, ...

........................................................................
.............................. CYCLE   31 ..............................
........................................................................
   1   -134.0163538 -0.134016E+03  0.102E-01    3.31       0.0  T
   2   -134.0163679 -0.140630E-04  0.599E-02    3.32       1.0  T
   3   -134.0163467  0.212348E-04  0.198E-02    3.32       1.0  T
   4   -134.0163729 -0.262869E-04  0.271E-03    3.32       4.0  T
   5   -134.0163731 -0.198844E-06  0.131E-03    3.32       8.2  T
   6   -134.0163732 -0.246501E-07  0.685E-04    3.32      15.7  T
   7   -134.0163732 -0.130100E-07  0.218E-04    3.32      49.4  T
     SCC iter.                  ...        0 min,  0.183 sec
     gradient                   ...        0 min,  0.153 sec
 * total energy  :  -132.0774317 Eh     change       -0.3991873E-03 Eh
   gradient norm :     0.0070806 Eh/α   predicted    -0.3475096E-03 ( -12.95%)
   displ. norm   :     0.5675234 α      lambda       -0.4624504E-03
   maximum displ.:     0.2932113 α      in ANC's #7, #6, #1, ...

........................................................................
.............................. CYCLE   32 ..............................
........................................................................
   1   -134.0167406 -0.134017E+03  0.886E-02    3.30       0.0  T
   2   -134.0167505 -0.996022E-05  0.523E-02    3.30       1.0  T
   3   -134.0167361  0.144126E-04  0.155E-02    3.31       1.0  T
   4   -134.0167537 -0.176051E-04  0.233E-03    3.31       4.6  T
   5   -134.0167539 -0.193873E-06  0.106E-03    3.31      10.1  T
   6   -134.0167539 -0.148112E-07  0.541E-04    3.31      19.9  T
   7   -134.0167539 -0.746869E-08  0.189E-04    3.31      57.1  T
     SCC iter.                  ...        0 min,  0.188 sec
     gradient                   ...        0 min,  0.131 sec
 * total energy  :  -132.0777719 Eh     change       -0.3401405E-03 Eh
   gradient norm :     0.0069768 Eh/α   predicted    -0.3057059E-03 ( -10.12%)
   displ. norm   :     0.4671158 α      lambda       -0.2885558E-03
   maximum displ.:     0.2472348 α      in ANC's #7, #6, #1, ...

........................................................................
.............................. CYCLE   33 ..............................
........................................................................
   1   -134.0167437 -0.134017E+03  0.683E-02    3.29       0.0  T
   2   -134.0167487 -0.499192E-05  0.403E-02    3.29       1.0  T
   3   -134.0167405  0.817086E-05  0.110E-02    3.29       1.0  T
   4   -134.0167504 -0.989170E-05  0.167E-03    3.29       6.5  T
   5   -134.0167505 -0.958244E-07  0.782E-04    3.29      13.8  T
   6   -134.0167505 -0.784794E-08  0.389E-04    3.29      27.7  T
     SCC iter.                  ...        0 min,  0.164 sec
     gradient                   ...        0 min,  0.118 sec
 * total energy  :  -132.0779989 Eh     change       -0.2270387E-03 Eh
   gradient norm :     0.0057407 Eh/α   predicted    -0.1757612E-03 ( -22.59%)
   displ. norm   :     0.4248417 α      lambda       -0.2710574E-03
   maximum displ.:     0.2249450 α      in ANC's #7, #6, #1, ...

........................................................................
.............................. CYCLE   34 ..............................
........................................................................
   1   -134.0199477 -0.134020E+03  0.567E-02    3.28       0.0  T
   2   -134.0199512 -0.349104E-05  0.335E-02    3.28       1.0  T
   3   -134.0199457  0.548405E-05  0.854E-03    3.28       1.3  T
   4   -134.0199523 -0.662957E-05  0.151E-03    3.28       7.1  T
   5   -134.0199524 -0.916288E-07  0.723E-04    3.28      14.9  T
   6   -134.0199524 -0.684275E-08  0.371E-04    3.28      29.0  T
     SCC iter.                  ...        0 min,  0.164 sec
     gradient                   ...        0 min,  0.137 sec
 * total energy  :  -132.0781734 Eh     change       -0.1745244E-03 Eh
   gradient norm :     0.0044809 Eh/α   predicted    -0.1599903E-03 (  -8.33%)
   displ. norm   :     0.6829686 α      lambda       -0.3090152E-03
   maximum displ.:     0.3533900 α      in ANC's #7, #6, #1, ...

........................................................................
.............................. CYCLE   35 ..............................
........................................................................
   1   -134.0153881 -0.134015E+03  0.988E-02    3.27       0.0  T
   2   -134.0153940 -0.586866E-05  0.585E-02    3.27       1.0  T
   3   -134.0153825  0.115087E-04  0.126E-02    3.27       1.0  T
   4   -134.0153967 -0.142021E-04  0.228E-03    3.27       4.7  T
   5   -134.0153967 -0.665285E-07  0.119E-03    3.27       9.0  T
   6   -134.0153968 -0.172279E-07  0.551E-04    3.27      19.6  T
   7   -134.0153968 -0.124119E-07  0.180E-04    3.27      59.8  T
     SCC iter.                  ...        0 min,  0.192 sec
     gradient                   ...        0 min,  0.125 sec
 * total energy  :  -132.0782489 Eh     change       -0.7543406E-04 Eh
   gradient norm :     0.0086664 Eh/α   predicted    -0.2265772E-03 ( 200.36%)
   displ. norm   :     0.0911391 α      lambda       -0.2329991E-03
   maximum displ.:     0.0450968 α      in ANC's #17, #15, #14, ...

........................................................................
.............................. CYCLE   36 ..............................
........................................................................
   1   -134.0191549 -0.134019E+03  0.200E-02    3.28       0.0  T
   2   -134.0191554 -0.458546E-06  0.119E-02    3.28       1.0  T
   3   -134.0191551  0.298829E-06  0.246E-03    3.28       4.4  T
   4   -134.0191556 -0.490964E-06  0.832E-04    3.28      13.0  T
   5   -134.0191556 -0.135304E-07  0.482E-04    3.28      22.4  T
     SCC iter.                  ...        0 min,  0.133 sec
     gradient                   ...        0 min,  0.132 sec
 * total energy  :  -132.0783994 Eh     change       -0.1505541E-03 Eh
   gradient norm :     0.0029760 Eh/α   predicted    -0.1174707E-03 ( -21.97%)
   displ. norm   :     0.3170282 α      lambda       -0.1372588E-03
   maximum displ.:     0.1748310 α      in ANC's #6, #7, #1, ...

........................................................................
.............................. CYCLE   37 ..............................
........................................................................
   1   -134.0206874 -0.134021E+03  0.359E-02    3.28       0.0  T
   2   -134.0206881 -0.669123E-06  0.212E-02    3.28       1.0  T
   3   -134.0206870  0.108889E-05  0.394E-03    3.28       2.7  T
   4   -134.0206883 -0.132642E-05  0.806E-04    3.28      13.4  T
   5   -134.0206884 -0.204933E-07  0.418E-04    3.28      25.8  T
   6   -134.0206884 -0.172903E-08  0.191E-04    3.28      56.6  T
     SCC iter.                  ...        0 min,  0.165 sec
     gradient                   ...        0 min,  0.139 sec
 * total energy  :  -132.0785098 Eh     change       -0.1103375E-03 Eh
   gradient norm :     0.0031957 Eh/α   predicted    -0.7552828E-04 ( -31.55%)
   displ. norm   :     0.5116139 α      lambda       -0.1748279E-03
   maximum displ.:     0.2875619 α      in ANC's #6, #1, #7, ...

........................................................................
.............................. CYCLE   38 ..............................
........................................................................
   1   -134.0212243 -0.134021E+03  0.573E-02    3.29       0.0  T
   2   -134.0212256 -0.127893E-05  0.339E-02    3.29       1.0  T
   3   -134.0212234  0.217402E-05  0.551E-03    3.29       2.0  T
   4   -134.0212261 -0.267810E-05  0.116E-03    3.29       9.3  T
   5   -134.0212261 -0.344088E-07  0.625E-04    3.29      17.2  T
   6   -134.0212261 -0.536525E-08  0.258E-04    3.29      41.8  T
     SCC iter.                  ...        0 min,  0.163 sec
     gradient                   ...        0 min,  0.118 sec
 * total energy  :  -132.0786565 Eh     change       -0.1467676E-03 Eh
   gradient norm :     0.0034914 Eh/α   predicted    -0.1102969E-03 ( -24.85%)
   displ. norm   :     0.5845276 α      lambda       -0.1825355E-03
   maximum displ.:     0.3390374 α      in ANC's #6, #1, #7, ...

........................................................................
.............................. CYCLE   39 ..............................
........................................................................
   1   -134.0205956 -0.134021E+03  0.652E-02    3.30       0.0  T
   2   -134.0205970 -0.133234E-05  0.386E-02    3.30       1.0  T
   3   -134.0205950  0.202044E-05  0.528E-03    3.30       2.0  T
   4   -134.0205976 -0.262503E-05  0.129E-03    3.30       8.3  T
   5   -134.0205976 -0.246275E-07  0.710E-04    3.30      15.2  T
   6   -134.0205976 -0.105414E-07  0.248E-04    3.30      43.5  T
     SCC iter.                  ...        0 min,  0.162 sec
     gradient                   ...        0 min,  0.129 sec
 * total energy  :  -132.0788102 Eh     change       -0.1537013E-03 Eh
   gradient norm :     0.0035546 Eh/α   predicted    -0.1224519E-03 ( -20.33%)
   displ. norm   :     0.4786671 α      lambda       -0.1630036E-03
   maximum displ.:     0.2814994 α      in ANC's #6, #1, #7, ...

........................................................................
.............................. CYCLE   40 ..............................
........................................................................
   1   -134.0207676 -0.134021E+03  0.538E-02    3.31       0.0  T
   2   -134.0207688 -0.118344E-05  0.318E-02    3.31       1.0  T
   3   -134.0207667  0.211401E-05  0.497E-03    3.31       2.2  T
   4   -134.0207693 -0.262536E-05  0.973E-04    3.31      11.1  T
   5   -134.0207693 -0.194212E-07  0.550E-04    3.31      19.6  T
   6   -134.0207694 -0.408892E-08  0.189E-04    3.31      57.0  T
     SCC iter.                  ...        0 min,  0.158 sec
     gradient                   ...        0 min,  0.126 sec
 * total energy  :  -132.0789508 Eh     change       -0.1405758E-03 Eh
   gradient norm :     0.0034916 Eh/α   predicted    -0.1001757E-03 ( -28.74%)
   displ. norm   :     0.5057750 α      lambda       -0.1854386E-03
   maximum displ.:     0.3065157 α      in ANC's #6, #1, #7, ...

........................................................................
.............................. CYCLE   41 ..............................
........................................................................
   1   -134.0211931 -0.134021E+03  0.603E-02    3.33       0.0  T
   2   -134.0211946 -0.155983E-05  0.356E-02    3.32       1.0  T
   3   -134.0211911  0.350039E-05  0.628E-03    3.33       1.7  T
   4   -134.0211954 -0.427373E-05  0.107E-03    3.32      10.0  T
   5   -134.0211954 -0.192146E-07  0.598E-04    3.32      18.0  T
   6   -134.0211954 -0.490672E-08  0.212E-04    3.32      50.9  T
     SCC iter.                  ...        0 min,  0.160 sec
     gradient                   ...        0 min,  0.133 sec
 * total energy  :  -132.0791092 Eh     change       -0.1584336E-03 Eh
   gradient norm :     0.0040651 Eh/α   predicted    -0.1164395E-03 ( -26.51%)
   displ. norm   :     0.5228753 α      lambda       -0.1888970E-03
   maximum displ.:     0.3218967 α      in ANC's #6, #1, #7, ...

........................................................................
.............................. CYCLE   42 ..............................
........................................................................
   1   -134.0208580 -0.134021E+03  0.638E-02    3.34       0.0  T
   2   -134.0208597 -0.163597E-05  0.376E-02    3.33       1.0  T
   3   -134.0208548  0.480801E-05  0.727E-03    3.34       1.5  T
   4   -134.0208606 -0.576350E-05  0.102E-03    3.34      10.6  T
   5   -134.0208606 -0.114858E-07  0.582E-04    3.33      18.5  T
   6   -134.0208606 -0.539066E-08  0.191E-04    3.33      56.4  T
     SCC iter.                  ...        0 min,  0.158 sec
     gradient                   ...        0 min,  0.130 sec
 * total energy  :  -132.0792693 Eh     change       -0.1600210E-03 Eh
   gradient norm :     0.0038421 Eh/α   predicted    -0.1202748E-03 ( -24.84%)
   displ. norm   :     0.5325946 α      lambda       -0.1807055E-03
   maximum displ.:     0.3400638 α      in ANC's #6, #1, #7, ...
 * RMSD in coord.:     0.8579046 α      energy gain  -0.4336027E-02 Eh

generating ANC from model Hessian ...
Using Lindh-Hessian (1995)
 Shifting diagonal of input Hessian by    9.9396114826513678E-003
 Lowest  eigenvalues of input Hessian
    0.000000    0.000000    0.000000    0.000000    0.000000    0.000000
    0.010000    0.010112    0.010181    0.010219    0.010273    0.010303
    0.010387    0.010524    0.010668    0.010807    0.011210    0.011414
 Highest eigenvalues
    2.055753    2.093240    2.104534    2.339391    2.348072    2.388600


........................................................................
.............................. CYCLE   43 ..............................
........................................................................
   1   -134.0208327 -0.134021E+03  0.641E-02    3.35       0.0  T
   2   -134.0208343 -0.162001E-05  0.378E-02    3.34       1.0  T
   3   -134.0208293  0.496821E-05  0.730E-03    3.34       1.5  T
   4   -134.0208353 -0.594230E-05  0.104E-03    3.34      10.4  T
   5   -134.0208353 -0.931203E-08  0.576E-04    3.34      18.7  T
   6   -134.0208353 -0.631701E-08  0.220E-04    3.34      49.0  T
     SCC iter.                  ...        0 min,  0.161 sec
     gradient                   ...        0 min,  0.120 sec
 * total energy  :  -132.0794216 Eh     change       -0.1523162E-03 Eh
   gradient norm :     0.0039859 Eh/α   predicted     0.0000000E+00 (-100.00%)
   displ. norm   :     0.0619404 α      lambda       -0.7980180E-04
   maximum displ.:     0.0293234 α      in ANC's #21, #23, #1, ...

........................................................................
.............................. CYCLE   44 ..............................
........................................................................
   1   -134.0214208 -0.134021E+03  0.142E-02    3.34       0.0  T
   2   -134.0214210 -0.143598E-06  0.852E-03    3.34       1.3  T
   3   -134.0214208  0.195856E-06  0.160E-03    3.34       6.8  T
   4   -134.0214210 -0.236212E-06  0.374E-04    3.34      28.8  T
   5   -134.0214210 -0.665821E-08  0.183E-04    3.34      58.9  T
     SCC iter.                  ...        0 min,  0.131 sec
     gradient                   ...        0 min,  0.146 sec
 * total energy  :  -132.0794880 Eh     change       -0.6643283E-04 Eh
   gradient norm :     0.0018223 Eh/α   predicted    -0.4006691E-04 ( -39.69%)
   displ. norm   :     0.2906531 α      lambda       -0.1571532E-03
   maximum displ.:     0.1355844 α      in ANC's #21, #1, #23, ...

........................................................................
.............................. CYCLE   45 ..............................
........................................................................
   1   -134.0214345 -0.134021E+03  0.566E-02    3.34       0.0  T
   2   -134.0214364 -0.190206E-05  0.338E-02    3.34       1.0  T
   3   -134.0214330  0.337257E-05  0.653E-03    3.34       1.7  T
   4   -134.0214371 -0.408786E-05  0.147E-03    3.34       7.3  T
   5   -134.0214372 -0.708102E-07  0.741E-04    3.34      14.5  T
   6   -134.0214372 -0.245109E-08  0.318E-04    3.34      33.9  T
     SCC iter.                  ...        0 min,  0.159 sec
     gradient                   ...        0 min,  0.137 sec
 * total energy  :  -132.0795916 Eh     change       -0.1036198E-03 Eh
   gradient norm :     0.0057170 Eh/α   predicted    -0.8154629E-04 ( -21.30%)
   displ. norm   :     0.0465662 α      lambda       -0.5005465E-04
   maximum displ.:     0.0243669 α      in ANC's #1, #5, #10, ...

........................................................................
.............................. CYCLE   46 ..............................
........................................................................
   1   -134.0215378 -0.134022E+03  0.747E-03    3.34       0.0  T
   2   -134.0215380 -0.133285E-06  0.442E-03    3.34       2.4  T
   3   -134.0215379  0.995535E-07  0.143E-03    3.34       7.6  T
   4   -134.0215380 -0.128468E-06  0.277E-04    3.34      38.9  T
   5   -134.0215380 -0.366825E-08  0.114E-04    3.34      94.8  T
     SCC iter.                  ...        0 min,  0.130 sec
     gradient                   ...        0 min,  0.125 sec
 * total energy  :  -132.0796349 Eh     change       -0.4328955E-04 Eh
   gradient norm :     0.0038429 Eh/α   predicted    -0.2508888E-04 ( -42.04%)
   displ. norm   :     0.1985135 α      lambda       -0.1220810E-03
   maximum displ.:     0.1006212 α      in ANC's #1, #5, #10, ...

........................................................................
.............................. CYCLE   47 ..............................
........................................................................
   1   -134.0211639 -0.134021E+03  0.276E-02    3.33       0.0  T
   2   -134.0211655 -0.161448E-05  0.163E-02    3.33       1.0  T
   3   -134.0211639  0.160984E-05  0.556E-03    3.33       1.9  T
   4   -134.0211660 -0.205238E-05  0.931E-04    3.33      11.6  T
   5   -134.0211660 -0.384081E-07  0.405E-04    3.33      26.6  T
   6   -134.0211660 -0.270899E-08  0.214E-04    3.33      50.5  T
     SCC iter.                  ...        0 min,  0.160 sec
     gradient                   ...        0 min,  0.138 sec
 * total energy  :  -132.0797148 Eh     change       -0.7984290E-04 Eh
   gradient norm :     0.0016653 Eh/α   predicted    -0.6354220E-04 ( -20.42%)
   displ. norm   :     0.2475539 α      lambda       -0.4446510E-04
   maximum displ.:     0.1297216 α      in ANC's #1, #5, #10, ...

........................................................................
.............................. CYCLE   48 ..............................
........................................................................
   1   -134.0206277 -0.134021E+03  0.321E-02    3.33       0.0  T
   2   -134.0206291 -0.139959E-05  0.190E-02    3.33       1.0  T
   3   -134.0206270  0.217650E-05  0.580E-03    3.33       1.9  T
   4   -134.0206296 -0.266407E-05  0.898E-04    3.33      12.0  T
   5   -134.0206297 -0.298658E-07  0.436E-04    3.33      24.7  T
   6   -134.0206297 -0.212148E-08  0.221E-04    3.33      48.8  T
     SCC iter.                  ...        0 min,  0.160 sec
     gradient                   ...        0 min,  0.124 sec
 * total energy  :  -132.0797626 Eh     change       -0.4786533E-04 Eh
   gradient norm :     0.0030201 Eh/α   predicted    -0.2284324E-04 ( -52.28%)
   displ. norm   :     0.1458026 α      lambda       -0.4237011E-04
   maximum displ.:     0.0818504 α      in ANC's #1, #5, #10, ...

........................................................................
.............................. CYCLE   49 ..............................
........................................................................
   1   -134.0211281 -0.134021E+03  0.175E-02    3.33       0.0  T
   2   -134.0211283 -0.164606E-06  0.103E-02    3.33       1.0  T
   3   -134.0211279  0.396669E-06  0.208E-03    3.33       5.2  T
   4   -134.0211284 -0.473463E-06  0.353E-04    3.33      30.5  T
   5   -134.0211284 -0.322424E-08  0.189E-04    3.33      57.0  T
     SCC iter.                  ...        0 min,  0.134 sec
     gradient                   ...        0 min,  0.136 sec
 * total energy  :  -132.0798002 Eh     change       -0.3754335E-04 Eh
   gradient norm :     0.0022804 Eh/α   predicted    -0.2167729E-04 ( -42.26%)
   displ. norm   :     0.2468006 α      lambda       -0.7031950E-04
   maximum displ.:     0.1409017 α      in ANC's #1, #5, #7, ...

........................................................................
.............................. CYCLE   50 ..............................
........................................................................
   1   -134.0219182 -0.134022E+03  0.276E-02    3.33       0.0  T
   2   -134.0219185 -0.326084E-06  0.162E-02    3.33       1.0  T
   3   -134.0219176  0.852113E-06  0.307E-03    3.33       3.5  T
   4   -134.0219187 -0.102570E-05  0.495E-04    3.33      21.8  T
   5   -134.0219187 -0.385648E-08  0.273E-04    3.33      39.5  T
   6   -134.0219187 -0.892385E-09  0.104E-04    3.33     103.7  T
     SCC iter.                  ...        0 min,  0.164 sec
     gradient                   ...        0 min,  0.115 sec
 * total energy  :  -132.0798578 Eh     change       -0.5761272E-04 Eh
   gradient norm :     0.0014241 Eh/α   predicted    -0.3730162E-04 ( -35.25%)
   displ. norm   :     0.4270406 α      lambda       -0.6531276E-04
   maximum displ.:     0.2486293 α      in ANC's #1, #5, #7, ...

........................................................................
.............................. CYCLE   51 ..............................
........................................................................
   1   -134.0224845 -0.134022E+03  0.447E-02    3.33       0.0  T
   2   -134.0224854 -0.936711E-06  0.263E-02    3.33       1.0  T
   3   -134.0224829  0.257971E-05  0.537E-03    3.33       2.0  T
   4   -134.0224860 -0.308864E-05  0.787E-04    3.33      13.7  T
   5   -134.0224860 -0.900030E-08  0.433E-04    3.33      24.9  T
   6   -134.0224860 -0.260755E-08  0.183E-04    3.33      59.0  T
     SCC iter.                  ...        0 min,  0.160 sec
     gradient                   ...        0 min,  0.133 sec
 * total energy  :  -132.0799319 Eh     change       -0.7414026E-04 Eh
   gradient norm :     0.0025148 Eh/α   predicted    -0.3531103E-04 ( -52.37%)
   displ. norm   :     0.2188459 α      lambda       -0.5043115E-04
   maximum displ.:     0.1309437 α      in ANC's #1, #5, #7, ...

........................................................................
.............................. CYCLE   52 ..............................
........................................................................
   1   -134.0227842 -0.134023E+03  0.215E-02    3.33       0.0  T
   2   -134.0227845 -0.241427E-06  0.127E-02    3.33       1.0  T
   3   -134.0227837  0.748930E-06  0.283E-03    3.33       3.8  T
   4   -134.0227846 -0.890441E-06  0.387E-04    3.33      27.9  T
   5   -134.0227846 -0.170746E-08  0.218E-04    3.33      49.4  T
     SCC iter.                  ...        0 min,  0.134 sec
     gradient                   ...        0 min,  0.157 sec
 * total energy  :  -132.0799792 Eh     change       -0.4729804E-04 Eh
   gradient norm :     0.0024123 Eh/α   predicted    -0.2646675E-04 ( -44.04%)
   displ. norm   :     0.3353191 α      lambda       -0.9551545E-04
   maximum displ.:     0.1995107 α      in ANC's #1, #5, #7, ...

........................................................................
.............................. CYCLE   53 ..............................
........................................................................
   1   -134.0229622 -0.134023E+03  0.326E-02    3.33       0.0  T
   2   -134.0229628 -0.605191E-06  0.193E-02    3.33       1.0  T
   3   -134.0229609  0.188569E-05  0.451E-03    3.33       2.4  T
   4   -134.0229632 -0.223969E-05  0.607E-04    3.33      17.8  T
   5   -134.0229632 -0.426007E-08  0.343E-04    3.33      31.4  T
   6   -134.0229632 -0.268588E-08  0.143E-04    3.33      75.4  T
     SCC iter.                  ...        0 min,  0.167 sec
     gradient                   ...        0 min,  0.121 sec
 * total energy  :  -132.0800661 Eh     change       -0.8690254E-04 Eh
   gradient norm :     0.0017894 Eh/α   predicted    -0.5312910E-04 ( -38.86%)
   displ. norm   :     0.7396422 α      lambda       -0.1350344E-03
   maximum displ.:     0.4412360 α      in ANC's #1, #5, #7, ...

........................................................................
.............................. CYCLE   54 ..............................
........................................................................
   1   -134.0214713 -0.134021E+03  0.710E-02    3.33       0.0  T
   2   -134.0214739 -0.264415E-05  0.421E-02    3.33       1.0  T
   3   -134.0214651  0.882909E-05  0.966E-03    3.33       1.1  T
   4   -134.0214756 -0.104751E-04  0.133E-03    3.33       8.1  T
   5   -134.0214756 -0.153333E-07  0.751E-04    3.33      14.4  T
   6   -134.0214756 -0.133834E-07  0.277E-04    3.33      38.9  T
     SCC iter.                  ...        0 min,  0.160 sec
     gradient                   ...        0 min,  0.141 sec
 * total energy  :  -132.0802236 Eh     change       -0.1574470E-03 Eh
   gradient norm :     0.0023632 Eh/α   predicted    -0.8394103E-04 ( -46.69%)
   displ. norm   :     0.3824249 α      lambda       -0.8046836E-04
   maximum displ.:     0.2347270 α      in ANC's #1, #5, #7, ...

........................................................................
.............................. CYCLE   55 ..............................
........................................................................
   1   -134.0214914 -0.134021E+03  0.349E-02    3.33       0.0  T
   2   -134.0214920 -0.658325E-06  0.207E-02    3.33       1.0  T
   3   -134.0214898  0.218570E-05  0.486E-03    3.34       2.2  T
   4   -134.0214924 -0.259792E-05  0.680E-04    3.34      15.8  T
   5   -134.0214924 -0.469626E-08  0.388E-04    3.34      27.8  T
   6   -134.0214924 -0.307676E-08  0.132E-04    3.34      81.7  T
     SCC iter.                  ...        0 min,  0.158 sec
     gradient                   ...        0 min,  0.128 sec
 * total energy  :  -132.0802944 Eh     change       -0.7080594E-04 Eh
   gradient norm :     0.0023050 Eh/α   predicted    -0.4612327E-04 ( -34.86%)
   displ. norm   :     0.3406332 α      lambda       -0.7795983E-04
   maximum displ.:     0.2134824 α      in ANC's #1, #5, #7, ...

........................................................................
.............................. CYCLE   56 ..............................
........................................................................
   1   -134.0218287 -0.134022E+03  0.294E-02    3.34       0.0  T
   2   -134.0218293 -0.596586E-06  0.175E-02    3.34       1.0  T
   3   -134.0218275  0.176815E-05  0.442E-03    3.34       2.4  T
   4   -134.0218296 -0.210714E-05  0.608E-04    3.34      17.7  T
   5   -134.0218296 -0.721286E-08  0.351E-04    3.34      30.7  T
   6   -134.0218297 -0.170223E-08  0.140E-04    3.34      77.2  T
     SCC iter.                  ...        0 min,  0.159 sec
     gradient                   ...        0 min,  0.122 sec
 * total energy  :  -132.0803646 Eh     change       -0.7025932E-04 Eh
   gradient norm :     0.0018909 Eh/α   predicted    -0.4351251E-04 ( -38.07%)
   displ. norm   :     0.5286236 α      lambda       -0.8682407E-04
   maximum displ.:     0.3375883 α      in ANC's #1, #5, #7, ...

........................................................................
.............................. CYCLE   57 ..............................
........................................................................
   1   -134.0221806 -0.134022E+03  0.445E-02    3.35       0.0  T
   2   -134.0221821 -0.149684E-05  0.264E-02    3.35       1.0  T
   3   -134.0221780  0.411720E-05  0.681E-03    3.35       1.6  T
   4   -134.0221829 -0.492351E-05  0.946E-04    3.35      11.4  T
   5   -134.0221829 -0.208838E-07  0.544E-04    3.35      19.8  T
   6   -134.0221829 -0.383471E-08  0.234E-04    3.35      46.0  T
     SCC iter.                  ...        0 min,  0.159 sec
     gradient                   ...        0 min,  0.126 sec
 * total energy  :  -132.0804752 Eh     change       -0.1105525E-03 Eh
   gradient norm :     0.0013437 Eh/α   predicted    -0.4880612E-04 ( -55.85%)
   displ. norm   :     0.4902642 α      lambda       -0.7453581E-04
   maximum displ.:     0.3189965 α      in ANC's #1, #5, #7, ...

........................................................................
.............................. CYCLE   58 ..............................
........................................................................
   1   -134.0215851 -0.134022E+03  0.421E-02    3.35       0.0  T
   2   -134.0215863 -0.111059E-05  0.249E-02    3.35       1.0  T
   3   -134.0215827  0.356575E-05  0.620E-03    3.35       1.7  T
   4   -134.0215869 -0.424498E-05  0.834E-04    3.35      12.9  T
   5   -134.0215869 -0.110019E-07  0.491E-04    3.35      21.9  T
   6   -134.0215869 -0.370053E-08  0.178E-04    3.35      60.4  T
     SCC iter.                  ...        0 min,  0.160 sec
     gradient                   ...        0 min,  0.133 sec
 * total energy  :  -132.0805736 Eh     change       -0.9839331E-04 Eh
   gradient norm :     0.0017476 Eh/α   predicted    -0.4125141E-04 ( -58.07%)
   displ. norm   :     0.4397623 α      lambda       -0.7212408E-04
   maximum displ.:     0.2948838 α      in ANC's #1, #7, #6, ...

........................................................................
.............................. CYCLE   59 ..............................
........................................................................
   1   -134.0225466 -0.134023E+03  0.400E-02    3.36       0.0  T
   2   -134.0225475 -0.903944E-06  0.236E-02    3.36       1.0  T
   3   -134.0225452  0.230839E-05  0.512E-03    3.36       2.1  T
   4   -134.0225480 -0.277233E-05  0.769E-04    3.36      14.0  T
   5   -134.0225480 -0.110714E-07  0.440E-04    3.36      24.5  T
   6   -134.0225480 -0.239726E-08  0.186E-04    3.36      57.9  T
     SCC iter.                  ...        0 min,  0.161 sec
     gradient                   ...        0 min,  0.167 sec
 * total energy  :  -132.0806658 Eh     change       -0.9222077E-04 Eh
   gradient norm :     0.0016137 Eh/α   predicted    -0.3916681E-04 ( -57.53%)
   displ. norm   :     0.4443577 α      lambda       -0.6948693E-04
   maximum displ.:     0.2989993 α      in ANC's #1, #2, #6, ...

........................................................................
.............................. CYCLE   60 ..............................
........................................................................
   1   -134.0220867 -0.134022E+03  0.423E-02    3.36       0.0  T
   2   -134.0220876 -0.881441E-06  0.250E-02    3.36       1.0  T
   3   -134.0220846  0.291693E-05  0.550E-03    3.36       2.0  T
   4   -134.0220881 -0.345632E-05  0.731E-04    3.36      14.8  T
   5   -134.0220881 -0.744421E-08  0.425E-04    3.36      25.4  T
   6   -134.0220881 -0.243861E-08  0.144E-04    3.36      75.1  T
     SCC iter.                  ...        0 min,  0.158 sec
     gradient                   ...        0 min,  0.131 sec
 * total energy  :  -132.0807538 Eh     change       -0.8804901E-04 Eh
   gradient norm :     0.0016061 Eh/α   predicted    -0.3779771E-04 ( -57.07%)
   displ. norm   :     0.3861492 α      lambda       -0.5974260E-04
   maximum displ.:     0.2680412 α      in ANC's #1, #2, #6, ...

........................................................................
.............................. CYCLE   61 ..............................
........................................................................
   1   -134.0223733 -0.134022E+03  0.373E-02    3.36       0.0  T
   2   -134.0223739 -0.576521E-06  0.220E-02    3.36       1.0  T
   3   -134.0223722  0.169068E-05  0.416E-03    3.36       2.6  T
   4   -134.0223743 -0.201910E-05  0.649E-04    3.36      16.6  T
   5   -134.0223743 -0.611345E-08  0.372E-04    3.36      29.0  T
   6   -134.0223743 -0.173682E-08  0.143E-04    3.36      75.5  T
     SCC iter.                  ...        0 min,  0.163 sec
     gradient                   ...        0 min,  0.144 sec
 * total energy  :  -132.0808327 Eh     change       -0.7889031E-04 Eh
   gradient norm :     0.0011804 Eh/α   predicted    -0.3185301E-04 ( -59.62%)
   displ. norm   :     0.3433007 α      lambda       -0.5399981E-04
   maximum displ.:     0.2435363 α      in ANC's #1, #2, #10, ...

........................................................................
.............................. CYCLE   62 ..............................
........................................................................
   1   -134.0232101 -0.134023E+03  0.318E-02    3.36       0.0  T
   2   -134.0232106 -0.521293E-06  0.188E-02    3.36       1.0  T
   3   -134.0232093  0.135384E-05  0.371E-03    3.36       2.9  T
   4   -134.0232108 -0.159102E-05  0.548E-04    3.36      19.7  T
   5   -134.0232109 -0.948273E-08  0.293E-04    3.36      36.8  T
   6   -134.0232109 -0.992259E-09  0.147E-04    3.36      73.6  T
     SCC iter.                  ...        0 min,  0.160 sec
     gradient                   ...        0 min,  0.150 sec
 * total energy  :  -132.0809043 Eh     change       -0.7153751E-04 Eh
   gradient norm :     0.0014264 Eh/α   predicted    -0.2841541E-04 ( -60.28%)
   displ. norm   :     0.3343248 α      lambda       -0.5275069E-04
   maximum displ.:     0.2386981 α      in ANC's #1, #2, #10, ...

........................................................................
.............................. CYCLE   63 ..............................
........................................................................
   1   -134.0233983 -0.134023E+03  0.298E-02    3.35       0.0  T
   2   -134.0233988 -0.483717E-06  0.176E-02    3.35       1.0  T
   3   -134.0233974  0.138738E-05  0.380E-03    3.35       2.8  T
   4   -134.0233990 -0.164057E-05  0.577E-04    3.35      18.7  T
   5   -134.0233991 -0.747926E-08  0.329E-04    3.35      32.8  T
   6   -134.0233991 -0.149205E-08  0.144E-04    3.35      74.6  T
     SCC iter.                  ...        0 min,  0.154 sec
     gradient                   ...        0 min,  0.133 sec
 * total energy  :  -132.0809725 Eh     change       -0.6827776E-04 Eh
   gradient norm :     0.0015178 Eh/α   predicted    -0.2768901E-04 ( -59.45%)
   displ. norm   :     0.3050152 α      lambda       -0.4609528E-04
   maximum displ.:     0.2205322 α      in ANC's #1, #2, #10, ...

........................................................................
.............................. CYCLE   64 ..............................
........................................................................
   1   -134.0232435 -0.134023E+03  0.243E-02    3.36       0.0  T
   2   -134.0232439 -0.421329E-06  0.144E-02    3.36       1.0  T
   3   -134.0232428  0.114568E-05  0.357E-03    3.36       3.0  T
   4   -134.0232441 -0.134905E-05  0.481E-04    3.36      22.4  T
   5   -134.0232441 -0.636726E-08  0.260E-04    3.36      41.5  T
   6   -134.0232441 -0.104171E-08  0.129E-04    3.36      83.8  T
     SCC iter.                  ...        0 min,  0.161 sec
     gradient                   ...        0 min,  0.139 sec
 * total energy  :  -132.0810327 Eh     change       -0.6019528E-04 Eh
   gradient norm :     0.0012892 Eh/α   predicted    -0.2400181E-04 ( -60.13%)
   displ. norm   :     0.2527569 α      lambda       -0.3682861E-04
   maximum displ.:     0.1858117 α      in ANC's #1, #2, #10, ...

........................................................................
.............................. CYCLE   65 ..............................
........................................................................
   1   -134.0235705 -0.134024E+03  0.174E-02    3.36       0.0  T
   2   -134.0235708 -0.250058E-06  0.103E-02    3.36       1.0  T
   3   -134.0235701  0.739839E-06  0.284E-03    3.36       3.8  T
   4   -134.0235709 -0.872380E-06  0.358E-04    3.36      30.1  T
   5   -134.0235709 -0.352412E-08  0.194E-04    3.36      55.6  T
     SCC iter.                  ...        0 min,  0.133 sec
     gradient                   ...        0 min,  0.075 sec
 * total energy  :  -132.0810824 Eh     change       -0.4969374E-04 Eh
   gradient norm :     0.0009566 Eh/α   predicted    -0.1893936E-04 ( -61.89%)
   displ. norm   :     0.2267194 α      lambda       -0.3410808E-04
   maximum displ.:     0.1662941 α      in ANC's #1, #2, #10, ...

........................................................................
[...]
    15   6 C        2.918    -0.064    29.592     8.920
    16   6 C        2.868     0.145    24.843     8.170
    17   8 O        1.705    -0.268    18.445     5.799
    18   6 C        3.644     0.038    20.274     6.472
    19   7 N        2.767    -0.107    23.342     7.176
    20   6 C        2.760     0.273    22.394     7.750
    21   6 C        2.975    -0.018    28.452     8.749
    22   6 C        2.922    -0.022    28.552     8.763
    23   6 C        2.925    -0.033    28.830     8.805
    24   6 C        2.972     0.012    27.740     8.639
    25   6 C        3.855    -0.014    20.780     6.483
    26   6 C        3.755    -0.104    22.544     6.770
    27   6 C        3.756    -0.103    22.531     6.768
    28   6 C        2.925    -0.038    28.952     8.824
    29   6 C        2.922    -0.034    28.841     8.807
    30   8 O        0.859    -0.425    22.185     6.315
    31   6 C        3.770     0.090    19.119     6.231
    32   6 C        2.687     0.360    20.887     7.479
    33   8 O        1.659    -0.367    20.224     6.071
    34   8 O        0.856    -0.393    21.550     6.224
    35   7 N        2.769    -0.110    23.402     7.185
    36   6 C        2.763     0.272    22.404     7.751
    37   6 C        2.978    -0.023    28.573     8.768
    38   6 C        2.922    -0.025    28.629     8.774
    39   6 C        2.925    -0.037    28.933     8.821
    40   6 C        2.973     0.013    27.713     8.635
    41   6 C        3.855    -0.014    20.790     6.485
    42   6 C        3.756    -0.103    22.529     6.768
    43   6 C        3.756    -0.102    22.504     6.764
    44   6 C        2.925    -0.033    28.828     8.805
    45   6 C        2.920    -0.037    28.920     8.819
    46   8 O        0.859    -0.420    22.080     6.300
    47   1 H        0.924     0.045     2.384     2.415
    48   1 H        0.925     0.064     2.150     2.293
    49   1 H        0.924     0.037     2.490     2.468
    50   1 H        0.926     0.039     2.465     2.455
    51   1 H        0.926     0.039     2.466     2.456
    52   1 H        0.926     0.042     2.426     2.436
    53   1 H        0.926     0.057     2.237     2.339
    54   1 H        0.924     0.080     1.977     2.199
    55   1 H        0.924     0.090     1.879     2.144
    56   1 H        0.926     0.027     2.636     2.539
    57   1 H        0.926     0.036     2.508     2.477
    58   1 H        0.926     0.037     2.486     2.465
    59   1 H        0.926     0.039     2.456     2.451
    60   1 H        0.925     0.061     2.187     2.313
    61   1 H        0.924     0.047     2.363     2.404
    62   1 H        0.924     0.040     2.452     2.449
    63   1 H        0.926     0.044     2.398     2.422
    64   1 H        0.926     0.039     2.468     2.457
    65   1 H        0.924     0.031     2.567     2.506
    66   1 H        0.925     0.038     2.469     2.457
    67   1 H        0.925     0.039     2.468     2.457
    68   1 H        0.925     0.034     2.536     2.491
    69   1 H        0.925     0.036     2.506     2.475
    70   1 H        0.925     0.039     2.457     2.451
    71   1 H        0.925     0.039     2.468     2.457
    72   1 H        0.925     0.031     2.571     2.507
    73   1 H        0.925     0.027     2.630     2.536
    74   1 H        0.923     0.069     2.096     2.264
    75   1 H        0.804     0.340     0.613     1.229
    76   1 H        0.926     0.041     2.431     2.438
    77   1 H        0.926     0.035     2.513     2.479
    78   1 H        0.924     0.033     2.543     2.494
    79   1 H        0.925     0.039     2.462     2.454
    80   1 H        0.925     0.036     2.500     2.473
    81   1 H        0.925     0.038     2.471     2.458
    82   1 H        0.925     0.038     2.470     2.458
    83   1 H        0.925     0.036     2.504     2.475
    84   1 H        0.925     0.034     2.533     2.489
    85   1 H        0.926     0.038     2.478     2.462
    86   1 H        0.926     0.047     2.357     2.401

 Mol. C6AA /au·bohr⁶  :      84087.274454
 Mol. C8AA /au·bohr⁸  :    1995080.997534
 Mol. α(0) /au        :        451.562148


Wiberg/Mayer (AO) data.
largest (>0.10) Wiberg bond orders for each atom

 ---------------------------------------------------------------------------
     #   Z sym  total        # sym  WBO       # sym  WBO       # sym  WBO
 ---------------------------------------------------------------------------
     1   6 C    3.930 --     4 C    1.382     8 C    1.334     2 O    1.044
     2   8 O    2.237 --     1 C    1.044     3 C    0.982
     3   6 C    3.944 --     2 O    0.982    48 H    0.978    47 H    0.976
                            49 H    0.976
     4   6 C    3.987 --     5 C    1.437     1 C    1.382    50 H    0.965
                             7 C    0.104
     5   6 C    3.990 --     6 C    1.441     4 C    1.437    51 H    0.971
                             8 C    0.107
     6   6 C    3.990 --     5 C    1.441     7 C    1.431    52 H    0.970
     7   6 C    3.987 --     6 C    1.431     8 C    1.431    53 H    0.966
                             4 C    0.104
     8   6 C    3.982 --     7 C    1.431     1 C    1.334     9 C    0.989
                             5 C    0.107
     9   6 C    3.961 --     8 C    0.989    10 C    0.959    54 H    0.951
                            35 N    0.950
    10   6 C    3.960 --    11 C    0.990     9 C    0.959    19 N    0.953
                            55 H    0.947
    11   6 C    3.984 --    12 C    1.437    16 C    1.326    10 C    0.990
                            14 C    0.106
    12   6 C    3.991 --    11 C    1.437    13 C    1.428    56 H    0.967
                            15 C    0.102
    13   6 C    3.991 --    14 C    1.441    12 C    1.428    57 H    0.971
    14   6 C    3.990 --    13 C    1.441    15 C    1.438    58 H    0.971
                            11 C    0.106
    15   6 C    3.987 --    14 C    1.438    16 C    1.378    59 H    0.965
                            12 C    0.102
    16   6 C    3.935 --    15 C    1.378    11 C    1.326    17 O    1.064
    17   8 O    2.236 --    16 C    1.064    18 C    0.983
    18   6 C    3.945 --    17 O    0.983    60 H    0.980    61 H    0.977
                            62 H    0.976
    19   7 N    3.469 --    20 C    1.214    31 C    0.984    10 C    0.953
                            30 O    0.191
    20   6 C    3.947 --    30 O    1.685    19 N    1.214    21 C    0.963
    21   6 C    3.987 --    22 C    1.404    29 C    1.397    20 C    0.963
                            24 C    0.107
    22   6 C    3.990 --    23 C    1.451    21 C    1.404    63 H    0.969
                            28 C    0.107
    23   6 C    3.991 --    22 C    1.451    24 C    1.408    64 H    0.966
                            29 C    0.109
    24   6 C    3.987 --    28 C    1.410    23 C    1.408    25 C    0.999
                            21 C    0.107
    25   6 C    3.996 --    24 C    0.999    26 C    0.998    27 C    0.996
                            65 H    0.967
    26   6 C    3.996 --    25 C    0.998    68 H    0.987    67 H    0.986
                            66 H    0.985
    27   6 C    3.995 --    25 C    0.996    69 H    0.987    70 H    0.985
                            71 H    0.985
    28   6 C    3.991 --    29 C    1.447    24 C    1.410    72 H    0.967
                            22 C    0.107
    29   6 C    3.991 --    28 C    1.447    21 C    1.397    73 H    0.966
                            23 C    0.109
    30   8 O    2.012 --    20 C    1.685    19 N    0.191
    31   6 C    3.976 --    35 N    1.001    19 N    0.984    74 H    0.918
                            32 C    0.913
    32   6 C    3.917 --    34 O    1.770    33 O    1.145    31 C    0.913
    33   8 O    2.208 --    32 C    1.145    75 H    0.858    34 O    0.174
    34   8 O    2.053 --    32 C    1.770    33 O    0.174
    35   7 N    3.466 --    36 C    1.196    31 C    1.001     9 C    0.950
                            46 O    0.187
    36   6 C    3.943 --    46 O    1.695    35 N    1.196    37 C    0.969
    37   6 C    3.987 --    38 C    1.404    45 C    1.390    36 C    0.969
                            40 C    0.106
    38   6 C    3.990 --    39 C    1.444    37 C    1.404    76 H    0.969
                            44 C    0.108
    39   6 C    3.991 --    38 C    1.444    40 C    1.415    77 H    0.967
                            45 C    0.108
    40   6 C    3.987 --    39 C    1.415    44 C    1.403    41 C    0.999
                            37 C    0.106
    41   6 C    3.995 --    40 C    0.999    43 C    0.997    42 C    0.997
                            78 H    0.968
    42   6 C    3.995 --    41 C    0.997    80 H    0.987    81 H    0.985
                            79 H    0.985
    43   6 C    3.996 --    41 C    0.997    82 H    0.986    84 H    0.985
                            83 H    0.985
    44   6 C    3.992 --    45 C    1.457    40 C    1.403    85 H    0.966
                            38 C    0.108
    45   6 C    3.990 --    44 C    1.457    37 C    1.390    86 H    0.967
                            39 C    0.108
    46   8 O    2.020 --    36 C    1.695    35 N    0.187
    47   1 H    0.998 --     3 C    0.976
    48   1 H    0.995 --     3 C    0.978
    49   1 H    0.999 --     3 C    0.976
    50   1 H    0.998 --     4 C    0.965
    51   1 H    0.998 --     5 C    0.971
    52   1 H    0.998 --     6 C    0.970
    53   1 H    0.996 --     7 C    0.966
    54   1 H    0.993 --     9 C    0.951
    55   1 H    0.991 --    10 C    0.947
    56   1 H    0.999 --    12 C    0.967
    57   1 H    0.998 --    13 C    0.971
    58   1 H    0.998 --    14 C    0.971
    59   1 H    0.998 --    15 C    0.965
    60   1 H    0.996 --    18 C    0.980
    61   1 H    0.998 --    18 C    0.977
    62   1 H    0.998 --    18 C    0.976
    63   1 H    0.998 --    22 C    0.969
    64   1 H    0.998 --    23 C    0.966
    65   1 H    0.999 --    25 C    0.967
    66   1 H    0.999 --    26 C    0.985
    67   1 H    0.998 --    26 C    0.986
    68   1 H    0.999 --    26 C    0.987
    69   1 H    0.999 --    27 C    0.987
    70   1 H    0.998 --    27 C    0.985
    71   1 H    0.998 --    27 C    0.985
    72   1 H    0.998 --    28 C    0.967
    73   1 H    0.999 --    29 C    0.966
    74   1 H    0.994 --    31 C    0.918
    75   1 H    0.884 --    33 O    0.858
    76   1 H    0.998 --    38 C    0.969
    77   1 H    0.998 --    39 C    0.967
    78   1 H    0.999 --    41 C    0.968
    79   1 H    0.998 --    42 C    0.985
    80   1 H    0.999 --    42 C    0.987
    81   1 H    0.998 --    42 C    0.985
    82   1 H    0.998 --    43 C    0.986
    83   1 H    0.999 --    43 C    0.985
    84   1 H    0.999 --    43 C    0.985
    85   1 H    0.998 --    44 C    0.966
    86   1 H    0.997 --    45 C    0.967
 ---------------------------------------------------------------------------

Topologies differ in total number of bonds
Writing topology from bond orders to xtbtopo.mol

molecular dipole:
                 x           y           z       tot (Debye)
 q only:       -0.324       1.024       1.188
   full:       -0.370       1.264       1.429       4.940
molecular quadrupole (traceless):
                xx          xy          yy          xz          yz          zz
 q only:      -26.856       9.225      23.068       8.151     -11.003       3.789
  q+dip:      -36.018      12.647      22.161      14.604     -14.181      13.857
   full:      -31.390      12.807      21.264      12.553     -13.115      10.126

           -------------------------------------------------
          |                Geometry Summary                 |
           -------------------------------------------------

      molecular mass/u    :      620.7354301
   center of mass at/Å    :        0.0545358      -0.5269735       0.0389302
  moments of inertia/u·Å² :        0.5235189E+04   0.9029356E+04   0.1012919E+05
rotational constants/cm⁻¹ :        0.3220062E-02   0.1866981E-02   0.1664263E-02

 * 83 selected distances

     #   Z          #   Z                                           value/Å
     1   6 C        2   8 O                                       1.3679203
     2   8 O        3   6 C                                       1.4063818
     1   6 C        4   6 C                                       1.3900181
     4   6 C        5   6 C                                       1.3836016
     5   6 C        6   6 C                                       1.3811504
     6   6 C        7   6 C                                       1.3831963
     1   6 C        8   6 C                                       1.4021666
     7   6 C        8   6 C                                       1.3874518
     9   6 C       10   6 C                                       1.5441242 (max)
    11   6 C       12   6 C                                       1.3844958
    12   6 C       13   6 C                                       1.3835277
    13   6 C       14   6 C                                       1.3815443
    14   6 C       15   6 C                                       1.3842262
    11   6 C       16   6 C                                       1.4015324
    15   6 C       16   6 C                                       1.3904791
    16   6 C       17   8 O                                       1.3618031
    17   8 O       18   6 C                                       1.4067942
    10   6 C       19   7 N                                       1.4614810
    19   7 N       20   6 C                                       1.3560682
    21   6 C       22   6 C                                       1.3876234
    22   6 C       23   6 C                                       1.3821202
    23   6 C       24   6 C                                       1.3902838
    25   6 C       26   6 C                                       1.5299530
    25   6 C       27   6 C                                       1.5307188
    24   6 C       28   6 C                                       1.3893378
    21   6 C       29   6 C                                       1.3907863
    28   6 C       29   6 C                                       1.3823989
    20   6 C       30   8 O                                       1.2142236
    19   7 N       31   6 C                                       1.4421286
    32   6 C       33   8 O                                       1.3317136
    32   6 C       34   8 O                                       1.1991603
     9   6 C       35   7 N                                       1.4603658
    31   6 C       35   7 N                                       1.4323197
    35   7 N       36   6 C                                       1.3632693
    37   6 C       38   6 C                                       1.3890608
    38   6 C       39   6 C                                       1.3831081
    39   6 C       40   6 C                                       1.3890426
    41   6 C       42   6 C                                       1.5299255
    41   6 C       43   6 C                                       1.5304531
    40   6 C       44   6 C                                       1.3910192
    37   6 C       45   6 C                                       1.3908134
    44   6 C       45   6 C                                       1.3813294
    36   6 C       46   8 O                                       1.2127125
     3   6 C       47   1 H                                       1.0940941
     3   6 C       48   1 H                                       1.0897022
     3   6 C       49   1 H                                       1.0958020
     4   6 C       50   1 H                                       1.0784252
     5   6 C       51   1 H                                       1.0799004
     6   6 C       52   1 H                                       1.0788878
     7   6 C       53   1 H                                       1.0796584
     9   6 C       54   1 H                                       1.0962622
    10   6 C       55   1 H                                       1.0910366
    12   6 C       56   1 H                                       1.0808730
    13   6 C       57   1 H                                       1.0792049
    14   6 C       58   1 H                                       1.0799684
    15   6 C       59   1 H                                       1.0785202
    18   6 C       60   1 H                                       1.0891458
    18   6 C       61   1 H                                       1.0943235
    18   6 C       62   1 H                                       1.0954279
    22   6 C       63   1 H                                       1.0791434
    23   6 C       64   1 H                                       1.0798294
    25   6 C       65   1 H                                       1.0961058
    26   6 C       66   1 H                                       1.0869435
    26   6 C       67   1 H                                       1.0876779
    26   6 C       68   1 H                                       1.0878443
    27   6 C       69   1 H                                       1.0878030
    27   6 C       70   1 H                                       1.0870927
    27   6 C       71   1 H                                       1.0877573
    28   6 C       72   1 H                                       1.0812950
    29   6 C       73   1 H                                       1.0814269
    31   6 C       74   1 H                                       1.0999473
    33   8 O       75   1 H                                       0.9711813 (min)
    38   6 C       76   1 H                                       1.0803691
    39   6 C       77   1 H                                       1.0809089
    41   6 C       78   1 H                                       1.0958187
    42   6 C       79   1 H                                       1.0870936
    42   6 C       80   1 H                                       1.0876570
    42   6 C       81   1 H                                       1.0877430
    43   6 C       82   1 H                                       1.0878265
    43   6 C       83   1 H                                       1.0873363
    43   6 C       84   1 H                                       1.0879814
    44   6 C       85   1 H                                       1.0795805
    45   6 C       86   1 H                                       1.0796108

 * 5 distinct bonds (by element types)

   Z      Z             #   av. dist./Å        max./Å        min./Å
   1 H    6 C          39     1.0863083     1.0999473     1.0784252
   6 C    6 C          29     1.4126031     1.5441242     1.3811504
   6 C    7 N           6     1.4192721     1.4614810     1.3560682
   1 H    8 O           1     0.9711813     0.9711813     0.9711813
   6 C    8 O           8     1.3125887     1.4067942     1.1991603


optimized geometry written to: xtbopt.xyz


           -------------------------------------------------
          | TOTAL ENERGY             -132.082737294450 Eh   |
          | GRADIENT NORM               0.000658057118 Eh/α |
          | HOMO-LUMO GAP               3.332547395935 eV   |
           -------------------------------------------------

------------------------------------------------------------------------
 * finished run on 2022/03/17 at 02:11:47.096     
------------------------------------------------------------------------
 total:
 * wall-time:     0 d,  0 h,  0 min, 55.186 sec
 *  cpu-time:     0 d,  0 h, 19 min, 13.054 sec
 * ratio c/w:    20.894 speedup
 SCF:
 * wall-time:     0 d,  0 h,  0 min,  0.642 sec
 *  cpu-time:     0 d,  0 h,  0 min, 10.034 sec
 * ratio c/w:    15.630 speedup
 ANC optimizer:
 * wall-time:     0 d,  0 h,  0 min, 54.408 sec
 *  cpu-time:     0 d,  0 h, 18 min, 59.165 sec
 * ratio c/w:    20.938 speedup

