      -----------------------------------------------------------      
     |                   =====================                   |     
     |                           x T B                           |     
     |                   =====================                   |     
     |                         S. Grimme                         |     
     |          Mulliken Center for Theoretical Chemistry        |     
     |                    University of Bonn                     |     
      -----------------------------------------------------------      

   * xtb version 6.3.3 (4ae9cef) compiled by 'conda@95abc7406d43' on 2020-10-14

   xtb is free software: you can redistribute it and/or modify it under
   the terms of the GNU Lesser General Public License as published by
   the Free Software Foundation, either version 3 of the License, or
   (at your option) any later version.
   
   xtb is distributed in the hope that it will be useful,
   but WITHOUT ANY WARRANTY; without even the implied warranty of
   MERCHANTABILITY or FITNESS FOR A PARTICULAR PURPOSE.  See the
   GNU Lesser General Public License for more details.
   
   Cite this work as:
   * C. Bannwarth, E. Caldeweyher, S. Ehlert, A. Hansen, P. Pracht,
     J. Seibert, S. Spicher, S. Grimme, WIREs Comput. Mol. Sci., 2020,
     e01493. DOI: 10.1002/wcms.1493
   
   for GFN2-xTB:
   * S. Grimme, C. Bannwarth, P. Shushkov, J. Chem. Theory Comput., 2017,
     13, 1989-2009. DOI: 10.1021/acs.jctc.7b00118
   for GFN1-xTB:
   * C. Bannwarth, S. Ehlert and S. Grimme., J. Chem. Theory Comput., 2019,
     15, 1652-1671. DOI: 10.1021/acs.jctc.8b01176
   for GFN0-xTB:
   * P. Pracht, E. Caldeweyher, S. Ehlert, S. Grimme, ChemRxiv, 2019, preprint.
     DOI: 10.26434/chemrxiv.8326202.v1
   for GFN-FF:
   * S. Spicher and S. Grimme, Angew. Chem. Int. Ed., 2020, 59, 15665-15673.
     DOI: 10.1002/anie.202004239
   
   for DFT-D4:
   * E. Caldeweyher, C. Bannwarth and S. Grimme, J. Chem. Phys., 2017,
     147, 034112. DOI: 10.1063/1.4993215
   * E. Caldeweyher, S. Ehlert, A. Hansen, H. Neugebauer, S. Spicher,
     C. Bannwarth and S. Grimme, J. Chem. Phys., 2019, 150, 154122.
     DOI: 10.1063/1.5090222
   * E. Caldeweyher, J.-M. Mewes, S. Ehlert and S. Grimme, Phys. Chem. Chem. Phys.
     2020, 22, 8499-8512. DOI: 10.1039/D0CP00502A
   
   for sTDA-xTB:
   * S. Grimme and C. Bannwarth, J. Chem. Phys., 2016, 145, 054103.
     DOI: 10.1063/1.4959605
   
   in the mass-spec context:
   * V. Asgeirsson, C. Bauer and S. Grimme, Chem. Sci., 2017, 8, 4879.
     DOI: 10.1039/c7sc00601b
   * J. Koopman and S. Grimme, ACS Omega 2019, 4, 12, 15120-15133.
     DOI: 10.1021/acsomega.9b02011
   
   for metadynamics refer to:
   * S. Grimme, J. Chem. Theory Comput., 2019, 155, 2847-2862
     DOI: 10.1021/acs.jctc.9b00143
   
   with help from (in alphabetical order)
   C. Bannwarth, F. Bohle, G. Brandenburg, E. Caldeweyher, M. Checinski,
   S. Dohm, S. Ehlert, S. Ehrlich, F. März, H. Neugebauer, J. Pisarek,
   P. Pracht, P. Shushkov, and S. Spicher.
   
 * started run on 2022/03/17 at 02:20:12.314     

           -------------------------------------------------
          |                Calculation Setup                |
           -------------------------------------------------

          program call               : xtb sub_2.xyz --opt --chrg 0 --uhf 0 --gfn 2
          coordinate file            : sub_2.xyz
          omp threads                :                    64
          number of atoms            :                    31
          number of electrons        :                    90
          charge                     :                     0
          spin                       :                   0.0
          first test random number   :      0.46220394384968

   ID    Z sym.   atoms
    1    6 C      1-4, 6, 8-19
    2    7 N      5, 7
    3    1 H      20-31

           -------------------------------------------------
          |                 G F N 2 - x T B                 |
           -------------------------------------------------

        Reference                      10.1021/acs.jctc.8b01176
      * Hamiltonian:
        H0-scaling (s, p, d)           1.850000    2.230000    2.230000
        zeta-weighting                 0.500000
      * Dispersion:
        s8                             2.700000
        a1                             0.520000
        a2                             5.000000
        s9                             5.000000
      * Repulsion:
        kExp                           1.500000    1.000000
        rExp                           1.000000
      * Coulomb:
        alpha                          2.000000
        third order                    shell-resolved
        anisotropic                    true
        a3                             3.000000
        a5                             4.000000
        cn-shift                       1.200000
        cn-exp                         4.000000
        max-rad                        5.000000


          ...................................................
          :                      SETUP                      :
          :.................................................:
          :  # basis functions                  88          :
          :  # atomic orbitals                  88          :
          :  # shells                           50          :
          :  # electrons                        90          :
          :  max. iterations                   250          :
          :  Hamiltonian                  GFN2-xTB          :
          :  restarted?                      false          :
          :  GBSA solvation                  false          :
          :  PC potential                    false          :
          :  electronic temp.          300.0000000     K    :
          :  accuracy                    1.0000000          :
          :  -> integral cutoff          0.2500000E+02      :
          :  -> integral neglect         0.1000000E-07      :
          :  -> SCF convergence          0.1000000E-05 Eh   :
          :  -> wf. convergence          0.1000000E-03 e    :
          :  Broyden damping             0.4000000          :
          ...................................................

 iter      E             dE          RMSdq      gap      omega  full diag
   1    -49.1470283 -0.491470E+02  0.434E+00    2.31       0.0  T
   2    -49.1923705 -0.453423E-01  0.274E+00    2.14       1.0  T
   3    -49.1743361  0.180345E-01  0.126E+00    2.20       1.0  T
   4    -49.1978254 -0.234894E-01  0.433E-01    2.00       1.0  T
   5    -49.2024838 -0.465837E-02  0.133E-01    2.06       1.0  T
   6    -49.2027882 -0.304344E-03  0.671E-02    2.05       1.0  T
   7    -49.2029131 -0.124987E-03  0.219E-02    2.06       1.0  T
   8    -49.2029140 -0.838957E-06  0.141E-02    2.06       1.3  T
   9    -49.2029163 -0.227387E-05  0.319E-03    2.06       5.6  T
  10    -49.2029165 -0.215762E-06  0.118E-03    2.06      15.3  T
  11    -49.2029165 -0.109308E-07  0.532E-04    2.06      33.7  T
  12    -49.2029165 -0.336075E-08  0.211E-04    2.06      85.2  T

   *** convergence criteria satisfied after 12 iterations ***

         #    Occupation            Energy/Eh            Energy/eV
      -------------------------------------------------------------
         1        2.0000           -0.6705174             -18.2457
       ...           ...                  ...                  ...
        39        2.0000           -0.4247544             -11.5582
        40        2.0000           -0.4134943             -11.2518
        41        2.0000           -0.4118823             -11.2079
        42        2.0000           -0.3931451             -10.6980
        43        2.0000           -0.3795410             -10.3278
        44        2.0000           -0.3758483             -10.2274
        45        2.0000           -0.3609914              -9.8231 (HOMO)
        46                         -0.2853323              -7.7643 (LUMO)
        47                         -0.2480011              -6.7485
        48                         -0.2342479              -6.3742
        49                         -0.2160223              -5.8783
        50                         -0.1902745              -5.1776
       ...                                ...                  ...
        88                          0.7074983              19.2520
      -------------------------------------------------------------
                  HL-Gap            0.0756591 Eh            2.0588 eV
             Fermi-level           -0.3231618 Eh           -8.7937 eV

 SCC (total)                   0 d,  0 h,  0 min,  0.228 sec
 SCC setup                      ...        0 min,  0.010 sec (  4.514%)
 Dispersion                     ...        0 min,  0.010 sec (  4.586%)
 classical contributions        ...        0 min,  0.005 sec (  2.216%)
 integral evaluation            ...        0 min,  0.044 sec ( 19.348%)
 iterations                     ...        0 min,  0.042 sec ( 18.340%)
 molecular gradient             ...        0 min,  0.116 sec ( 50.834%)
 printout                       ...        0 min,  0.000 sec (  0.127%)

         :::::::::::::::::::::::::::::::::::::::::::::::::::::
         ::                     SUMMARY                     ::
         :::::::::::::::::::::::::::::::::::::::::::::::::::::
         :: total energy             -48.367434586536 Eh    ::
         :: gradient norm              0.097035218792 Eh/a0 ::
         :: HOMO-LUMO gap              2.058789159920 eV    ::
         ::.................................................::
         :: SCC energy               -49.202916480445 Eh    ::
         :: -> isotropic ES            0.011444597519 Eh    ::
         :: -> anisotropic ES          0.005552164579 Eh    ::
         :: -> anisotropic XC          0.033685620251 Eh    ::
         :: -> dispersion             -0.036494441610 Eh    ::
         :: repulsion energy           0.835487473656 Eh    ::
         :: add. restraining           0.000000000000 Eh    ::
         :: total charge              -0.000000000000 e     ::
         :::::::::::::::::::::::::::::::::::::::::::::::::::::

      ----------------------------------------------------------- 
     |                   =====================                   |
     |                        A N C O P T                        |
     |                   =====================                   |
     |               Approximate Normal Coordinate               |
     |                Rational Function Optimizer                |
      ----------------------------------------------------------- 

          ...................................................
          :                      SETUP                      :
          :.................................................:
          :   optimization level            normal          :
          :   max. optcycles                   200          :
          :   ANC micro-cycles                  20          :
          :   degrees of freedom                87          :
          :.................................................:
          :   RF solver                   davidson          :
          :   write xtbopt.log                true          :
          :   linear?                        false          :
          :   energy convergence         0.5000000E-05 Eh   :
          :   grad. convergence          0.1000000E-02 Eh/α :
          :   maximium RF displ.         1.0000000          :
          :   Hlow (freq-cutoff)         0.1000000E-01      :
          :   Hmax (freq-cutoff)         5.0000000          :
          :   S6 in model hess.         20.0000000          :
          ...................................................

generating ANC from model Hessian ...
Using Lindh-Hessian (1995)
 Shifting diagonal of input Hessian by    9.2810785136263497E-003
 Lowest  eigenvalues of input Hessian
    0.000000    0.000000    0.000000    0.000000    0.000000    0.000000
    0.010000    0.010590    0.010951    0.013657    0.016342    0.016834
    0.018392    0.021511    0.023674    0.025844    0.028860    0.029980
 Highest eigenvalues
    1.940720    1.971233    1.995480    2.066874    2.092590    2.108010


........................................................................
.............................. CYCLE    1 ..............................
........................................................................
   1    -49.2029165 -0.492029E+02  0.857E-05    2.06       0.0  T
   2    -49.2029165 -0.226947E-10  0.549E-05    2.06     327.3  T
   3    -49.2029165 -0.408562E-11  0.369E-05    2.06     486.4  T
     SCC iter.                  ...        0 min,  0.016 sec
     gradient                   ...        0 min,  0.133 sec
 * total energy  :   -48.3674346 Eh     change       -0.5557652E-09 Eh
   gradient norm :     0.0970345 Eh/α   predicted     0.0000000E+00 (-100.00%)
   displ. norm   :     0.2837776 α      lambda       -0.1275489E-01
   maximum displ.:     0.1259797 α      in ANC's #8, #24, #35, ...

........................................................................
.............................. CYCLE    2 ..............................
........................................................................
   1    -49.2482956 -0.492483E+02  0.188E-01    2.23       0.0  T
   2    -49.2483749 -0.793597E-04  0.133E-01    2.23       1.0  T
   3    -49.2484025 -0.275312E-04  0.764E-02    2.24       1.0  T
   4    -49.2484885 -0.860153E-04  0.222E-02    2.24       1.0  T
   5    -49.2485021 -0.136228E-04  0.498E-03    2.24       3.6  T
   6    -49.2485023 -0.200171E-06  0.260E-03    2.24       6.9  T
   7    -49.2485023 -0.427226E-07  0.945E-04    2.24      19.0  T
   8    -49.2485024 -0.125875E-07  0.227E-04    2.24      79.1  T
     SCC iter.                  ...        0 min,  0.025 sec
     gradient                   ...        0 min,  0.139 sec
 * total energy  :   -48.3761793 Eh     change       -0.8744698E-02 Eh
   gradient norm :     0.0383814 Eh/α   predicted    -0.6891026E-02 ( -21.20%)
   displ. norm   :     0.2510771 α      lambda       -0.3293337E-02
   maximum displ.:     0.1460557 α      in ANC's #8, #5, #14, ...

........................................................................
.............................. CYCLE    3 ..............................
........................................................................
   1    -49.2703225 -0.492703E+02  0.115E-01    2.34       0.0  T
   2    -49.2703704 -0.478787E-04  0.883E-02    2.35       1.0  T
   3    -49.2704152 -0.448160E-04  0.466E-02    2.35       1.0  T
   4    -49.2704304 -0.151653E-04  0.157E-02    2.35       1.1  T
   5    -49.2704366 -0.616895E-05  0.322E-03    2.35       5.6  T
   6    -49.2704367 -0.119098E-06  0.158E-03    2.35      11.3  T
   7    -49.2704367 -0.123751E-07  0.669E-04    2.35      26.9  T
   8    -49.2704367 -0.585802E-08  0.147E-04    2.35     122.4  T
     SCC iter.                  ...        0 min,  0.024 sec
     gradient                   ...        0 min,  0.144 sec
 * total energy  :   -48.3779783 Eh     change       -0.1798996E-02 Eh
   gradient norm :     0.0083615 Eh/α   predicted    -0.1750476E-02 (  -2.70%)
   displ. norm   :     0.1312769 α      lambda       -0.3476200E-03
   maximum displ.:     0.0798379 α      in ANC's #5, #8, #1, ...

........................................................................
.............................. CYCLE    4 ..............................
........................................................................
   1    -49.2705984 -0.492706E+02  0.475E-02    2.35       0.0  T
   2    -49.2705999 -0.152978E-05  0.293E-02    2.36       1.0  T
   3    -49.2705922  0.768506E-05  0.150E-02    2.36       1.2  T
   4    -49.2706010 -0.883654E-05  0.243E-03    2.36       7.4  T
   5    -49.2706012 -0.127957E-06  0.760E-04    2.36      23.6  T
   6    -49.2706012 -0.562671E-08  0.400E-04    2.36      44.9  T
     SCC iter.                  ...        0 min,  0.015 sec
     gradient                   ...        0 min,  0.118 sec
 * total energy  :   -48.3782372 Eh     change       -0.2589276E-03 Eh
   gradient norm :     0.0049794 Eh/α   predicted    -0.1768215E-03 ( -31.71%)
   displ. norm   :     0.1721383 α      lambda       -0.2471078E-03
   maximum displ.:     0.1028630 α      in ANC's #5, #1, #8, ...

........................................................................
.............................. CYCLE    5 ..............................
........................................................................
   1    -49.2696794 -0.492697E+02  0.600E-02    2.35       0.0  T
   2    -49.2696801 -0.705765E-06  0.356E-02    2.36       1.0  T
   3    -49.2696764  0.369923E-05  0.102E-02    2.36       1.8  T
   4    -49.2696805 -0.412919E-05  0.168E-03    2.36      10.7  T
   5    -49.2696806 -0.480324E-07  0.740E-04    2.36      24.3  T
   6    -49.2696806 -0.224374E-08  0.380E-04    2.36      47.3  T
     SCC iter.                  ...        0 min,  0.015 sec
     gradient                   ...        0 min,  0.124 sec
 * total energy  :   -48.3783806 Eh     change       -0.1434328E-03 Eh
   gradient norm :     0.0024380 Eh/α   predicted    -0.1272297E-03 ( -11.30%)
   displ. norm   :     0.0704039 α      lambda       -0.3769987E-04
   maximum displ.:     0.0484767 α      in ANC's #1, #5, #4, ...

........................................................................
.............................. CYCLE    6 ..............................
........................................................................
   1    -49.2696879 -0.492697E+02  0.243E-02    2.36       0.0  T
   2    -49.2696880 -0.103837E-06  0.142E-02    2.35       1.3  T
   3    -49.2696877  0.279174E-06  0.320E-03    2.35       5.6  T
   4    -49.2696880 -0.322825E-06  0.528E-04    2.35      34.0  T
   5    -49.2696880 -0.550854E-08  0.267E-04    2.35      67.2  T
     SCC iter.                  ...        0 min,  0.018 sec
     gradient                   ...        0 min,  0.144 sec
 * total energy  :   -48.3784099 Eh     change       -0.2927573E-04 Eh
   gradient norm :     0.0018203 Eh/α   predicted    -0.1895636E-04 ( -35.25%)
   displ. norm   :     0.1175183 α      lambda       -0.3458200E-04
   maximum displ.:     0.0882795 α      in ANC's #1, #2, #4, ...

........................................................................
.............................. CYCLE    7 ..............................
........................................................................
   1    -49.2700648 -0.492701E+02  0.437E-02    2.36       0.0  T
   2    -49.2700652 -0.437626E-06  0.256E-02    2.35       1.0  T
   3    -49.2700644  0.854621E-06  0.544E-03    2.35       3.3  T
   4    -49.2700653 -0.952145E-06  0.120E-03    2.35      14.9  T
   5    -49.2700654 -0.413754E-07  0.443E-04    2.35      40.6  T
   6    -49.2700654 -0.282429E-08  0.202E-04    2.35      88.9  T
     SCC iter.                  ...        0 min,  0.020 sec
     gradient                   ...        0 min,  0.139 sec
 * total energy  :   -48.3784426 Eh     change       -0.3269430E-04 Eh
   gradient norm :     0.0014741 Eh/α   predicted    -0.1740023E-04 ( -46.78%)
   displ. norm   :     0.0604042 α      lambda       -0.1253866E-04
   maximum displ.:     0.0504215 α      in ANC's #1, #2, #3, ...

........................................................................
.............................. CYCLE    8 ..............................
........................................................................
   1    -49.2702588 -0.492703E+02  0.212E-02    2.35       0.0  T
   2    -49.2702589 -0.364771E-07  0.125E-02    2.35       1.4  T
   3    -49.2702586  0.212619E-06  0.256E-03    2.35       7.0  T
   4    -49.2702589 -0.238146E-06  0.327E-04    2.35      55.0  T
   5    -49.2702589 -0.187489E-08  0.164E-04    2.35     109.7  T
     SCC iter.                  ...        0 min,  0.013 sec
     gradient                   ...        0 min,  0.116 sec
 * total energy  :   -48.3784588 Eh     change       -0.1614322E-04 Eh
   gradient norm :     0.0010863 Eh/α   predicted    -0.6286440E-05 ( -61.06%)
   displ. norm   :     0.0719093 α      lambda       -0.1443915E-04
   maximum displ.:     0.0562312 α      in ANC's #1, #2, #3, ...

........................................................................
.............................. CYCLE    9 ..............................
........................................................................
   1    -49.2702671 -0.492703E+02  0.226E-02    2.35       0.0  T
   2    -49.2702672 -0.898123E-07  0.133E-02    2.35       1.3  T
   3    -49.2702666  0.587907E-06  0.435E-03    2.35       4.1  T
   4    -49.2702673 -0.656618E-06  0.549E-04    2.35      32.7  T
   5    -49.2702673 -0.676994E-08  0.244E-04    2.35      73.7  T
     SCC iter.                  ...        0 min,  0.014 sec
     gradient                   ...        0 min,  0.150 sec
 * total energy  :   -48.3784763 Eh     change       -0.1757427E-04 Eh
   gradient norm :     0.0007595 Eh/α   predicted    -0.7237162E-05 ( -58.82%)
   displ. norm   :     0.0789743 α      lambda       -0.1183063E-04
   maximum displ.:     0.0625224 α      in ANC's #1, #2, #3, ...

........................................................................
.............................. CYCLE   10 ..............................
........................................................................
   1    -49.2702212 -0.492702E+02  0.229E-02    2.35       0.0  T
   2    -49.2702213 -0.540113E-07  0.135E-02    2.35       1.3  T
   3    -49.2702210  0.269217E-06  0.298E-03    2.35       6.0  T
   4    -49.2702213 -0.305497E-06  0.434E-04    2.35      41.4  T
   5    -49.2702213 -0.323929E-08  0.233E-04    2.35      77.1  T
     SCC iter.                  ...        0 min,  0.018 sec
     gradient                   ...        0 min,  0.129 sec
 * total energy  :   -48.3784905 Eh     change       -0.1418665E-04 Eh
   gradient norm :     0.0008810 Eh/α   predicted    -0.5934359E-05 ( -58.17%)
   displ. norm   :     0.0641449 α      lambda       -0.7718225E-05
   maximum displ.:     0.0527010 α      in ANC's #1, #2, #3, ...

........................................................................
.............................. CYCLE   11 ..............................
........................................................................
   1    -49.2702340 -0.492702E+02  0.168E-02    2.35       0.0  T
   2    -49.2702340 -0.317668E-07  0.982E-03    2.35       1.8  T
   3    -49.2702339  0.771786E-07  0.173E-03    2.35      10.4  T
   4    -49.2702340 -0.934223E-07  0.275E-04    2.35      65.4  T
   5    -49.2702340 -0.602661E-09  0.161E-04    2.35     111.5  T
     SCC iter.                  ...        0 min,  0.013 sec
     gradient                   ...        0 min,  0.155 sec
 * total energy  :   -48.3785003 Eh     change       -0.9827892E-05 Eh
   gradient norm :     0.0006632 Eh/α   predicted    -0.3867599E-05 ( -60.65%)
   displ. norm   :     0.0634076 α      lambda       -0.2919168E-05
   maximum displ.:     0.0518046 α      in ANC's #1, #2, #3, ...

........................................................................
.............................. CYCLE   12 ..............................
........................................................................
   1    -49.2702051 -0.492702E+02  0.166E-02    2.35       0.0  T
   2    -49.2702051 -0.311902E-07  0.969E-03    2.35       1.9  T
   3    -49.2702051  0.743304E-07  0.170E-03    2.35      10.6  T
   4    -49.2702052 -0.902056E-07  0.271E-04    2.35      66.4  T
   5    -49.2702052 -0.573770E-09  0.158E-04    2.35     113.5  T
     SCC iter.                  ...        0 min,  0.016 sec
     gradient                   ...        0 min,  0.129 sec
 * total energy  :   -48.3785065 Eh     change       -0.6154926E-05 Eh
   gradient norm :     0.0007570 Eh/α   predicted    -0.1463962E-05 ( -76.21%)
   displ. norm   :     0.0344682 α      lambda       -0.3749112E-05
   maximum displ.:     0.0314182 α      in ANC's #1, #2, #3, ...

........................................................................
.............................. CYCLE   13 ..............................
........................................................................
   1    -49.2702134 -0.492702E+02  0.964E-03    2.35       0.0  T
   2    -49.2702135 -0.247731E-07  0.567E-03    2.35       3.2  T
   3    -49.2702134  0.991768E-07  0.192E-03    2.35       9.4  T
   4    -49.2702135 -0.111390E-06  0.289E-04    2.35      62.1  T
   5    -49.2702135 -0.203811E-08  0.121E-04    2.35     148.5  T
     SCC iter.                  ...        0 min,  0.017 sec
     gradient                   ...        0 min,  0.140 sec
 * total energy  :   -48.3785113 Eh     change       -0.4814419E-05 Eh
   gradient norm :     0.0004266 Eh/α   predicted    -0.1878485E-05 ( -60.98%)
   displ. norm   :     0.0350631 α      lambda       -0.1576503E-05
   maximum displ.:     0.0320708 α      in ANC's #1, #2, #3, ...

   *** GEOMETRY OPTIMIZATION CONVERGED AFTER 13 ITERATIONS ***

------------------------------------------------------------------------
 total energy gain   :        -0.0110767 Eh       -6.9508 kcal/mol
 total RMSD          :         0.1826425 a0        0.0967 Å
 total power (kW/mol):        -2.2370724 (step)   -8.8742 (real)
------------------------------------------------------------------------

 ANCopt (total)                0 d,  0 h,  0 min,  3.277 sec
 optimizer setup                ...        0 min,  0.000 sec (  0.003%)
 model hessian                  ...        0 min,  0.009 sec (  0.265%)
 ANC generation                 ...        0 min,  0.006 sec (  0.174%)
 coordinate transformation      ...        0 min,  0.000 sec (  0.006%)
 single point calculation       ...        0 min,  3.048 sec ( 93.018%)
 optimization log               ...        0 min,  0.016 sec (  0.479%)
 hessian update                 ...        0 min,  0.189 sec (  5.758%)
 rational function              ...        0 min,  0.009 sec (  0.275%)

================
 final structure:
================
31
 xtb: 6.3.3 (4ae9cef)
C         1.95025812095757   -0.24149429695862   -0.09836416108286
C         2.91521709081906    0.48031473226942    0.64047407591781
C         2.21230687184495    1.14999463394649    1.68616579120116
C         0.89879283354294    0.84655833879507    1.54117828647102
N         0.71114113802566    0.01839342728644    0.45381824597906
C        -0.49377526549269   -0.54952338197884    0.06239212916473
N        -0.43834924106396   -1.79356190439443   -0.34721985177644
C        -1.56986516629168   -2.43943964226842   -0.64687758201632
C        -2.81112315918865   -1.88569921802730   -0.50370611337993
C        -2.91013093384105   -0.52681161399167   -0.13235431365594
C        -1.71285080230591    0.19668746623384    0.11575844606889
C        -1.79224573690309    1.58646371907840    0.33360649221023
C        -3.00841587352580    2.21154952297797    0.39254570316202
C        -4.19490806666601    1.48117538784433    0.23322475985774
C        -4.14730903234217    0.14299681757787   -0.04036448559683
C         4.25703304819933    0.41922137351983    0.27211876317303
C         4.60458587904429   -0.35201331370461   -0.81517077719456
C         3.64050298344084   -1.05410598090134   -1.54096260638354
C         2.30447158112986   -1.00822439616391   -1.19875257195233
H         2.64400809561188    1.76592036187538    2.45008130829838
H         0.07047949891149    1.11303929285488    2.16954734136360
H        -1.43238002165852   -3.45754942908320   -0.98540721943550
H        -3.70656912444868   -2.45593156846934   -0.69576204847388
H        -0.88561734104466    2.16542295295562    0.42351819645577
H        -3.06003010359959    3.27770970301928    0.55651036536628
H        -5.14475816771206    1.99056388179709    0.30324323689601
H        -5.05331340755953   -0.42194384948812   -0.20519186246214
H         5.00181761589489    0.96637771242612    0.83087606425147
H         5.63998936073510   -0.41826324061620   -1.11627316980173
H         3.95057820645404   -1.64914517796926   -2.38727115184332
H         1.56045911903195   -1.55868231044300   -1.75138229078191

 Bond Distances (Angstroems)
 ---------------------------
C1-C2=1.4135         C1-N5=1.3813         C1-C19=1.3872        C2-C1=1.4135         C2-C3=1.4269         C2-C16=1.3928        
C3-C2=1.4269         C3-C4=1.3559         C3-H20=1.0721        C4-C3=1.3559         C4-N5=1.3796         C4-H21=1.0733        
N5-C1=1.3813         N5-C4=1.3796         N5-C6=1.3884         C6-N5=1.3884         C6-N7=1.3109         C6-C11=1.4303        
N7-C6=1.3109         N7-C8=1.3369         C8-N7=1.3369         C8-C9=1.3667         C8-H22=1.0817        C9-C8=1.3667         
C9-C10=1.4122        C9-H23=1.0788        C10-C9=1.4122        C10-C11=1.4207       C10-C15=1.4099       C11-C6=1.4303        
C11-C10=1.4207       C11-C12=1.4090       C12-C11=1.4090       C12-C13=1.3687       C12-H24=1.0795       C13-C12=1.3687       
C13-C14=1.4024       C13-H25=1.0799       C14-C13=1.4024       C14-C15=1.3667       C14-H26=1.0801       C15-C10=1.4099       
C15-C14=1.3667       C15-H27=1.0804       C16-C2=1.3928        C16-C17=1.3776       C16-H28=1.0800       C17-C16=1.3776       
C17-C18=1.3961       C17-H29=1.0803       C18-C17=1.3961       C18-C19=1.3799       C18-H30=1.0800       C19-C1=1.3872        
C19-C18=1.3799       C19-H31=1.0779       H20-C3=1.0721        H21-C4=1.0733        H22-C8=1.0817        H23-C9=1.0788        
H24-C12=1.0795       H25-C13=1.0799       H26-C14=1.0801       H27-C15=1.0804       H28-C16=1.0800       H29-C17=1.0803       
H30-C18=1.0800       H31-C19=1.0779       
 C  H  Rav=1.0787 sigma=0.0028  Rmin=1.0721  Rmax=1.0817    12
 C  C  Rav=1.3951 sigma=0.0223  Rmin=1.3559  Rmax=1.4303    17
 N  C  Rav=1.3594 sigma=0.0303  Rmin=1.3109  Rmax=1.3884     5

 selected bond angles (degree)
 --------------------
N5-C1-C2=107.90                C19-C1-C2=121.50               C19-C1-N5=130.56               C3-C2-C1=106.64                
C16-C2-C1=119.80               C16-C2-C3=133.55               C4-C3-C2=107.09                H20-C3-C2=126.40               
H20-C3-C4=126.50               N5-C4-C3=110.51                H21-C4-C3=129.01               H21-C4-N5=120.36               
C4-N5-C1=107.82                C6-N5-C1=126.08                C6-N5-C4=125.86                N7-C6-N5=116.08                
C11-C6-N5=121.05               C11-C6-N7=122.87               C8-N7-C6=119.52                C9-C8-N7=123.33                
H22-C8-N7=114.66               H22-C8-C9=121.98               C10-C9-C8=118.76               H23-C9-C8=121.40               
H23-C9-C10=119.82              C11-C10-C9=118.48              C15-C10-C9=122.40              C15-C10-C11=119.09             

 selected dihedral angles (degree)
 ---------------------------------
C3-C2-C1-N5=  1.86            C3-C2-C1-C19=179.86           C16-C2-C1-N5=181.43           C16-C2-C1-C19=359.44          
C4-C3-C2-C1=358.97            C4-C3-C2-C16=179.48           H20-C3-C2-C1=178.21           H20-C3-C2-C16=358.72          
N5-C4-C3-C2=359.81            N5-C4-C3-H20=180.57           H21-C4-C3-C2=175.87           H21-C4-C3-H20=356.63          
C4-N5-C1-C2=358.02            C4-N5-C1-C19=180.25           C6-N5-C1-C2=183.45            C6-N5-C1-C19=  5.69           
C1-N5-C4-C3=  1.37            C1-N5-C4-H21=184.92           C6-N5-C4-C3=175.95            C6-N5-C4-H21=359.50           
N7-C6-N5-C1= 34.22            N7-C6-N5-C4=220.61            C11-C6-N5-C1=214.01           C11-C6-N5-C4= 40.40           
C8-N7-C6-N5=175.12            C8-N7-C6-C11=355.33           C9-C8-N7-C6=357.53            H22-C8-N7-C6=179.44           
C10-C9-C8-N7=  5.71           C10-C9-C8-H22=183.66          H23-C9-C8-N7=183.91           H23-C9-C8-H22=  1.87          
C11-C10-C9-C8=358.15          C11-C10-C9-H23=179.91         C15-C10-C9-C8=176.14          C15-C10-C9-H23=357.91         
           -------------------------------------------------
          |                Final Singlepoint                |
           -------------------------------------------------

          ...................................................
          :                      SETUP                      :
          :.................................................:
          :  # basis functions                  88          :
          :  # atomic orbitals                  88          :
          :  # shells                           50          :
          :  # electrons                        90          :
          :  max. iterations                   250          :
          :  Hamiltonian                  GFN2-xTB          :
          :  restarted?                      false          :
          :  GBSA solvation                  false          :
          :  PC potential                    false          :
          :  electronic temp.          300.0000000     K    :
          :  accuracy                    1.0000000          :
          :  -> integral cutoff          0.2500000E+02      :
          :  -> integral neglect         0.1000000E-07      :
          :  -> SCF convergence          0.1000000E-05 Eh   :
          :  -> wf. convergence          0.1000000E-03 e    :
          :  Broyden damping             0.4000000          :
          ...................................................

 iter      E             dE          RMSdq      gap      omega  full diag
   1    -49.2702135 -0.492702E+02  0.536E-05    2.35       0.0  T
   2    -49.2702135 -0.489564E-11  0.344E-05    2.35     522.0  T
   3    -49.2702135 -0.589750E-11  0.225E-05    2.35     798.4  T

   *** convergence criteria satisfied after 3 iterations ***

         #    Occupation            Energy/Eh            Energy/eV
      -------------------------------------------------------------
         1        2.0000           -0.6770858             -18.4244
       ...           ...                  ...                  ...
        39        2.0000           -0.4228525             -11.5064
        40        2.0000           -0.4168133             -11.3421
        41        2.0000           -0.4126526             -11.2288
        42        2.0000           -0.3967189             -10.7953
        43        2.0000           -0.3790060             -10.3133
        44        2.0000           -0.3732148             -10.1557
        45        2.0000           -0.3635978              -9.8940 (HOMO)
        46                         -0.2771766              -7.5424 (LUMO)
        47                         -0.2478340              -6.7439
        48                         -0.2300528              -6.2601
        49                         -0.2109934              -5.7414
        50                         -0.1889523              -5.1417
       ...                                ...                  ...
        88                          0.7331432              19.9498
      -------------------------------------------------------------
                  HL-Gap            0.0864212 Eh            2.3516 eV
             Fermi-level           -0.3203872 Eh           -8.7182 eV

 SCC (total)                   0 d,  0 h,  0 min,  0.235 sec
 SCC setup                      ...        0 min,  0.011 sec (  4.758%)
 Dispersion                     ...        0 min,  0.028 sec ( 12.011%)
 classical contributions        ...        0 min,  0.012 sec (  5.084%)
 integral evaluation            ...        0 min,  0.029 sec ( 12.170%)
 iterations                     ...        0 min,  0.014 sec (  5.821%)
 molecular gradient             ...        0 min,  0.141 sec ( 60.015%)
 printout                       ...        0 min,  0.000 sec (  0.111%)

         :::::::::::::::::::::::::::::::::::::::::::::::::::::
         ::                     SUMMARY                     ::
         :::::::::::::::::::::::::::::::::::::::::::::::::::::
         :: total energy             -48.378511313104 Eh    ::
         :: gradient norm              0.000426705991 Eh/a0 ::
         :: HOMO-LUMO gap              2.351641239739 eV    ::
         ::.................................................::
         :: SCC energy               -49.270213485141 Eh    ::
         :: -> isotropic ES            0.011540866692 Eh    ::
         :: -> anisotropic ES          0.004943518513 Eh    ::
         :: -> anisotropic XC          0.032139875534 Eh    ::
         :: -> dispersion             -0.037092467988 Eh    ::
         :: repulsion energy           0.891676741476 Eh    ::
         :: add. restraining           0.000000000000 Eh    ::
         :: total charge              -0.000000000000 e     ::
         :::::::::::::::::::::::::::::::::::::::::::::::::::::

           -------------------------------------------------
          |                Property Printout                |
           -------------------------------------------------

    * Orbital Energies and Occupations

         #    Occupation            Energy/Eh            Energy/eV
      -------------------------------------------------------------
         1        2.0000           -0.6770858             -18.4244
       ...           ...                  ...                  ...
        33        2.0000           -0.4562533             -12.4153
        34        2.0000           -0.4552502             -12.3880
        35        2.0000           -0.4466393             -12.1537
        36        2.0000           -0.4395845             -11.9617
        37        2.0000           -0.4320625             -11.7570
        38        2.0000           -0.4267860             -11.6134
        39        2.0000           -0.4228525             -11.5064
        40        2.0000           -0.4168133             -11.3421
        41        2.0000           -0.4126526             -11.2288
        42        2.0000           -0.3967189             -10.7953
        43        2.0000           -0.3790060             -10.3133
        44        2.0000           -0.3732148             -10.1557
        45        2.0000           -0.3635978              -9.8940 (HOMO)
        46                         -0.2771766              -7.5424 (LUMO)
        47                         -0.2478340              -6.7439
        48                         -0.2300528              -6.2601
        49                         -0.2109934              -5.7414
        50                         -0.1889523              -5.1417
        51                         -0.1647502              -4.4831
        52                         -0.1511580              -4.1132
        53                         -0.0756049              -2.0573
        54                         -0.0654275              -1.7804
        55                          0.0217942               0.5930
        56                          0.1106716               3.0115
       ...                                ...                  ...
        88                          0.7331432              19.9498
      -------------------------------------------------------------
                  HL-Gap            0.0864212 Eh            2.3516 eV
             Fermi-level           -0.3203872 Eh           -8.7182 eV

     #   Z          covCN         q      C6AA      α(0)
     1   6 C        3.090     0.044    26.910     8.503
     2   6 C        3.111    -0.008    28.067     8.679
     3   6 C        3.002    -0.068    29.683     8.937
     4   6 C        3.032    -0.005    28.110     8.696
     5   7 N        2.831    -0.018    21.588     6.901
     6   6 C        2.890     0.146    24.827     8.169
     7   7 N        1.847    -0.248    27.324     7.747
     8   6 C        2.897     0.053    26.802     8.488
     9   6 C        2.911    -0.055    29.363     8.886
    10   6 C        2.995     0.023    27.476     8.598
    11   6 C        2.982    -0.013    28.328     8.731
    12   6 C        2.915    -0.032    28.801     8.800
    13   6 C        2.917    -0.029    28.731     8.790
    14   6 C        2.916    -0.024    28.612     8.771
    15   6 C        2.918    -0.035    28.873     8.811
    16   6 C        2.912    -0.037    28.914     8.817
    17   6 C        2.920    -0.038    28.955     8.824
    18   6 C        2.925    -0.035    28.880     8.813
    19   6 C        2.909    -0.042    29.049     8.838
    20   1 H        0.926     0.033     2.539     2.492
    21   1 H        0.926     0.036     2.507     2.476
    22   1 H        0.925     0.039     2.463     2.454
    23   1 H        0.926     0.035     2.515     2.480
    24   1 H        0.926     0.041     2.442     2.444
    25   1 H        0.926     0.035     2.516     2.481
    26   1 H        0.926     0.036     2.506     2.476
    27   1 H        0.926     0.037     2.495     2.470
    28   1 H        0.926     0.029     2.596     2.520
    29   1 H        0.926     0.028     2.620     2.531
    30   1 H        0.926     0.030     2.589     2.516
    31   1 H        0.926     0.044     2.395     2.420

 Mol. C6AA /au·bohr⁶  :      14206.861107
 Mol. C8AA /au·bohr⁸  :     357804.318242
 Mol. α(0) /au        :        192.559177


Wiberg/Mayer (AO) data.
largest (>0.10) Wiberg bond orders for each atom

 ---------------------------------------------------------------------------
     #   Z sym  total        # sym  WBO       # sym  WBO       # sym  WBO
 ---------------------------------------------------------------------------
     1   6 C    3.955 --    19 C    1.357     2 C    1.262     5 N    1.118
     2   6 C    3.981 --    16 C    1.339     1 C    1.262     3 C    1.200
     3   6 C    3.969 --     4 C    1.638     2 C    1.200    20 H    0.972
     4   6 C    3.950 --     3 C    1.638     5 N    1.148    21 H    0.966
     5   7 N    3.624 --     4 C    1.148     1 C    1.118     6 C    1.082
     6   6 C    3.968 --     7 N    1.471    11 C    1.198     5 N    1.082
                             9 C    0.100
     7   7 N    3.066 --     6 C    1.471     8 C    1.330
     8   6 C    3.981 --     9 C    1.537     7 N    1.330    22 H    0.963
     9   6 C    3.976 --     8 C    1.537    10 C    1.272    23 H    0.968
                             6 C    0.100
    10   6 C    3.988 --    15 C    1.280     9 C    1.272    11 C    1.260
    11   6 C    3.987 --    12 C    1.295    10 C    1.260     6 C    1.198
    12   6 C    3.991 --    13 C    1.545    11 C    1.295    24 H    0.964
                            15 C    0.118
    13   6 C    3.988 --    12 C    1.545    14 C    1.327    25 H    0.971
    14   6 C    3.991 --    15 C    1.554    13 C    1.327    26 H    0.971
    15   6 C    3.988 --    14 C    1.554    10 C    1.280    27 H    0.968
                            12 C    0.118
    16   6 C    3.990 --    17 C    1.494     2 C    1.339    28 H    0.970
                            19 C    0.112
    17   6 C    3.988 --    16 C    1.494    18 C    1.382    29 H    0.972
    18   6 C    3.989 --    19 C    1.481    17 C    1.382    30 H    0.972
    19   6 C    3.989 --    18 C    1.481     1 C    1.357    31 H    0.965
                            16 C    0.112
    20   1 H    0.998 --     3 C    0.972
    21   1 H    0.998 --     4 C    0.966
    22   1 H    0.997 --     8 C    0.963
    23   1 H    0.998 --     9 C    0.968
    24   1 H    0.998 --    12 C    0.964
    25   1 H    0.998 --    13 C    0.971
    26   1 H    0.998 --    14 C    0.971
    27   1 H    0.998 --    15 C    0.968
    28   1 H    0.999 --    16 C    0.970
    29   1 H    0.999 --    17 C    0.972
    30   1 H    0.999 --    18 C    0.972
    31   1 H    0.998 --    19 C    0.965
 ---------------------------------------------------------------------------

Topologies differ in total number of bonds
Writing topology from bond orders to xtbtopo.mol

molecular dipole:
                 x           y           z       tot (Debye)
 q only:       -0.619       0.345       0.048
   full:       -1.089       0.502       0.082       3.056
molecular quadrupole (traceless):
                xx          xy          yy          xz          yz          zz
 q only:        2.549       0.032      -0.530      -0.192       2.049      -2.020
  q+dip:        7.531       1.520      -1.258      -0.109       6.373      -6.273
   full:        3.954       1.419      -1.603       0.007       2.980      -2.351

           -------------------------------------------------
          |                Geometry Summary                 |
           -------------------------------------------------

      molecular mass/u    :      244.2912057
   center of mass at/Å    :        0.0209354      -0.0738445       0.0192251
  moments of inertia/u·Å² :        0.5426230E+03   0.1993042E+04   0.2387051E+04
rotational constants/cm⁻¹ :        0.3106693E-01   0.8458243E-02   0.7062117E-02

 * 34 selected distances

     #   Z          #   Z                                           value/Å
     1   6 C        2   6 C                                       1.4135190
     2   6 C        3   6 C                                       1.4268935
     3   6 C        4   6 C                                       1.3558813
     1   6 C        5   7 N                                       1.3812523
     4   6 C        5   7 N                                       1.3796457
     5   7 N        6   6 C                                       1.3883686
     6   6 C        7   7 N                                       1.3109103
     7   7 N        8   6 C                                       1.3368923
     8   6 C        9   6 C                                       1.3666923
     9   6 C       10   6 C                                       1.4121899
     6   6 C       11   6 C                                       1.4303230 (max)
    10   6 C       11   6 C                                       1.4207359
    11   6 C       12   6 C                                       1.4089852
    12   6 C       13   6 C                                       1.3686767
    13   6 C       14   6 C                                       1.4023528
    10   6 C       15   6 C                                       1.4098635
    14   6 C       15   6 C                                       1.3666889
     2   6 C       16   6 C                                       1.3927987
    16   6 C       17   6 C                                       1.3776046
    17   6 C       18   6 C                                       1.3961245
     1   6 C       19   6 C                                       1.3871542
    18   6 C       19   6 C                                       1.3799249
     3   6 C       20   1 H                                       1.0720529 (min)
     4   6 C       21   1 H                                       1.0732953
     8   6 C       22   1 H                                       1.0816894
     9   6 C       23   1 H                                       1.0788299
    12   6 C       24   1 H                                       1.0794688
    13   6 C       25   1 H                                       1.0799287
    14   6 C       26   1 H                                       1.0800900
    15   6 C       27   1 H                                       1.0803564
    16   6 C       28   1 H                                       1.0799508
    17   6 C       29   1 H                                       1.0803296
    18   6 C       30   1 H                                       1.0800261
    19   6 C       31   1 H                                       1.0779416

 * 3 distinct bonds (by element types)

   Z      Z             #   av. dist./Å        max./Å        min./Å
   1 H    6 C          12     1.0786633     1.0816894     1.0720529
   6 C    6 C          17     1.3950829     1.4303230     1.3558813
   6 C    7 N           5     1.3594138     1.3883686     1.3109103


optimized geometry written to: xtbopt.xyz


           -------------------------------------------------
          | TOTAL ENERGY              -48.378511313104 Eh   |
          | GRADIENT NORM               0.000426705991 Eh/α |
          | HOMO-LUMO GAP               2.351641239739 eV   |
           -------------------------------------------------

------------------------------------------------------------------------
 * finished run on 2022/03/17 at 02:20:16.179     
------------------------------------------------------------------------
 total:
 * wall-time:     0 d,  0 h,  0 min,  3.864 sec
 *  cpu-time:     0 d,  0 h,  1 min, 59.999 sec
 * ratio c/w:    31.053 speedup
 SCF:
 * wall-time:     0 d,  0 h,  0 min,  0.229 sec
 *  cpu-time:     0 d,  0 h,  0 min,  6.296 sec
 * ratio c/w:    27.541 speedup
 ANC optimizer:
 * wall-time:     0 d,  0 h,  0 min,  3.513 sec
 *  cpu-time:     0 d,  0 h,  1 min, 49.997 sec
 * ratio c/w:    31.312 speedup

