31
 energy: -48.367434587092 gnorm: 0.097034467601 xtb: 6.3.3 (4ae9cef)
C         2.00079700000000   -0.24102200000000   -0.09838900000000
C         2.95377000000000    0.49164400000000    0.62029800000000
C         2.26800400000000    1.20172800000000    1.63476600000000
C         0.93360400000000    0.89393400000000    1.52570700000000
N         0.74392200000000    0.05019100000000    0.44344700000000
C        -0.51049400000000   -0.51390200000000    0.02549100000000
N        -0.45007000000000   -1.80637300000000   -0.40460900000000
C        -1.60617700000000   -2.43802600000000   -0.66586800000000
C        -2.84452300000000   -1.84566800000000   -0.53514500000000
C        -2.91632200000000   -0.50470600000000   -0.15158600000000
C        -1.72979000000000    0.21949700000000    0.12133800000000
C        -1.88172900000000    1.60896000000000    0.39527600000000
C        -3.13593000000000    2.22017900000000    0.47385100000000
C        -4.28254200000000    1.47139300000000    0.25903600000000
C        -4.17211900000000    0.12064300000000   -0.06134200000000
C         4.31363100000000    0.39926400000000    0.25942200000000
C         4.69264000000000   -0.41210000000000   -0.81337900000000
C         3.73741800000000   -1.12605700000000   -1.52649100000000
C         2.38318500000000   -1.05032000000000   -1.18693800000000
H         2.70952700000000    1.84050300000000    2.38830200000000
H         0.10942700000000    1.17165800000000    2.16769300000000
H        -1.50943000000000   -3.47162500000000   -0.98554600000000
H        -3.73707600000000   -2.42229200000000   -0.75611400000000
H        -1.01322800000000    2.25187500000000    0.51703500000000
H        -3.21004600000000    3.28292400000000    0.69087900000000
H        -5.26130700000000    1.94032900000000    0.31735900000000
H        -5.08367100000000   -0.44187000000000   -0.25582500000000
H         5.06569500000000    0.95454400000000    0.81243300000000
H         5.74115300000000   -0.48364000000000   -1.09040600000000
H         4.04286200000000   -1.75253600000000   -2.36116500000000
H         1.64881900000000   -1.60912900000000   -1.75953100000000
31
 energy: -48.376179284653 gnorm: 0.038381357418 xtb: 6.3.3 (4ae9cef)
C         1.98398954618906   -0.24488651773101   -0.11509414277644
C         2.94766546797017    0.48572190319418    0.61101346805042
C         2.25478421545534    1.18690979690825    1.63395949868432
C         0.93201867975034    0.89135989260722    1.50128977178847
N         0.73465443119717    0.04061266410297    0.42983077217094
C        -0.50543952363621   -0.51144259056946    0.04147601723868
N        -0.44674849049182   -1.77229650182548   -0.37938074598158
C        -1.58427140056642   -2.41354862665699   -0.66729333354725
C        -2.82834409599838   -1.85061396831331   -0.53723638363053
C        -2.92081090607461   -0.50379485835722   -0.15212808096867
C        -1.72675691667236    0.22355105172778    0.12207165266116
C        -1.86386498707983    1.60415785217215    0.39397011798211
C        -3.10433346095194    2.20359971109162    0.46685401954057
C        -4.26718463237950    1.46163111521216    0.25862263121747
C        -4.17398871147779    0.12865522452689   -0.06038642860608
C         4.29909976719902    0.40127250886381    0.26001815821496
C         4.66519578811848   -0.40411598418453   -0.80047145080078
C         3.70504600611912   -1.11594308787528   -1.51649556205179
C         2.35986837985996   -1.04511127068200   -1.19113753200294
H         2.68965441090377    1.82134838648731    2.38580780012751
H         0.11217569447682    1.17384454077215    2.13570242206790
H        -1.46728339097363   -3.44235366409079   -0.98663438584782
H        -3.71641935391030   -2.42982411229856   -0.74740466256941
H        -0.99071934974027    2.22939815959587    0.52184969247455
H        -3.17415104720700    3.26149862148828    0.68215943142816
H        -5.23845108013754    1.93522129552117    0.32234543079692
H        -5.07488405321736   -0.43759900779416   -0.25641886904362
H         5.04651612979800    0.95521597732253    0.81227488472111
H         5.70945591192336   -0.47978153651837   -1.07667694494007
H         4.01427548581929   -1.74221908073531   -2.34345051470991
H         1.62925148573507   -1.61046789396187   -1.74903773168835
31
 energy: -48.377978280952 gnorm: 0.008361510474 xtb: 6.3.3 (4ae9cef)
C         1.96584754240460   -0.24366908607362   -0.11946825658911
C         2.93545394328510    0.48538551041307    0.60981114390870
C         2.23715473925652    1.18428170387986    1.63702196790231
C         0.92204555525930    0.88998352291929    1.49424544478349
N         0.72312068706311    0.04183600886977    0.42375063071418
C        -0.49701376831686   -0.51120621334330    0.04658805256957
N        -0.43770376617108   -1.75229980137935   -0.36707911389935
C        -1.56204093322484   -2.40681088220087   -0.66584690636498
C        -2.80883942067550   -1.86089305401665   -0.53627500690858
C        -2.91650098469334   -0.50890728597788   -0.15044389708686
C        -1.72265845235426    0.22289183415975    0.12133363429086
C        -1.84412847643984    1.60076707268187    0.38980031757224
C        -3.07404330062211    2.19763965436905    0.46160831451130
C        -4.24746748513751    1.45929534517038    0.25837587933659
C        -4.16698110733826    0.13340816552099   -0.05802368005827
C         4.28133269091198    0.40271084213897    0.26250936404994
C         4.63819519579287   -0.39956328556990   -0.79647931034481
C         3.67436087687228   -1.11152008256917   -1.51235293148936
C         2.33410977320541   -1.04315131910518   -1.19001222913079
H         2.67072002295024    1.81362028480618    2.38849119426727
H         0.10220708523975    1.17264166073451    2.12459850670656
H        -1.42562395102875   -3.42733444244185   -1.00001099751923
H        -3.69638627866219   -2.43728470360546   -0.74357042978965
H        -0.96140595371553    2.20901667385797    0.51342832350322
H        -3.14246191090976    3.25461859939933    0.67094333843006
H        -5.21112044759971    1.94212121864635    0.32950062002718
H        -5.06047053103962   -0.44038376811329   -0.25315344896707
H         5.02495223436956    0.95651536126127    0.81611578626323
H         5.67851508375986   -0.48212091024679   -1.07695692412278
H         3.98671667696710   -1.73553990639903   -2.33663050986672
H         1.60011466059148   -1.60604871778630   -1.74181987669913
31
 energy: -48.378237208597 gnorm: 0.004979376718 xtb: 6.3.3 (4ae9cef)
C         1.95843722772348   -0.23860704422644   -0.11504026498609
C         2.92901345099203    0.48885491446303    0.61376351170308
C         2.23081507093872    1.18630599013776    1.64377244882491
C         0.91579015693968    0.89284744939110    1.50041193691692
N         0.71852090739306    0.04610597464025    0.42912724232050
C        -0.49388189871478   -0.51572974197155    0.05120931932103
N        -0.43227014275438   -1.75561297289150   -0.36648367800105
C        -1.55454908194911   -2.41100535079580   -0.67252048730609
C        -2.80097530869502   -1.86702344454142   -0.53813139945236
C        -2.91156429478138   -0.51436111297011   -0.14927878926994
C        -1.72070222949814    0.21831372498835    0.12165691994420
C        -1.83297853031734    1.59839716788499    0.38282153438774
C        -3.06035740602302    2.19916801482490    0.45553151245586
C        -4.23561530120749    1.46019014801343    0.25874005994006
C        -4.16027040498028    0.13284558371694   -0.05524391328622
C         4.27340675956360    0.40477322031680    0.26304185687131
C         4.62564676382690   -0.39846468612436   -0.79832766925327
C         3.65967264563085   -1.10837017389264   -1.51373078591021
C         2.32024814416033   -1.03791567917711   -1.18870313181921
H         2.66621777522283    1.81249775743744    2.39651908343881
H         0.09436755682999    1.17408716864782    2.13003545165167
H        -1.41184516361511   -3.42958167977372   -1.00833058873267
H        -3.69003238946347   -2.44177670792727   -0.74344973225362
H        -0.94386434808235    2.19906079049051    0.49968267987782
H        -3.12818766663033    3.25715418467316    0.66092960518881
H        -5.19592548483399    1.94887039803105    0.33232923770016
H        -5.05360550363245   -0.44236244432964   -0.24877443465320
H         5.01761640676060    0.95729343208123    0.81701501923923
H         5.66416834672481   -0.48443817445905   -1.08330850922806
H         3.97112708929286   -1.73234237919067   -2.33823903471725
H         1.58157685317891   -1.59917432746752   -1.73702600091288
31
 energy: -48.378380641444 gnorm: 0.002437967557 xtb: 6.3.3 (4ae9cef)
C         1.95161050202947   -0.23396501936666   -0.10556562790576
C         2.92274429632283    0.49179541632808    0.62164994349934
C         2.22506336807408    1.18689102020087    1.65484512709367
C         0.90965063064684    0.89116479024445    1.51487612520013
N         0.71392891956834    0.04903733203443    0.43979178442482
C        -0.49072510416216   -0.52140004433177    0.05499383454083
N        -0.42592363777090   -1.76176633944552   -0.36549549270227
C        -1.54805962586522   -2.41725695711922   -0.67558772772257
C        -2.79411711913401   -1.87418860179434   -0.53739276216687
C        -2.90647720566578   -0.52120464889435   -0.14696114179844
C        -1.71866168307918    0.21174126679191    0.12026332847050
C        -1.81961467222061    1.59511713230826    0.37011248682505
C        -3.04448092750566    2.20140682021287    0.44408552190858
C        -4.22108910240453    1.46109725199752    0.25789051355368
C        -4.15272803814572    0.13140889395409   -0.05061089391167
C         4.26558515048378    0.40701637948767    0.26376972821679
C         4.61118226078532   -0.39540436547978   -0.80196064653473
C         3.64236462157438   -1.10213261939944   -1.51649472363859
C         2.30435423607950   -1.03024847426573   -1.18558816278556
H         2.66264302966392    1.81172454147054    2.40782343016519
H         0.08646555681743    1.17050079654042    2.14411498338087
H        -1.39838636251813   -3.43124886978236   -1.02135876252777
H        -3.68474257382457   -2.44671256031681   -0.74397544987521
H        -0.92303494992038    2.18757391255739    0.47339401873254
H        -3.11101347944032    3.26164926145846    0.63981404964753
H        -5.17768034844475    1.95656566863294    0.33454341556231
H        -5.04808845484260   -0.44333675495532   -0.23875519472399
H         5.01213049719760    0.95816849719901    0.81612367815627
H         5.64756639938708   -0.48423722686249   -1.09340091948001
H         3.95079613776615   -1.72376633944901   -2.34403954822227
H         1.55873767854779   -1.58599015995619   -1.73090591538240
31
 energy: -48.378409917170 gnorm: 0.001820326994 xtb: 6.3.3 (4ae9cef)
C         1.95068184107660   -0.23353391857388   -0.10142229288152
C         2.92174894358529    0.49163101017274    0.62554121835560
C         2.22433793320938    1.18430057257187    1.66045141160542
C         0.90858894643831    0.88798657866060    1.52172240051959
N         0.71309045547871    0.04667029318144    0.44577875841959
C        -0.49048936121398   -0.52470883912318    0.05775611044193
N        -0.42507705066797   -1.76507457655802   -0.36306046157019
C        -1.54803827578253   -2.41865201924938   -0.67617822391483
C        -2.79406502459653   -1.87584214535864   -0.53660520885966
C        -2.90600044475479   -0.52320107461090   -0.14575129996065
C        -1.71789240017478    0.20901246565104    0.11918802161458
C        -1.81523072327966    1.59378310113189    0.36289494020360
C        -3.03915309053698    2.20229679766937    0.43607055308934
C        -4.21654262693415    1.46174389522474    0.25615104881189
C        -4.15127267823380    0.13101070413843   -0.04822216739156
C         4.26413193250134    0.40780120335969    0.26420670720256
C         4.60742129005455   -0.39223555690008   -0.80390095478114
C         3.63771125948155   -1.09733667831105   -1.51879557216086
C         2.30053784774411   -1.02640671332275   -1.18490741341990
H         2.66221121685081    1.80870165358752    2.41389651787806
H         0.08509259062773    1.16683532817714    2.15093361514421
H        -1.39762653933921   -3.43229065702590   -1.02197445397781
H        -3.68483268293993   -2.44856896916417   -0.74278549747793
H        -0.91664771419779    2.18362558849665    0.46208027119027
H        -3.10448312771738    3.26349859475487    0.62670414420466
H        -5.17219288488574    1.95898785300829    0.33393728568628
H        -5.04853267160447   -0.44205839173659   -0.23256098927037
H         5.01220037705526    0.95823114142581    0.81529362858234
H         5.64320300522948   -0.48022952602273   -1.09783573319409
H         3.94434250752026   -1.71636553207091   -2.34904603204927
H         1.55277715000630   -1.57961218318399   -1.72956133204016
31
 energy: -48.378442611472 gnorm: 0.001474118204 xtb: 6.3.3 (4ae9cef)
C         1.95097518563199   -0.23482751378772   -0.09584764369989
C         2.92131268966478    0.48950805636721    0.63208620063417
C         2.22375277984202    1.17749735268604    1.66928402588540
C         0.90777695332984    0.88002289618292    1.53139731941598
N         0.71275503506711    0.03952233787542    0.45449307530069
C        -0.49103251358124   -0.53002852963951    0.06092293477813
N        -0.42603258357970   -1.77087726198431   -0.35787523554346
C        -1.55088329440922   -2.42109805045715   -0.67277783104804
C        -2.79669223567719   -1.87775944897544   -0.53268630705131
C        -2.90682386311604   -0.52514602751025   -0.14336829721687
C        -1.71650572484560    0.20552995327913    0.11677425490131
C        -1.80955057696138    1.59201175337292    0.35120216905999
C        -3.03196838958004    2.20397024881322    0.42133872476575
C        -4.21103562665068    1.46384534479733    0.25239529596227
C        -4.15053846828655    0.13113641427681   -0.04353404597536
C         4.26319429159877    0.40875244001314    0.26586717970455
C         4.60421425172818   -0.38493952410070   -0.80692960680109
C         3.63395618754565   -1.08764150458723   -1.52363731326897
C         2.29815362241414   -1.02076130366513   -1.18489950284395
H         2.66070197428371    1.80134761078767    2.42408029892313
H         0.08385728020730    1.15837570759854    2.16024300283672
H        -1.40157510648934   -3.43390417658706   -1.02162815208374
H        -3.68689067769023   -2.45137922488586   -0.73905287839011
H        -0.90882109512372    2.17884548903686    0.44494985131963
H        -3.09450623595287    3.26702043860820    0.60129934887592
H        -5.16584462943814    1.96264049180234    0.33198838204888
H        -5.05154705962050   -0.43877809649439   -0.21872998870822
H         5.01361302289439    0.95755544523807    0.81547563694570
H         5.63953393729529   -0.46934143937096   -1.10384951571129
H         3.93805293641598   -1.70064480572803   -2.35936397539396
H         1.54839793308321   -1.57045507296219   -1.72961840762198
31
 energy: -48.378458754695 gnorm: 0.001086331663 xtb: 6.3.3 (4ae9cef)
C         1.95105365225567   -0.23649294194802   -0.09520317904664
C         2.92076006868899    0.48754545513057    0.63434456179372
C         2.22258707315474    1.17299431386795    1.67263809269846
C         0.90704073703693    0.87462393221723    1.53374059648845
N         0.71276074079642    0.03523996456400    0.45610385490668
C        -0.49153741655438   -0.53292728459222    0.06226986360011
N        -0.42788035419044   -1.77410114893470   -0.35543443456011
C        -1.55327731528973   -2.42311470226120   -0.66997834766322
C        -2.79865566982765   -1.87865525705698   -0.52920044498738
C        -2.90745247070508   -0.52544546143205   -0.14132346456709
C        -1.71566651068342    0.20442341684909    0.11690979897846
C        -1.80721025446748    1.59153918734229    0.34752284755621
C        -3.02868884821126    2.20544960759110    0.41465961860963
C        -4.20894073215186    1.46649851342880    0.24941784094187
C        -4.15021334581206    0.13248282582938   -0.04151329565353
C         4.26243341128582    0.40963562059800    0.26712528047609
C         4.60395878011427   -0.37967825839735   -0.80867636855893
C         3.63437290837007   -1.08202513293772   -1.52684984762436
C         2.29887137592043   -1.01914008523893   -1.18628148051362
H         2.65830580372567    1.79587856401203    2.42883681583602
H         0.08280089628688    1.15173232141640    2.16266289027275
H        -1.40617471029063   -3.43681585971817   -1.01713084884868
H        -3.68889745656867   -2.45251684828159   -0.73419229175530
H        -0.90568193366377    2.17745673178762    0.44053449831319
H        -3.08948098115547    3.26926703454921    0.59005229567804
H        -5.16334917390477    1.96613624608333    0.32803496342639
H        -5.05221914608609   -0.43665550885120   -0.21327262887507
H         5.01276492184186    0.95737950697072    0.81787890054985
H         5.63926069058416   -0.46072991169299   -1.10661556435023
H         3.93871246030858   -1.69126435469614   -2.36512871793006
H         1.54964279919213   -1.56872048619859   -1.73193280519171
31
 energy: -48.378476328962 gnorm: 0.000759523947 xtb: 6.3.3 (4ae9cef)
C         1.95105903264085   -0.23853638968228   -0.09615720441381
C         2.91972825669280    0.48510158079282    0.63586931740955
C         2.22032752456964    1.16738267390283    1.67552952414576
C         0.90529345477839    0.86806662398128    1.53442374852803
N         0.71270535961033    0.03087287424036    0.45512879339317
C        -0.49210961291368   -0.53622497228835    0.06216500582540
N        -0.43070354235358   -1.77815518322113   -0.35367187329851
C        -1.55700020653493   -2.42676917814781   -0.66422003267972
C        -2.80154369620746   -1.87995194385264   -0.52302566195737
C        -2.90814334806185   -0.52543203990484   -0.13872206942144
C        -1.71482480496615    0.20332001458824    0.11726189786986
C        -1.80451209225797    1.59089916572690    0.34502498825774
C        -3.02490958638141    2.20721717958281    0.40912216786637
C        -4.20656692919919    1.47025059931759    0.24574495475511
C        -4.14964135780903    0.13494871208380   -0.04019778139703
C         4.26135660157605    0.41128322751001    0.26866207110815
C         4.60470025680192   -0.37314261820907   -0.81034649826338
C         3.63660975265852   -1.07555329330343   -1.53046113424188
C         2.30096443876719   -1.01755663813213   -1.18911808135498
H         2.65449697119628    1.78885841977097    2.43359857311782
H         0.08010905603946    1.14331190735257    2.16305098504099
H        -1.41293365285333   -3.44116043878449   -1.01123576702227
H        -3.69265233175340   -2.45309513959752   -0.72594148350471
H        -0.90217866268752    2.17589577399375    0.43836317646105
H        -3.08355343809776    3.27181668762433    0.58045622150259
H        -5.16030786155779    1.97142800372829    0.32184047880114
H        -5.05226595558570   -0.43405919142260   -0.20898977964833
H         5.01038231631899    0.95822058111593    0.82197320319221
H         5.64009244474967   -0.44987517913112   -1.10904365054381
H         3.94255224901089   -1.68095219435311   -2.37083684221376
H         1.55346936380964   -1.56840962528211   -1.73624824731398
31
 energy: -48.378490515610 gnorm: 0.000881021693 xtb: 6.3.3 (4ae9cef)
C         1.95090621872992   -0.24014768916153   -0.09731218688228
C         2.91836510452663    0.48291771059198    0.63728193487746
C         2.21756437442425    1.16156047308589    1.67852357574220
C         0.90313520641331    0.86087291353815    1.53564837553071
N         0.71238238676598    0.02666578539219    0.45382968075160
C        -0.49273501175648   -0.54037121259043    0.06219364603416
N        -0.43356214171322   -1.78282235280213   -0.35231323337487
C        -1.56128018905485   -2.43046191660496   -0.65980891605246
C        -2.80484651079763   -1.88144731483836   -0.51683391725001
C        -2.90889690586548   -0.52572630063865   -0.13596918321749
C        -1.71416306980021    0.20150541974930    0.11741993964452
C        -1.80097524694218    1.58980281545768    0.34186546927956
C        -3.02005244160266    2.20896390422151    0.40344323328866
C        -4.20332772792295    1.47414996462527    0.24163887492833
C        -4.14900538090560    0.13762748629739   -0.03927876735384
C         4.26007606017366    0.41352734475682    0.27021754479972
C         4.60529344388527   -0.36597930793755   -0.81193573977090
C         3.63883118830681   -1.06862452425747   -1.53393433062174
C         2.30293660283904   -1.01536228639433   -1.19231863449900
H         2.65053525892159    1.78122623703979    2.43864898056636
H         0.07690670944898    1.13337081373625    2.16412918467969
H        -1.42022923857350   -3.44671942265152   -1.00219942507506
H        -3.69749856232910   -2.45377606584596   -0.71546159848963
H        -0.89754389286593    2.17338737026177    0.43468746806974
H        -3.07632960936066    3.27408144807744    0.57230635467237
H        -5.15600037115651    1.97768228451984    0.31537316259520
H        -5.05237745139996   -0.43070831691048   -0.20648976682117
H         5.00738077317135    0.96034103954071    0.82596477760096
H         5.64075457558592   -0.43859597429704   -1.11137710154623
H         3.94658766003047   -1.67020814900282   -2.37640042088276
H         1.55716818882357   -1.56673217695893   -1.74153998122384
31
 energy: -48.378500343502 gnorm: 0.000663221538 xtb: 6.3.3 (4ae9cef)
C         1.95062851972586   -0.24082234853023   -0.09791413272871
C         2.91705399139804    0.48177387230256    0.63848985245445
C         2.21528585668548    1.15685581497769    1.68147954918256
C         0.90125344852452    0.85523513309816    1.53743211485706
N         0.71186440157206    0.02343080871197    0.45339118251760
C        -0.49312910391007   -0.54393674885190    0.06196870217881
N        -0.43555556553551   -1.78697824490362   -0.35066295468011
C        -1.56476234617542   -2.43414657366722   -0.65441546337230
C        -2.80737494282393   -1.88323089123007   -0.51122489823410
C        -2.90939565277358   -0.52616354439911   -0.13432606508074
C        -1.71364127244177    0.19967531710044    0.11677763708219
C        -1.79751201483605    1.58855944084057    0.33862889774271
C        -3.01542478390017    2.21003765107545    0.39926019715048
C        -4.20003336167541    1.47697473854532    0.23861169493867
C        -4.14835441501634    0.13978519283796   -0.03931825540308
C         4.25882682924213    0.41582184141852    0.27110090647494
C         4.60515878391801   -0.36039423236325   -0.81306734372722
C         3.63974972035013   -1.06286320104946   -1.53668001814222
C         2.30374269191735   -1.01269736121709   -1.19498041676636
H         2.64766164179077    1.77495062217208    2.44321794627720
H         0.07413311206718    1.12540144941359    2.16574009661743
H        -1.42519810097984   -3.45083688263450   -0.99635956170614
H        -3.70119376803537   -2.45459320302796   -0.70729566514068
H        -0.89282667690265    2.17040124923861    0.43023195801168
H        -3.06979222430972    3.27567537766897    0.56578568256941
H        -5.15156364831527    1.98292957649278    0.31053696223178
H        -5.05267376282616   -0.42742724059995   -0.20538777851425
H         5.00496673291702    0.96270116312528    0.82832504086054
H         5.64061439413993   -0.43033812097349   -1.11312938238625
H         3.94862865417578   -1.66185462640261   -2.38059040684729
H         1.55886286203282   -1.56392602916969   -1.74562707841810
31
 energy: -48.378506498428 gnorm: 0.000757010592 xtb: 6.3.3 (4ae9cef)
C         1.95035840621581   -0.24148056161190   -0.09854134537786
C         2.91574847027570    0.48064911520953    0.63967241786441
C         2.21300404139686    1.15221223875918    1.68437445341427
C         0.89936702585919    0.84966824374879    1.53914409084607
N         0.71134777902768    0.02024415571229    0.45289723289635
C        -0.49352061933075   -0.54745802817910    0.06168765405170
N        -0.43753419759185   -1.79108285592670   -0.34908837642718
C        -1.56822312372125   -2.43779067344962   -0.64910033305017
C        -2.80988920794407   -1.88499627611854   -0.50566386174498
C        -2.90989571210541   -0.52659345551526   -0.13269655005690
C        -1.71312765736190    0.19786877447740    0.11611014171420
C        -1.79407934043212    1.58732944625401    0.33540748817467
C        -3.01083869397224    2.21109553463842    0.39514718042103
C        -4.19677091931099    1.47976528360466    0.23566758461830
C        -4.14771551368426    0.14192097765252   -0.03931896178649
C         4.25759035086911    0.41809457384758    0.27199594936178
C         4.60504729542903   -0.35487900280222   -0.81414707142405
C         3.64069420553098   -1.05717595038578   -1.53937322575687
C         2.30456720669304   -1.01006216801922   -1.19762949594119
H         2.64478009271886    1.76875154648993    2.44771546901620
H         0.07134902695846    1.11752853039452    2.16726052208392
H        -1.43013370606409   -3.45490560143369   -0.99062057609414
H        -3.70486898936185   -2.45540201500262   -0.69917548772411
H        -0.88815094086651    2.16744357935599    0.42578828172463
H        -3.06331332995166    3.27724450198910    0.55937288850937
H        -5.14716761336324    1.98811844012852    0.30583198079336
H        -5.05297607936679   -0.42418288699492   -0.20423281958820
H         5.00256390541057    0.96503922225662    0.83069940899029
H         5.64050383028655   -0.42218836154653   -1.11479563409184
H         3.95070433288697   -1.65361730333304   -2.38469313724173
H         1.56057967486998   -1.56115902420015   -1.74969686817487
31
 energy: -48.378511312847 gnorm: 0.000426614743 xtb: 6.3.3 (4ae9cef)
C         1.95025812095757   -0.24149429695862   -0.09836416108286
C         2.91521709081906    0.48031473226942    0.64047407591781
C         2.21230687184495    1.14999463394649    1.68616579120116
C         0.89879283354294    0.84655833879507    1.54117828647102
N         0.71114113802566    0.01839342728644    0.45381824597906
C        -0.49377526549269   -0.54952338197884    0.06239212916473
N        -0.43834924106396   -1.79356190439443   -0.34721985177644
C        -1.56986516629168   -2.43943964226842   -0.64687758201632
C        -2.81112315918865   -1.88569921802730   -0.50370611337993
C        -2.91013093384105   -0.52681161399167   -0.13235431365594
C        -1.71285080230591    0.19668746623384    0.11575844606889
C        -1.79224573690309    1.58646371907840    0.33360649221023
C        -3.00841587352580    2.21154952297797    0.39254570316202
C        -4.19490806666601    1.48117538784433    0.23322475985774
C        -4.14730903234217    0.14299681757787   -0.04036448559683
C         4.25703304819933    0.41922137351983    0.27211876317303
C         4.60458587904429   -0.35201331370461   -0.81517077719456
C         3.64050298344084   -1.05410598090134   -1.54096260638354
C         2.30447158112986   -1.00822439616391   -1.19875257195233
H         2.64400809561188    1.76592036187538    2.45008130829838
H         0.07047949891149    1.11303929285488    2.16954734136360
H        -1.43238002165852   -3.45754942908320   -0.98540721943550
H        -3.70656912444868   -2.45593156846934   -0.69576204847388
H        -0.88561734104466    2.16542295295562    0.42351819645577
H        -3.06003010359959    3.27770970301928    0.55651036536628
H        -5.14475816771206    1.99056388179709    0.30324323689601
H        -5.05331340755953   -0.42194384948812   -0.20519186246214
H         5.00181761589489    0.96637771242612    0.83087606425147
H         5.63998936073510   -0.41826324061620   -1.11627316980173
H         3.95057820645404   -1.64914517796926   -2.38727115184332
H         1.56045911903195   -1.55868231044300   -1.75138229078191
