      -----------------------------------------------------------      
     |                   =====================                   |     
     |                           x T B                           |     
     |                   =====================                   |     
     |                         S. Grimme                         |     
     |          Mulliken Center for Theoretical Chemistry        |     
     |                    University of Bonn                     |     
      -----------------------------------------------------------      

   * xtb version 6.3.3 (4ae9cef) compiled by 'conda@95abc7406d43' on 2020-10-14

   xtb is free software: you can redistribute it and/or modify it under
   the terms of the GNU Lesser General Public License as published by
   the Free Software Foundation, either version 3 of the License, or
   (at your option) any later version.
   
   xtb is distributed in the hope that it will be useful,
   but WITHOUT ANY WARRANTY; without even the implied warranty of
   MERCHANTABILITY or FITNESS FOR A PARTICULAR PURPOSE.  See the
   GNU Lesser General Public License for more details.
   
   Cite this work as:
   * C. Bannwarth, E. Caldeweyher, S. Ehlert, A. Hansen, P. Pracht,
     J. Seibert, S. Spicher, S. Grimme, WIREs Comput. Mol. Sci., 2020,
     e01493. DOI: 10.1002/wcms.1493
   
   for GFN2-xTB:
   * S. Grimme, C. Bannwarth, P. Shushkov, J. Chem. Theory Comput., 2017,
     13, 1989-2009. DOI: 10.1021/acs.jctc.7b00118
   for GFN1-xTB:
   * C. Bannwarth, S. Ehlert and S. Grimme., J. Chem. Theory Comput., 2019,
     15, 1652-1671. DOI: 10.1021/acs.jctc.8b01176
   for GFN0-xTB:
   * P. Pracht, E. Caldeweyher, S. Ehlert, S. Grimme, ChemRxiv, 2019, preprint.
     DOI: 10.26434/chemrxiv.8326202.v1
   for GFN-FF:
   * S. Spicher and S. Grimme, Angew. Chem. Int. Ed., 2020, 59, 15665-15673.
     DOI: 10.1002/anie.202004239
   
   for DFT-D4:
   * E. Caldeweyher, C. Bannwarth and S. Grimme, J. Chem. Phys., 2017,
     147, 034112. DOI: 10.1063/1.4993215
   * E. Caldeweyher, S. Ehlert, A. Hansen, H. Neugebauer, S. Spicher,
     C. Bannwarth and S. Grimme, J. Chem. Phys., 2019, 150, 154122.
     DOI: 10.1063/1.5090222
   * E. Caldeweyher, J.-M. Mewes, S. Ehlert and S. Grimme, Phys. Chem. Chem. Phys.
     2020, 22, 8499-8512. DOI: 10.1039/D0CP00502A
   
   for sTDA-xTB:
   * S. Grimme and C. Bannwarth, J. Chem. Phys., 2016, 145, 054103.
     DOI: 10.1063/1.4959605
   
   in the mass-spec context:
   * V. Asgeirsson, C. Bauer and S. Grimme, Chem. Sci., 2017, 8, 4879.
     DOI: 10.1039/c7sc00601b
   * J. Koopman and S. Grimme, ACS Omega 2019, 4, 12, 15120-15133.
     DOI: 10.1021/acsomega.9b02011
   
   for metadynamics refer to:
   * S. Grimme, J. Chem. Theory Comput., 2019, 155, 2847-2862
     DOI: 10.1021/acs.jctc.9b00143
   
   with help from (in alphabetical order)
   C. Bannwarth, F. Bohle, G. Brandenburg, E. Caldeweyher, M. Checinski,
   S. Dohm, S. Ehlert, S. Ehrlich, F. März, H. Neugebauer, J. Pisarek,
   P. Pracht, P. Shushkov, and S. Spicher.
   
 * started run on 2022/03/16 at 21:44:48.651     

           -------------------------------------------------
          |                Calculation Setup                |
           -------------------------------------------------

          program call               : xtb acid_136.xyz --opt --chrg 0 --uhf 0 --gfn 2
          coordinate file            : acid_136.xyz
          omp threads                :                    64
          number of atoms            :                    72
          number of electrons        :                   226
          charge                     :                     0
          spin                       :                   0.0
          first test random number   :      0.92837539004578

   ID    Z sym.   atoms
    1    6 C      1-22, 24-28, 30, 31, 33, 34, 38-42, 44, 45
    2    7 N      23, 37
    3   53 I      29, 43
    4    8 O      32, 35, 36, 46
    5    1 H      47-72

           -------------------------------------------------
          |                 G F N 2 - x T B                 |
           -------------------------------------------------

        Reference                      10.1021/acs.jctc.8b01176
      * Hamiltonian:
        H0-scaling (s, p, d)           1.850000    2.230000    2.230000
        zeta-weighting                 0.500000
      * Dispersion:
        s8                             2.700000
        a1                             0.520000
        a2                             5.000000
        s9                             5.000000
      * Repulsion:
        kExp                           1.500000    1.000000
        rExp                           1.000000
      * Coulomb:
        alpha                          2.000000
        third order                    shell-resolved
        anisotropic                    true
        a3                             3.000000
        a5                             4.000000
        cn-shift                       1.200000
        cn-exp                         4.000000
        max-rad                        5.000000


          ...................................................
          :                      SETUP                      :
          :.................................................:
          :  # basis functions                 222          :
          :  # atomic orbitals                 220          :
          :  # shells                          120          :
          :  # electrons                       226          :
          :  max. iterations                   250          :
          :  Hamiltonian                  GFN2-xTB          :
          :  restarted?                      false          :
          :  GBSA solvation                  false          :
          :  PC potential                    false          :
          :  electronic temp.          300.0000000     K    :
          :  accuracy                    1.0000000          :
          :  -> integral cutoff          0.2500000E+02      :
          :  -> integral neglect         0.1000000E-07      :
          :  -> SCF convergence          0.1000000E-05 Eh   :
          :  -> wf. convergence          0.1000000E-03 e    :
          :  Broyden damping             0.4000000          :
          ...................................................

 iter      E             dE          RMSdq      gap      omega  full diag
   1   -126.0051569 -0.126005E+03  0.505E+00    2.53       0.0  T
   2   -126.1290680 -0.123911E+00  0.318E+00    1.97       1.0  T
   3   -126.0889827  0.400854E-01  0.140E+00    2.12       1.0  T
   4   -126.1583292 -0.693465E-01  0.455E-01    1.71       1.0  T
   5   -126.1589320 -0.602801E-03  0.360E-01    1.67       1.0  T
   6   -126.1619812 -0.304923E-02  0.153E-01    1.68       1.0  T
   7   -126.1625798 -0.598612E-03  0.104E-01    1.67       1.0  T
   8   -126.1626452 -0.653855E-04  0.700E-02    1.67       1.0  T
   9   -126.1627091 -0.639161E-04  0.291E-02    1.67       1.0  T
  10   -126.1627276 -0.184563E-04  0.114E-02    1.67       1.0  T
  11   -126.1627328 -0.523158E-05  0.472E-03    1.66       2.5  T
  12   -126.1627331 -0.238080E-06  0.279E-03    1.66       4.2  T
  13   -126.1627334 -0.319764E-06  0.120E-03    1.66       9.8  T
  14   -126.1627334 -0.314262E-07  0.429E-04    1.66      27.5  T
  15   -126.1627334 -0.510289E-08  0.221E-04    1.66      53.3  T

   *** convergence criteria satisfied after 15 iterations ***

         #    Occupation            Energy/Eh            Energy/eV
      -------------------------------------------------------------
         1        2.0000           -0.7815200             -21.2662
       ...           ...                  ...                  ...
       107        2.0000           -0.4114702             -11.1967
       108        2.0000           -0.4078495             -11.0981
       109        2.0000           -0.4043838             -11.0038
       110        2.0000           -0.4030460             -10.9674
       111        2.0000           -0.4021244             -10.9424
       112        2.0000           -0.3827712             -10.4157
       113        2.0000           -0.3731922             -10.1551 (HOMO)
       114                         -0.3120408              -8.4911 (LUMO)
       115                         -0.2890795              -7.8663
       116                         -0.2769260              -7.5355
       117                         -0.2766044              -7.5268
       118                         -0.2685044              -7.3064
       ...                                ...                  ...
       220                          0.6789517              18.4752
      -------------------------------------------------------------
                  HL-Gap            0.0611514 Eh            1.6640 eV
             Fermi-level           -0.3426165 Eh           -9.3231 eV

 SCC (total)                   0 d,  0 h,  0 min,  0.695 sec
 SCC setup                      ...        0 min,  0.020 sec (  2.846%)
 Dispersion                     ...        0 min,  0.009 sec (  1.347%)
 classical contributions        ...        0 min,  0.017 sec (  2.436%)
 integral evaluation            ...        0 min,  0.127 sec ( 18.260%)
 iterations                     ...        0 min,  0.376 sec ( 54.154%)
 molecular gradient             ...        0 min,  0.127 sec ( 18.252%)
 printout                       ...        0 min,  0.019 sec (  2.692%)

         :::::::::::::::::::::::::::::::::::::::::::::::::::::
         ::                     SUMMARY                     ::
         :::::::::::::::::::::::::::::::::::::::::::::::::::::
         :: total energy            -124.366409033460 Eh    ::
         :: gradient norm              0.135625175302 Eh/a0 ::
         :: HOMO-LUMO gap              1.664013803959 eV    ::
         ::.................................................::
         :: SCC energy              -126.162733414883 Eh    ::
         :: -> isotropic ES            0.118503664801 Eh    ::
         :: -> anisotropic ES          0.003288184855 Eh    ::
         :: -> anisotropic XC          0.054555382480 Eh    ::
         :: -> dispersion             -0.107370132182 Eh    ::
         :: repulsion energy           1.793184243375 Eh    ::
         :: add. restraining           0.000000000000 Eh    ::
         :: total charge              -0.000000000000 e     ::
         :::::::::::::::::::::::::::::::::::::::::::::::::::::

      ----------------------------------------------------------- 
     |                   =====================                   |
     |                        A N C O P T                        |
     |                   =====================                   |
     |               Approximate Normal Coordinate               |
     |                Rational Function Optimizer                |
      ----------------------------------------------------------- 

          ...................................................
          :                      SETUP                      :
          :.................................................:
          :   optimization level            normal          :
          :   max. optcycles                   216          :
          :   ANC micro-cycles                  20          :
          :   degrees of freedom               210          :
          :.................................................:
          :   RF solver                   davidson          :
          :   write xtbopt.log                true          :
          :   linear?                        false          :
          :   energy convergence         0.5000000E-05 Eh   :
          :   grad. convergence          0.1000000E-02 Eh/α :
          :   maximium RF displ.         1.0000000          :
          :   Hlow (freq-cutoff)         0.1000000E-01      :
          :   Hmax (freq-cutoff)         5.0000000          :
          :   S6 in model hess.         20.0000000          :
          ...................................................

generating ANC from model Hessian ...
Using Lindh-Hessian (1995)
 Shifting diagonal of input Hessian by    9.8512786821795349E-003
 Lowest  eigenvalues of input Hessian
    0.000000    0.000000    0.000000    0.000000    0.000000    0.000000
    0.010000    0.010057    0.010109    0.010158    0.010292    0.010343
    0.010424    0.010718    0.010779    0.011033    0.011202    0.011869
 Highest eigenvalues
    1.987331    2.051556    2.052801    2.215761    2.224921    2.244318


........................................................................
.............................. CYCLE    1 ..............................
........................................................................
   1   -126.1627334 -0.126163E+03  0.948E-05    1.66       0.0  T
   2   -126.1627334 -0.644036E-10  0.681E-05    1.66     173.1  T
   3   -126.1627334 -0.478053E-10  0.515E-05    1.66     229.0  T
     SCC iter.                  ...        0 min,  0.077 sec
     gradient                   ...        0 min,  0.142 sec
 * total energy  :  -124.3664090 Eh     change       -0.4458940E-09 Eh
   gradient norm :     0.1356231 Eh/α   predicted     0.0000000E+00 (-100.00%)
   displ. norm   :     0.3705081 α      lambda       -0.2410281E-01
   maximum displ.:     0.1078809 α      in ANC's #62, #29, #24, ...

........................................................................
.............................. CYCLE    2 ..............................
........................................................................
   1   -126.2473520 -0.126247E+03  0.195E-01    1.78       0.0  T
   2   -126.2475866 -0.234612E-03  0.122E-01    1.77       1.0  T
   3   -126.2475362  0.503737E-04  0.702E-02    1.76       1.0  T
   4   -126.2475856 -0.493925E-04  0.423E-02    1.76       1.0  T
   5   -126.2476667 -0.810556E-04  0.198E-02    1.76       1.0  T
   6   -126.2476710 -0.427753E-05  0.142E-02    1.76       1.0  T
   7   -126.2476717 -0.785212E-06  0.545E-03    1.76       2.2  T
   8   -126.2476727 -0.958077E-06  0.220E-03    1.76       5.4  T
   9   -126.2476728 -0.867055E-07  0.981E-04    1.76      12.0  T
  10   -126.2476728 -0.220137E-07  0.434E-04    1.76      27.1  T
     SCC iter.                  ...        0 min,  0.250 sec
     gradient                   ...        0 min,  0.144 sec
 * total energy  :  -124.3829723 Eh     change       -0.1656330E-01 Eh
   gradient norm :     0.0528070 Eh/α   predicted    -0.1370578E-01 ( -17.25%)
   displ. norm   :     0.4176343 α      lambda       -0.8669488E-02
   maximum displ.:     0.1646141 α      in ANC's #22, #29, #24, ...

........................................................................
.............................. CYCLE    3 ..............................
........................................................................
   1   -126.2981230 -0.126298E+03  0.148E-01    1.83       0.0  T
   2   -126.2981905 -0.674979E-04  0.942E-02    1.83       1.0  T
   3   -126.2980651  0.125375E-03  0.494E-02    1.82       1.0  T
   4   -126.2982300 -0.164860E-03  0.130E-02    1.82       1.0  T
   5   -126.2982377 -0.769607E-05  0.620E-03    1.82       1.9  T
   6   -126.2982380 -0.273087E-06  0.427E-03    1.82       2.8  T
   7   -126.2982381 -0.133750E-06  0.257E-03    1.82       4.6  T
   8   -126.2982382 -0.898830E-07  0.135E-03    1.82       8.8  T
   9   -126.2982382  0.970530E-09  0.823E-04    1.82      14.3  T
  10   -126.2982382 -0.170235E-07  0.284E-04    1.82      41.5  T
     SCC iter.                  ...        0 min,  0.253 sec
     gradient                   ...        0 min,  0.130 sec
 * total energy  :  -124.3885044 Eh     change       -0.5532095E-02 Eh
   gradient norm :     0.0164825 Eh/α   predicted    -0.5090806E-02 (  -7.98%)
   displ. norm   :     0.3947239 α      lambda       -0.2952032E-02
   maximum displ.:     0.1868405 α      in ANC's #22, #29, #24, ...

........................................................................
.............................. CYCLE    4 ..............................
........................................................................
   1   -126.3042561 -0.126304E+03  0.123E-01    1.81       0.0  T
   2   -126.3042987 -0.426097E-04  0.732E-02    1.82       1.0  T
   3   -126.3042262  0.725375E-04  0.344E-02    1.82       1.0  T
   4   -126.3043113 -0.851036E-04  0.111E-02    1.82       1.1  T
   5   -126.3043183 -0.705979E-05  0.464E-03    1.82       2.5  T
   6   -126.3043185 -0.140095E-06  0.290E-03    1.82       4.1  T
   7   -126.3043186 -0.128203E-06  0.166E-03    1.82       7.1  T
   8   -126.3043186 -0.908608E-08  0.995E-04    1.82      11.8  T
   9   -126.3043186 -0.138909E-07  0.333E-04    1.82      35.4  T
     SCC iter.                  ...        0 min,  0.227 sec
     gradient                   ...        0 min,  0.141 sec
 * total energy  :  -124.3907017 Eh     change       -0.2197293E-02 Eh
   gradient norm :     0.0183618 Eh/α   predicted    -0.1706167E-02 ( -22.35%)
   displ. norm   :     0.4454429 α      lambda       -0.2153590E-02
   maximum displ.:     0.2108778 α      in ANC's #22, #11, #29, ...

........................................................................
.............................. CYCLE    5 ..............................
........................................................................
   1   -126.3060969 -0.126306E+03  0.132E-01    1.83       0.0  T
   2   -126.3061464 -0.495419E-04  0.777E-02    1.83       1.0  T
   3   -126.3060768  0.696629E-04  0.339E-02    1.84       1.0  T
   4   -126.3061561 -0.793782E-04  0.108E-02    1.83       1.1  T
   5   -126.3061645 -0.833862E-05  0.349E-03    1.83       3.4  T
   6   -126.3061646 -0.129194E-06  0.184E-03    1.83       6.4  T
   7   -126.3061647 -0.732941E-07  0.838E-04    1.83      14.1  T
   8   -126.3061647 -0.106197E-07  0.566E-04    1.83      20.8  T
     SCC iter.                  ...        0 min,  0.211 sec
     gradient                   ...        0 min,  0.138 sec
 * total energy  :  -124.3922109 Eh     change       -0.1509204E-02 Eh
   gradient norm :     0.0141642 Eh/α   predicted    -0.1290453E-02 ( -14.49%)
   displ. norm   :     0.3667766 α      lambda       -0.1073445E-02
   maximum displ.:     0.1611668 α      in ANC's #11, #22, #5, ...

........................................................................
.............................. CYCLE    6 ..............................
........................................................................
   1   -126.3072658 -0.126307E+03  0.108E-01    1.84       0.0  T
   2   -126.3073074 -0.416356E-04  0.628E-02    1.85       1.0  T
   3   -126.3072664  0.409526E-04  0.277E-02    1.86       1.0  T
   4   -126.3073128 -0.464018E-04  0.950E-03    1.86       1.2  T
   5   -126.3073195 -0.667627E-05  0.295E-03    1.86       4.0  T
   6   -126.3073196 -0.126267E-06  0.159E-03    1.86       7.4  T
   7   -126.3073197 -0.467437E-07  0.752E-04    1.86      15.7  T
   8   -126.3073197 -0.985705E-08  0.512E-04    1.86      23.0  T
     SCC iter.                  ...        0 min,  0.200 sec
     gradient                   ...        0 min,  0.145 sec
 * total energy  :  -124.3930111 Eh     change       -0.8001644E-03 Eh
   gradient norm :     0.0117485 Eh/α   predicted    -0.6089276E-03 ( -23.90%)
   displ. norm   :     0.4220115 α      lambda       -0.9606499E-03
   maximum displ.:     0.1943751 α      in ANC's #11, #5, #2, ...

........................................................................
.............................. CYCLE    7 ..............................
........................................................................
   1   -126.3092648 -0.126309E+03  0.109E-01    1.89       0.0  T
   2   -126.3093075 -0.426524E-04  0.642E-02    1.90       1.0  T
   3   -126.3092594  0.480469E-04  0.304E-02    1.91       1.0  T
   4   -126.3093154 -0.559866E-04  0.899E-03    1.91       1.3  T
   5   -126.3093218 -0.636550E-05  0.246E-03    1.91       4.8  T
   6   -126.3093219 -0.159832E-06  0.136E-03    1.91       8.7  T
   7   -126.3093220 -0.238925E-07  0.671E-04    1.91      17.6  T
   8   -126.3093220 -0.850575E-08  0.401E-04    1.91      29.4  T
     SCC iter.                  ...        0 min,  0.202 sec
     gradient                   ...        0 min,  0.114 sec
 * total energy  :  -124.3937624 Eh     change       -0.7513506E-03 Eh
   gradient norm :     0.0093152 Eh/α   predicted    -0.5659145E-03 ( -24.68%)
   displ. norm   :     0.5318443 α      lambda       -0.1036083E-02
   maximum displ.:     0.2369080 α      in ANC's #5, #11, #2, ...

........................................................................
.............................. CYCLE    8 ..............................
........................................................................
   1   -126.3095114 -0.126310E+03  0.133E-01    1.93       0.0  T
   2   -126.3096209 -0.109499E-03  0.787E-02    1.95       1.0  T
   3   -126.3095682  0.526408E-04  0.380E-02    1.97       1.0  T
   4   -126.3096283 -0.600381E-04  0.145E-02    1.96       1.0  T
   5   -126.3096459 -0.176011E-04  0.304E-03    1.96       3.9  T
   6   -126.3096462 -0.313318E-06  0.157E-03    1.96       7.5  T
   7   -126.3096462 -0.347995E-07  0.757E-04    1.96      15.6  T
   8   -126.3096462 -0.132939E-07  0.421E-04    1.96      28.0  T
     SCC iter.                  ...        0 min,  0.202 sec
     gradient                   ...        0 min,  0.122 sec
 * total energy  :  -124.3945588 Eh     change       -0.7963387E-03 Eh
   gradient norm :     0.0156290 Eh/α   predicted    -0.6645762E-03 ( -16.55%)
   displ. norm   :     0.5776756 α      lambda       -0.1207402E-02
   maximum displ.:     0.2760009 α      in ANC's #5, #2, #11, ...

........................................................................
.............................. CYCLE    9 ..............................
........................................................................
   1   -126.3135091 -0.126314E+03  0.127E-01    2.05       0.0  T
   2   -126.3135365 -0.274920E-04  0.744E-02    2.05       1.0  T
   3   -126.3134612  0.753667E-04  0.347E-02    2.06       1.0  T
   4   -126.3135500 -0.887852E-04  0.672E-03    2.06       1.8  T
   5   -126.3135519 -0.197774E-05  0.330E-03    2.06       3.6  T
   6   -126.3135522 -0.282456E-06  0.157E-03    2.06       7.5  T
   7   -126.3135523 -0.591903E-07  0.822E-04    2.06      14.3  T
   8   -126.3135523 -0.915325E-08  0.468E-04    2.06      25.2  T
     SCC iter.                  ...        0 min,  0.199 sec
     gradient                   ...        0 min,  0.143 sec
 * total energy  :  -124.3953271 Eh     change       -0.7683155E-03 Eh
   gradient norm :     0.0139844 Eh/α   predicted    -0.8051625E-03 (   4.80%)
   displ. norm   :     0.5701752 α      lambda       -0.9977469E-03
   maximum displ.:     0.2825967 α      in ANC's #5, #2, #11, ...

........................................................................
.............................. CYCLE   10 ..............................
........................................................................
   1   -126.3104454 -0.126310E+03  0.151E-01    2.06       0.0  T
   2   -126.3105638 -0.118411E-03  0.875E-02    2.09       1.0  T
   3   -126.3105014  0.624086E-04  0.393E-02    2.10       1.0  T
   4   -126.3105754 -0.740406E-04  0.149E-02    2.09       1.0  T
   5   -126.3105920 -0.165278E-04  0.448E-03    2.10       2.6  T
   6   -126.3105923 -0.306836E-06  0.252E-03    2.10       4.7  T
   7   -126.3105924 -0.151884E-06  0.119E-03    2.10       9.9  T
   8   -126.3105925 -0.213369E-07  0.806E-04    2.10      14.6  T
   9   -126.3105925 -0.305383E-08  0.449E-04    2.10      26.2  T
     SCC iter.                  ...        0 min,  0.228 sec
     gradient                   ...        0 min,  0.166 sec
 * total energy  :  -124.3960106 Eh     change       -0.6834592E-03 Eh
   gradient norm :     0.0162630 Eh/α   predicted    -0.6610810E-03 (  -3.27%)
   displ. norm   :     0.4299530 α      lambda       -0.7575720E-03
   maximum displ.:     0.2346321 α      in ANC's #5, #2, #17, ...

........................................................................
.............................. CYCLE   11 ..............................
........................................................................
   1   -126.3139582 -0.126314E+03  0.114E-01    2.12       0.0  T
   2   -126.3139737 -0.154764E-04  0.644E-02    2.12       1.0  T
   3   -126.3139426  0.310701E-04  0.220E-02    2.13       1.0  T
   4   -126.3139775 -0.348697E-04  0.673E-03    2.12       1.8  T
   5   -126.3139795 -0.205638E-05  0.309E-03    2.12       3.8  T
   6   -126.3139796 -0.730046E-07  0.162E-03    2.12       7.3  T
   7   -126.3139797 -0.821721E-07  0.878E-04    2.12      13.4  T
   8   -126.3139797 -0.336887E-08  0.565E-04    2.12      20.9  T
     SCC iter.                  ...        0 min,  0.198 sec
     gradient                   ...        0 min,  0.143 sec
 * total energy  :  -124.3965801 Eh     change       -0.5695871E-03 Eh
   gradient norm :     0.0171617 Eh/α   predicted    -0.4488105E-03 ( -21.20%)
   displ. norm   :     0.5394051 α      lambda       -0.9855316E-03
   maximum displ.:     0.2977005 α      in ANC's #5, #2, #17, ...

........................................................................
.............................. CYCLE   12 ..............................
........................................................................
   1   -126.3132290 -0.126313E+03  0.150E-01    2.16       0.0  T
   2   -126.3132665 -0.374778E-04  0.848E-02    2.14       1.0  T
   3   -126.3132114  0.550875E-04  0.302E-02    2.15       1.0  T
   4   -126.3132741 -0.627493E-04  0.956E-03    2.14       1.2  T
   5   -126.3132789 -0.475019E-05  0.420E-03    2.14       2.8  T
   6   -126.3132791 -0.197136E-06  0.222E-03    2.14       5.3  T
   7   -126.3132792 -0.130146E-06  0.120E-03    2.14       9.8  T
   8   -126.3132792 -0.116697E-07  0.760E-04    2.14      15.5  T
   9   -126.3132792 -0.199134E-08  0.383E-04    2.14      30.8  T
     SCC iter.                  ...        0 min,  0.228 sec
     gradient                   ...        0 min,  0.150 sec
 * total energy  :  -124.3971939 Eh     change       -0.6137686E-03 Eh
   gradient norm :     0.0122332 Eh/α   predicted    -0.6361414E-03 (   3.65%)
   displ. norm   :     0.5178557 α      lambda       -0.7591894E-03
   maximum displ.:     0.3051500 α      in ANC's #5, #2, #3, ...

........................................................................
.............................. CYCLE   13 ..............................
........................................................................
   1   -126.3119902 -0.126312E+03  0.146E-01    2.17       0.0  T
   2   -126.3120051 -0.148192E-04  0.806E-02    2.18       1.0  T
   3   -126.3119719  0.331397E-04  0.232E-02    2.18       1.0  T
   4   -126.3120096 -0.376419E-04  0.750E-03    2.18       1.6  T
   5   -126.3120113 -0.169559E-05  0.379E-03    2.18       3.1  T
   6   -126.3120115 -0.188572E-06  0.182E-03    2.18       6.5  T
   7   -126.3120116 -0.117740E-06  0.102E-03    2.18      11.6  T
   8   -126.3120116 -0.215736E-08  0.586E-04    2.18      20.1  T
   9   -126.3120116 -0.326970E-08  0.252E-04    2.18      46.9  T
     SCC iter.                  ...        0 min,  0.232 sec
     gradient                   ...        0 min,  0.136 sec
 * total energy  :  -124.3978077 Eh     change       -0.6137655E-03 Eh
   gradient norm :     0.0090698 Eh/α   predicted    -0.4813936E-03 ( -21.57%)
   displ. norm   :     0.5836847 α      lambda       -0.7887761E-03
   maximum displ.:     0.3466772 α      in ANC's #5, #2, #3, ...

........................................................................
.............................. CYCLE   14 ..............................
........................................................................
   1   -126.3114564 -0.126311E+03  0.161E-01    2.19       0.0  T
   2   -126.3114888 -0.324549E-04  0.895E-02    2.20       1.0  T
   3   -126.3114349  0.539303E-04  0.292E-02    2.21       1.0  T
   4   -126.3114952 -0.603061E-04  0.967E-03    2.20       1.2  T
   5   -126.3114998 -0.464832E-05  0.431E-03    2.21       2.7  T
   6   -126.3114999 -0.105366E-06  0.233E-03    2.21       5.1  T
   7   -126.3115001 -0.194628E-06  0.118E-03    2.21      10.0  T
   8   -126.3115001 -0.353218E-08  0.749E-04    2.21      15.7  T
   9   -126.3115002 -0.513970E-08  0.256E-04    2.21      46.0  T
     SCC iter.                  ...        0 min,  0.229 sec
     gradient                   ...        0 min,  0.138 sec
 * total energy  :  -124.3984738 Eh     change       -0.6661683E-03 Eh
   gradient norm :     0.0107964 Eh/α   predicted    -0.5287540E-03 ( -20.63%)
   displ. norm   :     0.6547907 α      lambda       -0.8762660E-03
   maximum displ.:     0.3887954 α      in ANC's #5, #2, #3, ...

........................................................................
.............................. CYCLE   15 ..............................
........................................................................
   1   -126.3164691 -0.126316E+03  0.197E-01    2.24       0.0  T
   2   -126.3164846 -0.154294E-04  0.107E-01    2.24       1.0  T
   3   -126.3164364  0.481962E-04  0.273E-02    2.25       1.0  T
   4   -126.3164917 -0.553416E-04  0.939E-03    2.24       1.3  T
   5   -126.3164932 -0.145155E-05  0.508E-03    2.24       2.3  T
   6   -126.3164937 -0.544491E-06  0.235E-03    2.24       5.0  T
   7   -126.3164938 -0.145675E-06  0.144E-03    2.24       8.2  T
   8   -126.3164939 -0.130339E-08  0.747E-04    2.24      15.8  T
   9   -126.3164939 -0.102607E-07  0.211E-04    2.24      55.8  T
     SCC iter.                  ...        0 min,  0.228 sec
     gradient                   ...        0 min,  0.152 sec
 * total energy  :  -124.3991927 Eh     change       -0.7188031E-03 Eh
   gradient norm :     0.0109836 Eh/α   predicted    -0.6259874E-03 ( -12.91%)
   displ. norm   :     0.7416638 α      lambda       -0.8588536E-03
   maximum displ.:     0.4419450 α      in ANC's #5, #2, #3, ...

........................................................................
.............................. CYCLE   16 ..............................
........................................................................
   1   -126.3126147 -0.126313E+03  0.202E-01    2.25       0.0  T
   2   -126.3126804 -0.657394E-04  0.112E-01    2.27       1.0  T
   3   -126.3126012  0.792283E-04  0.365E-02    2.28       1.0  T
   4   -126.3126912 -0.900655E-04  0.126E-02    2.28       1.0  T
   5   -126.3127000 -0.871770E-05  0.563E-03    2.28       2.1  T
   6   -126.3127002 -0.264184E-06  0.298E-03    2.28       3.9  T
   7   -126.3127005 -0.281069E-06  0.156E-03    2.28       7.6  T
   8   -126.3127005 -0.150678E-07  0.101E-03    2.28      11.7  T
   9   -126.3127005 -0.673931E-08  0.327E-04    2.28      36.0  T
  10   -126.3127005 -0.374835E-08  0.151E-04    2.28      78.1  T
     SCC iter.                  ...        0 min,  0.256 sec
     gradient                   ...        0 min,  0.138 sec
 * total energy  :  -124.3998632 Eh     change       -0.6705081E-03 Eh
   gradient norm :     0.0131716 Eh/α   predicted    -0.6656430E-03 (  -0.73%)
   displ. norm   :     0.6510485 α      lambda       -0.8455798E-03
   maximum displ.:     0.3720409 α      in ANC's #5, #2, #11, ...

........................................................................
.............................. CYCLE   17 ..............................
........................................................................
   1   -126.3178894 -0.126318E+03  0.182E-01    2.31       0.0  T
   2   -126.3179014 -0.120030E-04  0.998E-02    2.31       1.0  T
   3   -126.3178698  0.316346E-04  0.231E-02    2.32       1.0  T
   4   -126.3179066 -0.368844E-04  0.848E-03    2.31       1.4  T
   5   -126.3179075 -0.871795E-06  0.479E-03    2.31       2.5  T
   6   -126.3179082 -0.663415E-06  0.210E-03    2.31       5.6  T
   7   -126.3179082 -0.670416E-07  0.143E-03    2.31       8.2  T
   8   -126.3179082 -0.770834E-08  0.707E-04    2.31      16.7  T
   9   -126.3179083 -0.940480E-08  0.188E-04    2.31      62.7  T
     SCC iter.                  ...        0 min,  0.222 sec
     gradient                   ...        0 min,  0.139 sec
 * total energy  :  -124.4005180 Eh     change       -0.6548148E-03 Eh
   gradient norm :     0.0087111 Eh/α   predicted    -0.6019958E-03 (  -8.07%)
   displ. norm   :     0.7086312 α      lambda       -0.6899649E-03
   maximum displ.:     0.4167005 α      in ANC's #5, #2, #3, ...

........................................................................
.............................. CYCLE   18 ..............................
........................................................................
   1   -126.3179076 -0.126318E+03  0.205E-01    2.34       0.0  T
   2   -126.3179228 -0.151594E-04  0.112E-01    2.34       1.0  T
   3   -126.3178914  0.313921E-04  0.233E-02    2.35       1.0  T
   4   -126.3179278 -0.364512E-04  0.993E-03    2.35       1.2  T
   5   -126.3179295 -0.171023E-05  0.539E-03    2.35       2.2  T
   6   -126.3179300 -0.455815E-06  0.277E-03    2.35       4.3  T
   7   -126.3179302 -0.180317E-06  0.179E-03    2.35       6.6  T
   8   -126.3179302 -0.930095E-08  0.745E-04    2.35      15.8  T
   9   -126.3179302 -0.124509E-07  0.260E-04    2.35      45.3  T
     SCC iter.                  ...        0 min,  0.228 sec
     gradient                   ...        0 min,  0.143 sec
 * total energy  :  -124.4010764 Eh     change       -0.5584327E-03 Eh
   gradient norm :     0.0091526 Eh/α   predicted    -0.5182205E-03 (  -7.20%)
   displ. norm   :     0.6533544 α      lambda       -0.6186574E-03
   maximum displ.:     0.3851641 α      in ANC's #2, #5, #3, ...

........................................................................
.............................. CYCLE   19 ..............................
........................................................................
   1   -126.3199154 -0.126320E+03  0.164E-01    2.38       0.0  T
   2   -126.3199269 -0.114395E-04  0.907E-02    2.38       1.0  T
   3   -126.3199085  0.183807E-04  0.193E-02    2.39       1.0  T
   4   -126.3199291 -0.206446E-04  0.900E-03    2.38       1.3  T
   5   -126.3199314 -0.229861E-05  0.503E-03    2.38       2.3  T
   6   -126.3199315 -0.126393E-06  0.298E-03    2.38       3.9  T
   7   -126.3199317 -0.187663E-06  0.192E-03    2.38       6.1  T
   8   -126.3199317 -0.156903E-07  0.874E-04    2.38      13.5  T
   9   -126.3199318 -0.188107E-07  0.276E-04    2.38      42.7  T
     SCC iter.                  ...        0 min,  0.228 sec
     gradient                   ...        0 min,  0.119 sec
 * total energy  :  -124.4015335 Eh     change       -0.4570642E-03 Eh
   gradient norm :     0.0072116 Eh/α   predicted    -0.4413727E-03 (  -3.43%)
   displ. norm   :     0.6529766 α      lambda       -0.4560357E-03
   maximum displ.:     0.3966644 α      in ANC's #2, #5, #3, ...

........................................................................
.............................. CYCLE   20 ..............................
........................................................................
   1   -126.3174974 -0.126317E+03  0.196E-01    2.39       0.0  T
   2   -126.3175121 -0.147249E-04  0.106E-01    2.39       1.0  T
   3   -126.3174808  0.313178E-04  0.246E-02    2.40       1.0  T
   4   -126.3175173 -0.364343E-04  0.116E-02    2.40       1.0  T
   5   -126.3175196 -0.231680E-05  0.666E-03    2.40       1.8  T
   6   -126.3175196 -0.608574E-07  0.382E-03    2.40       3.1  T
   7   -126.3175199 -0.297933E-06  0.241E-03    2.40       4.9  T
   8   -126.3175200 -0.206654E-07  0.978E-04    2.40      12.1  T
   9   -126.3175200 -0.281931E-07  0.358E-04    2.40      32.9  T
     SCC iter.                  ...        0 min,  0.221 sec
     gradient                   ...        0 min,  0.145 sec
 * total energy  :  -124.4018471 Eh     change       -0.3136289E-03 Eh
   gradient norm :     0.0073836 Eh/α   predicted    -0.3252435E-03 (   3.70%)
   displ. norm   :     0.6530727 α      lambda        0.2901601E-05
   maximum displ.:     0.3966644 α      in ANC's #2, #5, #3, ...
 * RMSD in coord.:     1.0373312 α      energy gain  -0.3543807E-01 Eh

generating ANC from model Hessian ...
Using Lindh-Hessian (1995)
 Shifting diagonal of input Hessian by    9.8569780164152292E-003
 Lowest  eigenvalues of input Hessian
    0.000000    0.000000    0.000000    0.000000    0.000000    0.000000
    0.010000    0.010066    0.010194    0.010247    0.010329    0.010370
    0.010516    0.010810    0.010943    0.011097    0.011274    0.011985
 Highest eigenvalues
    2.032518    2.104264    2.107600    2.319081    2.337357    2.380741


........................................................................
.............................. CYCLE   21 ..............................
........................................................................
   1   -126.3117089 -0.126312E+03  0.193E-01    2.40       0.0  T
   2   -126.3117259 -0.169474E-04  0.105E-01    2.40       1.0  T
   3   -126.3116932  0.326432E-04  0.263E-02    2.41       1.0  T
   4   -126.3117313 -0.380368E-04  0.129E-02    2.41       1.0  T
   5   -126.3117340 -0.277347E-05  0.765E-03    2.41       1.5  T
   6   -126.3117340  0.836484E-08  0.444E-03    2.41       2.7  T
   7   -126.3117344 -0.379769E-06  0.274E-03    2.41       4.3  T
   8   -126.3117344 -0.338669E-07  0.111E-03    2.41      10.6  T
   9   -126.3117345 -0.362737E-07  0.407E-04    2.41      29.0  T
  10   -126.3117345 -0.424656E-08  0.259E-04    2.41      45.6  T
     SCC iter.                  ...        0 min,  0.254 sec
     gradient                   ...        0 min,  0.153 sec
 * total energy  :  -124.4018016 Eh     change        0.4549040E-04 Eh
   gradient norm :     0.0147728 Eh/α   predicted     0.0000000E+00 (-100.00%)
   displ. norm   :     0.1103597 α      lambda       -0.7387014E-03
   maximum displ.:     0.0427949 α      in ANC's #66, #2, #9, ...

........................................................................
.............................. CYCLE   22 ..............................
........................................................................
   1   -126.3209367 -0.126321E+03  0.879E-02    2.43       0.0  T
   2   -126.3209612 -0.245289E-04  0.535E-02    2.44       1.0  T
   3   -126.3209517  0.949416E-05  0.302E-02    2.43       1.0  T
   4   -126.3209641 -0.124077E-04  0.239E-02    2.43       1.0  T
   5   -126.3209722 -0.807568E-05  0.108E-02    2.43       1.1  T
   6   -126.3209721  0.573625E-07  0.513E-03    2.43       2.3  T
   7   -126.3209728 -0.656748E-06  0.226E-03    2.43       5.2  T
   8   -126.3209729 -0.104012E-06  0.805E-04    2.43      14.6  T
   9   -126.3209729 -0.240115E-07  0.351E-04    2.43      33.6  T
     SCC iter.                  ...        0 min,  0.229 sec
     gradient                   ...        0 min,  0.133 sec
 * total energy  :  -124.4021166 Eh     change       -0.3149768E-03 Eh
   gradient norm :     0.0062625 Eh/α   predicted    -0.3740186E-03 (  18.74%)
   displ. norm   :     0.0755936 α      lambda       -0.1581209E-03
   maximum displ.:     0.0391039 α      in ANC's #2, #9, #4, ...

........................................................................
.............................. CYCLE   23 ..............................
........................................................................
   1   -126.3225751 -0.126323E+03  0.297E-02    2.43       0.0  T
   2   -126.3225776 -0.245835E-05  0.184E-02    2.43       1.0  T
   3   -126.3225756  0.202653E-05  0.101E-02    2.43       1.2  T
   4   -126.3225782 -0.266705E-05  0.691E-03    2.43       1.7  T
   5   -126.3225788 -0.529894E-06  0.348E-03    2.43       3.4  T
   6   -126.3225787  0.333504E-07  0.218E-03    2.43       5.4  T
   7   -126.3225788 -0.128849E-06  0.996E-04    2.43      11.8  T
   8   -126.3225789 -0.192676E-07  0.261E-04    2.43      45.2  T
     SCC iter.                  ...        0 min,  0.205 sec
     gradient                   ...        0 min,  0.138 sec
 * total energy  :  -124.4022285 Eh     change       -0.1118650E-03 Eh
   gradient norm :     0.0021877 Eh/α   predicted    -0.7951395E-04 ( -28.92%)
   displ. norm   :     0.1480882 α      lambda       -0.1252121E-03
   maximum displ.:     0.0809595 α      in ANC's #2, #9, #4, ...

........................................................................
.............................. CYCLE   24 ..............................
........................................................................
   1   -126.3231971 -0.126323E+03  0.377E-02    2.43       0.0  T
   2   -126.3231986 -0.149789E-05  0.219E-02    2.43       1.0  T
   3   -126.3231957  0.293266E-05  0.832E-03    2.43       1.4  T
   4   -126.3231991 -0.346402E-05  0.342E-03    2.43       3.4  T
   5   -126.3231993 -0.142147E-06  0.224E-03    2.43       5.3  T
   6   -126.3231993  0.278447E-08  0.152E-03    2.43       7.7  T
   7   -126.3231993 -0.479583E-07  0.808E-04    2.43      14.6  T
   8   -126.3231993 -0.554331E-08  0.352E-04    2.43      33.5  T
     SCC iter.                  ...        0 min,  0.209 sec
     gradient                   ...        0 min,  0.146 sec
 * total energy  :  -124.4023253 Eh     change       -0.9689241E-04 Eh
   gradient norm :     0.0030895 Eh/α   predicted    -0.6398467E-04 ( -33.96%)
   displ. norm   :     0.2361667 α      lambda       -0.1419513E-03
   maximum displ.:     0.1286588 α      in ANC's #2, #9, #4, ...

........................................................................
.............................. CYCLE   25 ..............................
........................................................................
   1   -126.3227916 -0.126323E+03  0.543E-02    2.44       0.0  T
   2   -126.3227929 -0.132200E-05  0.312E-02    2.43       1.0  T
   3   -126.3227894  0.357608E-05  0.800E-03    2.44       1.5  T
   4   -126.3227935 -0.411502E-05  0.264E-03    2.43       4.5  T
   5   -126.3227936 -0.104941E-06  0.160E-03    2.44       7.4  T
   6   -126.3227936 -0.391883E-07  0.959E-04    2.44      12.3  T
   7   -126.3227936 -0.136977E-07  0.632E-04    2.44      18.7  T
     SCC iter.                  ...        0 min,  0.186 sec
     gradient                   ...        0 min,  0.135 sec
 * total energy  :  -124.4024422 Eh     change       -0.1168940E-03 Eh
   gradient norm :     0.0047509 Eh/α   predicted    -0.7493570E-04 ( -35.89%)
   displ. norm   :     0.3232016 α      lambda       -0.1745503E-03
   maximum displ.:     0.1770845 α      in ANC's #2, #9, #4, ...

........................................................................
.............................. CYCLE   26 ..............................
........................................................................
   1   -126.3218294 -0.126322E+03  0.754E-02    2.44       0.0  T
   2   -126.3218307 -0.136329E-05  0.429E-02    2.44       1.0  T
   3   -126.3218276  0.310033E-05  0.747E-03    2.44       1.6  T
   4   -126.3218313 -0.366202E-05  0.282E-03    2.44       4.2  T
   5   -126.3218314 -0.894397E-07  0.141E-03    2.44       8.3  T
   6   -126.3218314 -0.735097E-07  0.699E-04    2.44      16.9  T
   7   -126.3218315 -0.910694E-08  0.460E-04    2.44      25.6  T
     SCC iter.                  ...        0 min,  0.178 sec
     gradient                   ...        0 min,  0.149 sec
 * total energy  :  -124.4025917 Eh     change       -0.1494489E-03 Eh
   gradient norm :     0.0050396 Eh/α   predicted    -0.9639275E-04 ( -35.50%)
   displ. norm   :     0.4213583 α      lambda       -0.2183665E-03
   maximum displ.:     0.2331901 α      in ANC's #2, #4, #9, ...

........................................................................
.............................. CYCLE   27 ..............................
........................................................................
   1   -126.3207891 -0.126321E+03  0.979E-02    2.45       0.0  T
   2   -126.3207914 -0.229350E-05  0.561E-02    2.45       1.0  T
   3   -126.3207873  0.407195E-05  0.884E-03    2.45       1.3  T
   4   -126.3207923 -0.491712E-05  0.350E-03    2.45       3.4  T
   5   -126.3207924 -0.192234E-06  0.171E-03    2.45       6.9  T
   6   -126.3207925 -0.292953E-07  0.106E-03    2.45      11.1  T
   7   -126.3207925 -0.202849E-07  0.719E-04    2.45      16.4  T
   8   -126.3207925 -0.159409E-08  0.318E-04    2.45      37.0  T
     SCC iter.                  ...        0 min,  0.200 sec
     gradient                   ...        0 min,  0.151 sec
 * total energy  :  -124.4027754 Eh     change       -0.1837470E-03 Eh
   gradient norm :     0.0042380 Eh/α   predicted    -0.1285698E-03 ( -30.03%)
   displ. norm   :     0.4726291 α      lambda       -0.2247869E-03
   maximum displ.:     0.2678474 α      in ANC's #2, #4, #9, ...

........................................................................
.............................. CYCLE   28 ..............................
........................................................................
   1   -126.3203035 -0.126320E+03  0.114E-01    2.46       0.0  T
   2   -126.3203067 -0.320876E-05  0.652E-02    2.46       1.0  T
   3   -126.3203023  0.435470E-05  0.992E-03    2.46       1.2  T
   4   -126.3203076 -0.531597E-05  0.430E-03    2.46       2.7  T
   5   -126.3203080 -0.310672E-06  0.204E-03    2.46       5.8  T
   6   -126.3203080 -0.309785E-07  0.123E-03    2.46       9.6  T
   7   -126.3203080 -0.183840E-07  0.836E-04    2.46      14.1  T
   8   -126.3203080 -0.407015E-08  0.369E-04    2.46      31.9  T
     SCC iter.                  ...        0 min,  0.201 sec
     gradient                   ...        0 min,  0.127 sec
 * total energy  :  -124.4029586 Eh     change       -0.1832077E-03 Eh
   gradient norm :     0.0036402 Eh/α   predicted    -0.1375073E-03 ( -24.94%)
   displ. norm   :     0.4472676 α      lambda       -0.1946669E-03
   maximum displ.:     0.2623826 α      in ANC's #2, #4, #9, ...

........................................................................
.............................. CYCLE   29 ..............................
........................................................................
   1   -126.3207970 -0.126321E+03  0.109E-01    2.47       0.0  T
   2   -126.3207997 -0.268354E-05  0.624E-02    2.47       1.0  T
   3   -126.3207960  0.371178E-05  0.872E-03    2.47       1.4  T
   4   -126.3208005 -0.450637E-05  0.367E-03    2.47       3.2  T
   5   -126.3208007 -0.241532E-06  0.166E-03    2.47       7.1  T
   6   -126.3208008 -0.481202E-07  0.940E-04    2.47      12.5  T
   7   -126.3208008 -0.137332E-07  0.662E-04    2.47      17.8  T
     SCC iter.                  ...        0 min,  0.178 sec
     gradient                   ...        0 min,  0.143 sec
 * total energy  :  -124.4031179 Eh     change       -0.1592572E-03 Eh
   gradient norm :     0.0036878 Eh/α   predicted    -0.1168052E-03 ( -26.66%)
   displ. norm   :     0.4348173 α      lambda       -0.1808710E-03
   maximum displ.:     0.2636484 α      in ANC's #2, #4, #8, ...

........................................................................
.............................. CYCLE   30 ..............................
........................................................................
   1   -126.3219867 -0.126322E+03  0.113E-01    2.47       0.0  T
   2   -126.3219889 -0.226581E-05  0.639E-02    2.47       1.0  T
   3   -126.3219858  0.319802E-05  0.877E-03    2.47       1.3  T
   4   -126.3219897 -0.394917E-05  0.410E-03    2.47       2.9  T
   5   -126.3219899 -0.237815E-06  0.164E-03    2.47       7.2  T
   6   -126.3219900 -0.662915E-07  0.969E-04    2.47      12.2  T
   7   -126.3219900 -0.785302E-08  0.689E-04    2.47      17.1  T
     SCC iter.                  ...        0 min,  0.176 sec
     gradient                   ...        0 min,  0.130 sec
 * total energy  :  -124.4032688 Eh     change       -0.1509420E-03 Eh
   gradient norm :     0.0035581 Eh/α   predicted    -0.1075363E-03 ( -28.76%)
   displ. norm   :     0.4771224 α      lambda       -0.1861886E-03
   maximum displ.:     0.2939790 α      in ANC's #2, #4, #8, ...

........................................................................
.............................. CYCLE   31 ..............................
........................................................................
   1   -126.3224401 -0.126322E+03  0.125E-01    2.47       0.0  T
   2   -126.3224426 -0.254386E-05  0.708E-02    2.47       1.0  T
   3   -126.3224369  0.574339E-05  0.112E-02    2.47       1.1  T
   4   -126.3224439 -0.697037E-05  0.462E-03    2.47       2.6  T
   5   -126.3224440 -0.135360E-06  0.210E-03    2.47       5.6  T
   6   -126.3224441 -0.135831E-06  0.126E-03    2.47       9.3  T
   7   -126.3224442 -0.132819E-07  0.853E-04    2.47      13.8  T
   8   -126.3224442 -0.439097E-08  0.280E-04    2.47      42.1  T
     SCC iter.                  ...        0 min,  0.211 sec
     gradient                   ...        0 min,  0.162 sec
 * total energy  :  -124.4034282 Eh     change       -0.1593656E-03 Eh
   gradient norm :     0.0034927 Eh/α   predicted    -0.1143017E-03 ( -28.28%)
   displ. norm   :     0.5095013 α      lambda       -0.2061750E-03
   maximum displ.:     0.3199255 α      in ANC's #2, #4, #8, ...

........................................................................
.............................. CYCLE   32 ..............................
........................................................................
   1   -126.3236102 -0.126324E+03  0.141E-01    2.46       0.0  T
   2   -126.3236135 -0.324380E-05  0.793E-02    2.46       1.0  T
   3   -126.3236064  0.712790E-05  0.125E-02    2.47       1.0  T
   4   -126.3236150 -0.860624E-05  0.574E-03    2.46       2.1  T
   5   -126.3236152 -0.243650E-06  0.258E-03    2.47       4.6  T
   6   -126.3236155 -0.246472E-06  0.147E-03    2.47       8.0  T
   7   -126.3236155 -0.164218E-07  0.972E-04    2.46      12.1  T
   8   -126.3236155 -0.735430E-08  0.308E-04    2.47      38.3  T
     SCC iter.                  ...        0 min,  0.203 sec
     gradient                   ...        0 min,  0.140 sec
 * total energy  :  -124.4036013 Eh     change       -0.1731072E-03 Eh
   gradient norm :     0.0030372 Eh/α   predicted    -0.1298491E-03 ( -24.99%)
   displ. norm   :     0.5711399 α      lambda       -0.1974211E-03
   maximum displ.:     0.3600120 α      in ANC's #2, #4, #8, ...

........................................................................
.............................. CYCLE   33 ..............................
........................................................................
   1   -126.3222520 -0.126322E+03  0.154E-01    2.47       0.0  T
   2   -126.3222566 -0.457348E-05  0.869E-02    2.46       1.0  T
   3   -126.3222424  0.141817E-04  0.165E-02    2.47       1.0  T
   4   -126.3222592 -0.167892E-04  0.611E-03    2.46       1.9  T
   5   -126.3222593 -0.112715E-06  0.307E-03    2.46       3.8  T
   6   -126.3222597 -0.363782E-06  0.163E-03    2.46       7.2  T
   7   -126.3222597 -0.249827E-07  0.110E-03    2.46      10.7  T
   8   -126.3222597 -0.336001E-08  0.407E-04    2.46      29.0  T
   9   -126.3222597 -0.581011E-08  0.138E-04    2.46      85.3  T
     SCC iter.                  ...        0 min,  0.226 sec
     gradient                   ...        0 min,  0.135 sec
 * total energy  :  -124.4037605 Eh     change       -0.1592062E-03 Eh
   gradient norm :     0.0034668 Eh/α   predicted    -0.1309139E-03 ( -17.77%)
   displ. norm   :     0.5102101 α      lambda       -0.1870210E-03
   maximum displ.:     0.3300396 α      in ANC's #2, #4, #12, ...

........................................................................
.............................. CYCLE   34 ..............................
........................................................................
   1   -126.3253998 -0.126325E+03  0.140E-01    2.47       0.0  T
   2   -126.3254042 -0.441181E-05  0.782E-02    2.46       1.0  T
   3   -126.3253914  0.127792E-04  0.150E-02    2.47       1.0  T
   4   -126.3254066 -0.151701E-04  0.591E-03    2.47       2.0  T
   5   -126.3254067 -0.142410E-06  0.300E-03    2.47       3.9  T
   6   -126.3254071 -0.344212E-06  0.149E-03    2.47       7.9  T
   7   -126.3254071 -0.276006E-07  0.101E-03    2.47      11.7  T
   8   -126.3254071 -0.224382E-08  0.345E-04    2.47      34.2  T
   9   -126.3254071 -0.456734E-08  0.905E-05    2.47     130.2  T
     SCC iter.                  ...        0 min,  0.225 sec
     gradient                   ...        0 min,  0.157 sec
 * total energy  :  -124.4038855 Eh     change       -0.1249424E-03 Eh
   gradient norm :     0.0033215 Eh/α   predicted    -0.1178595E-03 (  -5.67%)
   displ. norm   :     0.5731013 α      lambda       -0.1390299E-03
   maximum displ.:     0.3696243 α      in ANC's #2, #4, #11, ...

........................................................................
.............................. CYCLE   35 ..............................
........................................................................
   1   -126.3207976 -0.126321E+03  0.157E-01    2.47       0.0  T
   2   -126.3208042 -0.660261E-05  0.880E-02    2.47       1.0  T
   3   -126.3207853  0.188629E-04  0.189E-02    2.47       1.0  T
   4   -126.3208078 -0.224669E-04  0.671E-03    2.47       1.8  T
   5   -126.3208079 -0.108093E-06  0.353E-03    2.47       3.3  T
   6   -126.3208083 -0.421969E-06  0.179E-03    2.47       6.6  T
   7   -126.3208084 -0.422803E-07  0.122E-03    2.47       9.7  T
   8   -126.3208084 -0.285056E-08  0.464E-04    2.47      25.4  T
   9   -126.3208084 -0.815288E-08  0.144E-04    2.47      81.6  T
     SCC iter.                  ...        0 min,  0.230 sec
     gradient                   ...        0 min,  0.142 sec
 * total energy  :  -124.4039556 Eh     change       -0.7011345E-04 Eh
   gradient norm :     0.0047850 Eh/α   predicted    -0.9234773E-04 (  31.71%)
   displ. norm   :     0.1715214 α      lambda       -0.9046880E-04
   maximum displ.:     0.1187849 α      in ANC's #2, #1, #4, ...

........................................................................
.............................. CYCLE   36 ..............................
........................................................................
   1   -126.3235901 -0.126324E+03  0.435E-02    2.48       0.0  T
   2   -126.3235911 -0.105722E-05  0.242E-02    2.47       1.0  T
   3   -126.3235890  0.206778E-05  0.635E-03    2.48       1.9  T
   4   -126.3235915 -0.245321E-05  0.274E-03    2.47       4.3  T
   5   -126.3235916 -0.132216E-06  0.171E-03    2.47       6.9  T
   6   -126.3235916 -0.167974E-07  0.109E-03    2.47      10.8  T
   7   -126.3235917 -0.225438E-07  0.646E-04    2.47      18.2  T
   8   -126.3235917 -0.221434E-08  0.295E-04    2.47      40.0  T
     SCC iter.                  ...        0 min,  0.204 sec
     gradient                   ...        0 min,  0.140 sec
 * total energy  :  -124.4040275 Eh     change       -0.7194347E-04 Eh
   gradient norm :     0.0029449 Eh/α   predicted    -0.4656484E-04 ( -35.28%)
   displ. norm   :     0.4019991 α      lambda       -0.1487705E-03
   maximum displ.:     0.2839916 α      in ANC's #2, #1, #4, ...

........................................................................
.............................. CYCLE   37 ..............................
........................................................................
   1   -126.3267818 -0.126327E+03  0.114E-01    2.48       0.0  T
   2   -126.3267876 -0.581699E-05  0.621E-02    2.48       1.0  T
   3   -126.3267755  0.121104E-04  0.145E-02    2.48       1.0  T
   4   -126.3267902 -0.147250E-04  0.539E-03    2.48       2.2  T
   5   -126.3267904 -0.201633E-06  0.302E-03    2.48       3.9  T
   6   -126.3267906 -0.197135E-06  0.149E-03    2.48       7.9  T
   7   -126.3267906 -0.420549E-07  0.966E-04    2.48      12.2  T
   8   -126.3267906 -0.253110E-08  0.401E-04    2.48      29.4  T
     SCC iter.                  ...        0 min,  0.202 sec
     gradient                   ...        0 min,  0.140 sec
 * total energy  :  -124.4041345 Eh     change       -0.1070031E-03 Eh
   gradient norm :     0.0034319 Eh/α   predicted    -0.8640997E-04 ( -19.25%)
   displ. norm   :     0.5537970 α      lambda       -0.1481397E-03
   maximum displ.:     0.3892569 α      in ANC's #2, #4, #1, ...

........................................................................
.............................. CYCLE   38 ..............................
........................................................................
   1   -126.3257205 -0.126326E+03  0.141E-01    2.48       0.0  T
   2   -126.3257298 -0.929475E-05  0.780E-02    2.47       1.0  T
   3   -126.3257105  0.192416E-04  0.188E-02    2.48       1.0  T
   4   -126.3257333 -0.227891E-04  0.678E-03    2.48       1.7  T
   5   -126.3257341 -0.814432E-06  0.370E-03    2.48       3.2  T
   6   -126.3257344 -0.233439E-06  0.201E-03    2.48       5.9  T
   7   -126.3257345 -0.873846E-07  0.124E-03    2.48       9.5  T
   8   -126.3257345 -0.710884E-09  0.656E-04    2.48      18.0  T
   9   -126.3257345 -0.106118E-07  0.171E-04    2.48      69.1  T
     SCC iter.                  ...        0 min,  0.225 sec
     gradient                   ...        0 min,  0.138 sec
 * total energy  :  -124.4042470 Eh     change       -0.1124717E-03 Eh
   gradient norm :     0.0048642 Eh/α   predicted    -0.9678984E-04 ( -13.94%)
   displ. norm   :     0.5280881 α      lambda       -0.1500753E-03
   maximum displ.:     0.3696419 α      in ANC's #2, #1, #4, ...

........................................................................
.............................. CYCLE   39 ..............................
........................................................................
   1   -126.3249386 -0.126325E+03  0.146E-01    2.48       0.0  T
   2   -126.3249461 -0.747391E-05  0.794E-02    2.47       1.0  T
   3   -126.3249284  0.177221E-04  0.181E-02    2.48       1.0  T
   4   -126.3249502 -0.218086E-04  0.697E-03    2.47       1.7  T
   5   -126.3249503 -0.109628E-06  0.354E-03    2.47       3.3  T
   6   -126.3249507 -0.361611E-06  0.189E-03    2.47       6.2  T
   7   -126.3249507 -0.430872E-07  0.127E-03    2.47       9.3  T
   8   -126.3249507 -0.631415E-08  0.436E-04    2.47      27.0  T
   9   -126.3249507 -0.652908E-08  0.163E-04    2.47      72.4  T
     SCC iter.                  ...        0 min,  0.225 sec
     gradient                   ...        0 min,  0.062 sec
 * total energy  :  -124.4043609 Eh     change       -0.1139152E-03 Eh
   gradient norm :     0.0043295 Eh/α   predicted    -0.9596393E-04 ( -15.76%)
   displ. norm   :     0.4428234 α      lambda       -0.1342526E-03
   maximum displ.:     0.3012503 α      in ANC's #2, #1, #6, ...

........................................................................
.............................. CYCLE   40 ..............................
........................................................................
   1   -126.3245727 -0.126325E+03  0.114E-01    2.46       0.0  T
   2   -126.3245779 -0.517289E-05  0.628E-02    2.46       1.0  T
   3   -126.3245661  0.118331E-04  0.149E-02    2.46       1.0  T
   4   -126.3245805 -0.144505E-04  0.547E-03    2.46       2.2  T
   5   -126.3245807 -0.124140E-06  0.290E-03    2.46       4.1  T
   6   -126.3245809 -0.275209E-06  0.147E-03    2.46       8.0  T
   7   -126.3245810 -0.318617E-07  0.978E-04    2.46      12.0  T
   8   -126.3245810 -0.955737E-09  0.435E-04    2.46      27.1  T
     SCC iter.                  ...        0 min,  0.204 sec
     gradient                   ...        0 min,  0.138 sec
 * total energy  :  -124.4044538 Eh     change       -0.9292922E-04 Eh
   gradient norm :     0.0040964 Eh/α   predicted    -0.8028992E-04 ( -13.60%)
   displ. norm   :     0.3787962 α      lambda       -0.1024836E-03
   maximum displ.:     0.2517816 α      in ANC's #2, #1, #3, ...

........................................................................
.............................. CYCLE   41 ..............................
........................................................................
   1   -126.3237526 -0.126324E+03  0.104E-01    2.45       0.0  T
   2   -126.3237567 -0.407862E-05  0.568E-02    2.45       1.0  T
   3   -126.3237458  0.108139E-04  0.140E-02    2.46       1.0  T
   4   -126.3237591 -0.132477E-04  0.520E-03    2.45       2.3  T
   5   -126.3237591  0.199455E-07  0.273E-03    2.45       4.3  T
   6   -126.3237593 -0.222047E-06  0.150E-03    2.45       7.8  T
   7   -126.3237593 -0.349267E-07  0.981E-04    2.45      12.0  T
   8   -126.3237593 -0.521014E-08  0.387E-04    2.45      30.4  T
     SCC iter.                  ...        0 min,  0.203 sec
     gradient                   ...        0 min,  0.144 sec
 * total energy  :  -124.4045155 Eh     change       -0.6169038E-04 Eh
   gradient norm :     0.0036193 Eh/α   predicted    -0.5859662E-04 (  -5.01%)
   displ. norm   :     0.2553593 α      lambda       -0.8537339E-04
   maximum displ.:     0.1448058 α      in ANC's #2, #1, #3, ...

........................................................................
.............................. CYCLE   42 ..............................
........................................................................
   1   -126.3253695 -0.126325E+03  0.575E-02    2.45       0.0  T
   2   -126.3253715 -0.201427E-05  0.321E-02    2.45       1.0  T
   3   -126.3253673  0.417730E-05  0.857E-03    2.45       1.4  T
   4   -126.3253723 -0.500414E-05  0.279E-03    2.45       4.2  T
   5   -126.3253724 -0.114400E-06  0.160E-03    2.45       7.4  T
   6   -126.3253725 -0.580874E-07  0.829E-04    2.45      14.2  T
   7   -126.3253725 -0.150747E-07  0.535E-04    2.45      22.0  T
     SCC iter.                  ...        0 min,  0.183 sec
     gradient                   ...        0 min,  0.135 sec
 * total energy  :  -124.4045602 Eh     change       -0.4471031E-04 Eh
   gradient norm :     0.0040156 Eh/α   predicted    -0.4547337E-04 (   1.71%)
   displ. norm   :     0.2658886 α      lambda       -0.6289752E-04
   maximum displ.:     0.1679181 α      in ANC's #2, #1, #12, ...
 * RMSD in coord.:     0.8919163 α      energy gain  -0.2713139E-02 Eh

generating ANC from model Hessian ...
Using Lindh-Hessian (1995)
 Shifting diagonal of input Hessian by    9.8686585285458917E-003
 Lowest  eigenvalues of input Hessian
    0.000000    0.000000    0.000000    0.000000    0.000000    0.000000
    0.010000    0.010117    0.010191    0.010275    0.010362    0.010406
    0.010489    0.010762    0.010980    0.011127    0.011298    0.012012
 Highest eigenvalues
    2.039239    2.109237    2.110119    2.344993    2.353549    2.387225


........................................................................
.............................. CYCLE   43 ..............................
........................................................................
   1   -126.3239333 -0.126324E+03  0.630E-02    2.45       0.0  T
   2   -126.3239352 -0.197187E-05  0.355E-02    2.45       1.0  T
   3   -126.3239294  0.585928E-05  0.101E-02    2.45       1.2  T
   4   -126.3239363 -0.692680E-05  0.311E-03    2.45       3.8  T
   5   -126.3239363 -0.511369E-07  0.188E-03    2.45       6.3  T
   6   -126.3239364 -0.792592E-07  0.948E-04    2.45      12.4  T
   7   -126.3239364 -0.122044E-07  0.651E-04    2.45      18.1  T
     SCC iter.                  ...        0 min,  0.180 sec
     gradient                   ...        0 min,  0.136 sec
 * total energy  :  -124.4045900 Eh     change       -0.2979158E-04 Eh
   gradient norm :     0.0037733 Eh/α   predicted     0.0000000E+00 (-100.00%)
   displ. norm   :     0.0318672 α      lambda       -0.3745810E-04
   maximum displ.:     0.0136397 α      in ANC's #4, #1, #3, ...

........................................................................
.............................. CYCLE   44 ..............................
........................................................................
   1   -126.3258878 -0.126326E+03  0.175E-02    2.45       0.0  T
   2   -126.3258879 -0.186155E-06  0.968E-03    2.45       1.2  T
   3   -126.3258876  0.381765E-06  0.295E-03    2.45       4.0  T
   4   -126.3258880 -0.464088E-06  0.127E-03    2.45       9.3  T
   5   -126.3258880 -0.107188E-07  0.784E-04    2.45      15.0  T
   6   -126.3258880 -0.316122E-08  0.470E-04    2.45      25.1  T
     SCC iter.                  ...        0 min,  0.153 sec
     gradient                   ...        0 min,  0.134 sec
 * total energy  :  -124.4046141 Eh     change       -0.2407151E-04 Eh
   gradient norm :     0.0015082 Eh/α   predicted    -0.1875566E-04 ( -22.08%)
   displ. norm   :     0.0681580 α      lambda       -0.2022606E-04
   maximum displ.:     0.0351831 α      in ANC's #4, #5, #1, ...

........................................................................
.............................. CYCLE   45 ..............................
........................................................................
   1   -126.3276124 -0.126328E+03  0.183E-02    2.46       0.0  T
   2   -126.3276128 -0.409810E-06  0.104E-02    2.46       1.1  T
   3   -126.3276124  0.431673E-06  0.300E-03    2.46       3.9  T
   4   -126.3276129 -0.509841E-06  0.106E-03    2.45      11.1  T
   5   -126.3276129 -0.439856E-07  0.554E-04    2.46      21.3  T
   6   -126.3276129 -0.857824E-09  0.336E-04    2.46      35.1  T
     SCC iter.                  ...        0 min,  0.152 sec
     gradient                   ...        0 min,  0.144 sec
 * total energy  :  -124.4046302 Eh     change       -0.1606676E-04 Eh
   gradient norm :     0.0020604 Eh/α   predicted    -0.1013951E-04 ( -36.89%)
   displ. norm   :     0.0430229 α      lambda       -0.1212122E-04
   maximum displ.:     0.0232040 α      in ANC's #4, #5, #1, ...

........................................................................
.............................. CYCLE   46 ..............................
........................................................................
   1   -126.3271553 -0.126327E+03  0.106E-02    2.46       0.0  T
   2   -126.3271554 -0.441956E-07  0.594E-03    2.46       2.0  T
   3   -126.3271553  0.820222E-07  0.126E-03    2.46       9.3  T
   4   -126.3271554 -0.101269E-06  0.510E-04    2.46      23.1  T
   5   -126.3271554 -0.161924E-08  0.292E-04    2.46      40.3  T
     SCC iter.                  ...        0 min,  0.128 sec
     gradient                   ...        0 min,  0.163 sec
 * total energy  :  -124.4046411 Eh     change       -0.1090169E-04 Eh
   gradient norm :     0.0017894 Eh/α   predicted    -0.6072616E-05 ( -44.30%)
   displ. norm   :     0.2134666 α      lambda       -0.3571970E-04
   maximum displ.:     0.1108769 α      in ANC's #4, #1, #5, ...

........................................................................
.............................. CYCLE   47 ..............................
........................................................................
   1   -126.3248440 -0.126325E+03  0.498E-02    2.46       0.0  T
   2   -126.3248449 -0.834913E-06  0.280E-02    2.46       1.0  T
   3   -126.3248432  0.163057E-05  0.560E-03    2.46       2.1  T
   4   -126.3248453 -0.203929E-05  0.208E-03    2.46       5.7  T
   5   -126.3248453 -0.161702E-07  0.104E-03    2.46      11.3  T
   6   -126.3248453 -0.322904E-07  0.555E-04    2.46      21.2  T
   7   -126.3248453 -0.316854E-08  0.390E-04    2.46      30.2  T
     SCC iter.                  ...        0 min,  0.184 sec
     gradient                   ...        0 min,  0.123 sec
 * total energy  :  -124.4046756 Eh     change       -0.3448121E-04 Eh
   gradient norm :     0.0019182 Eh/α   predicted    -0.1824651E-04 ( -47.08%)
   displ. norm   :     0.1562903 α      lambda       -0.1716667E-04
   maximum displ.:     0.0825619 α      in ANC's #4, #1, #5, ...

........................................................................
.............................. CYCLE   48 ..............................
........................................................................
   1   -126.3249384 -0.126325E+03  0.354E-02    2.46       0.0  T
   2   -126.3249388 -0.408428E-06  0.199E-02    2.46       1.0  T
   3   -126.3249382  0.614259E-06  0.353E-03    2.46       3.3  T
   4   -126.3249390 -0.779890E-06  0.148E-03    2.46       8.0  T
   5   -126.3249390 -0.207338E-07  0.664E-04    2.46      17.8  T
   6   -126.3249390 -0.802092E-08  0.382E-04    2.46      30.9  T
     SCC iter.                  ...        0 min,  0.155 sec
     gradient                   ...        0 min,  0.136 sec
 * total energy  :  -124.4046972 Eh     change       -0.2164015E-04 Eh
   gradient norm :     0.0018079 Eh/α   predicted    -0.8689637E-05 ( -59.84%)
   displ. norm   :     0.2406840 α      lambda       -0.2795351E-04
   maximum displ.:     0.1271715 α      in ANC's #4, #1, #5, ...

........................................................................
.............................. CYCLE   49 ..............................
........................................................................
   1   -126.3255672 -0.126326E+03  0.542E-02    2.46       0.0  T
   2   -126.3255682 -0.958187E-06  0.305E-02    2.46       1.0  T
   3   -126.3255669  0.129478E-05  0.526E-03    2.46       2.2  T
   4   -126.3255685 -0.163457E-05  0.221E-03    2.46       5.3  T
   5   -126.3255686 -0.574841E-07  0.103E-03    2.46      11.5  T
   6   -126.3255686 -0.166146E-07  0.563E-04    2.46      20.9  T
   7   -126.3255686 -0.310847E-08  0.394E-04    2.46      29.9  T
     SCC iter.                  ...        0 min,  0.181 sec
     gradient                   ...        0 min,  0.137 sec
 * total energy  :  -124.4047291 Eh     change       -0.3194248E-04 Eh
   gradient norm :     0.0011234 Eh/α   predicted    -0.1433706E-04 ( -55.12%)
   displ. norm   :     0.2501393 α      lambda       -0.2256509E-04
   maximum displ.:     0.1332777 α      in ANC's #4, #1, #5, ...

........................................................................
.............................. CYCLE   50 ..............................
........................................................................
   1   -126.3261496 -0.126326E+03  0.547E-02    2.46       0.0  T
   2   -126.3261503 -0.765024E-06  0.309E-02    2.46       1.0  T
   3   -126.3261492  0.114067E-05  0.499E-03    2.46       2.4  T
   4   -126.3261506 -0.144686E-05  0.217E-03    2.46       5.4  T
   5   -126.3261507 -0.415670E-07  0.101E-03    2.46      11.7  T
   6   -126.3261507 -0.225395E-07  0.592E-04    2.46      19.9  T
   7   -126.3261507 -0.364388E-08  0.424E-04    2.46      27.8  T
     SCC iter.                  ...        0 min,  0.176 sec
     gradient                   ...        0 min,  0.153 sec
 * total energy  :  -124.4047519 Eh     change       -0.2271832E-04 Eh
   gradient norm :     0.0010744 Eh/α   predicted    -0.1159909E-04 ( -48.94%)
   displ. norm   :     0.1849550 α      lambda       -0.1299828E-04
   maximum displ.:     0.0997875 α      in ANC's #4, #1, #3, ...

........................................................................
.............................. CYCLE   51 ..............................
........................................................................
   1   -126.3265354 -0.126327E+03  0.418E-02    2.46       0.0  T
   2   -126.3265358 -0.385175E-06  0.234E-02    2.46       1.0  T
   3   -126.3265351  0.689940E-06  0.407E-03    2.46       2.9  T
   4   -126.3265359 -0.859890E-06  0.183E-03    2.46       6.4  T
   5   -126.3265360 -0.323835E-07  0.837E-04    2.46      14.1  T
   6   -126.3265360 -0.702276E-08  0.529E-04    2.46      22.3  T
     SCC iter.                  ...        0 min,  0.157 sec
     gradient                   ...        0 min,  0.158 sec
 * total energy  :  -124.4047659 Eh     change       -0.1401479E-04 Eh
   gradient norm :     0.0009957 Eh/α   predicted    -0.6598342E-05 ( -52.92%)
   displ. norm   :     0.1465808 α      lambda       -0.1035824E-04
   maximum displ.:     0.0791155 α      in ANC's #4, #1, #3, ...

........................................................................
.............................. CYCLE   52 ..............................
........................................................................
   1   -126.3266468 -0.126327E+03  0.310E-02    2.46       0.0  T
   2   -126.3266470 -0.225443E-06  0.177E-02    2.46       1.0  T
   3   -126.3266465  0.460341E-06  0.299E-03    2.46       3.9  T
   4   -126.3266471 -0.547300E-06  0.133E-03    2.46       8.9  T
   5   -126.3266471 -0.206690E-07  0.709E-04    2.46      16.6  T
   6   -126.3266471 -0.928777E-08  0.408E-04    2.46      28.9  T
     SCC iter.                  ...        0 min,  0.157 sec
     gradient                   ...        0 min,  0.131 sec
 * total energy  :  -124.4047778 Eh     change       -0.1194582E-04 Eh
   gradient norm :     0.0007797 Eh/α   predicted    -0.5237746E-05 ( -56.15%)
   displ. norm   :     0.1527391 α      lambda       -0.1111553E-04
   maximum displ.:     0.0855090 α      in ANC's #1, #4, #3, ...

........................................................................
.............................. CYCLE   53 ..............................
........................................................................
   1   -126.3267092 -0.126327E+03  0.341E-02    2.46       0.0  T
   2   -126.3267095 -0.294608E-06  0.193E-02    2.46       1.0  T
   3   -126.3267090  0.459690E-06  0.328E-03    2.46       3.6  T
   4   -126.3267096 -0.558575E-06  0.142E-03    2.46       8.3  T
   5   -126.3267096 -0.236445E-07  0.688E-04    2.46      17.1  T
   6   -126.3267096 -0.911729E-08  0.396E-04    2.46      29.8  T
     SCC iter.                  ...        0 min,  0.160 sec
     gradient                   ...        0 min,  0.154 sec
 * total energy  :  -124.4047894 Eh     change       -0.1154752E-04 Eh
   gradient norm :     0.0006740 Eh/α   predicted    -0.5616851E-05 ( -51.36%)
   displ. norm   :     0.1123810 α      lambda       -0.7335801E-05
   maximum displ.:     0.0662736 α      in ANC's #1, #4, #3, ...

........................................................................
.............................. CYCLE   54 ..............................
........................................................................
   1   -126.3263092 -0.126326E+03  0.239E-02    2.46       0.0  T
   2   -126.3263094 -0.164637E-06  0.136E-02    2.45       1.0  T
   3   -126.3263090  0.406893E-06  0.273E-03    2.46       4.3  T
   4   -126.3263095 -0.486086E-06  0.106E-03    2.45      11.1  T
   5   -126.3263095 -0.501426E-08  0.576E-04    2.45      20.5  T
   6   -126.3263095 -0.835867E-08  0.328E-04    2.45      35.9  T
     SCC iter.                  ...        0 min,  0.152 sec
     gradient                   ...        0 min,  0.126 sec
 * total energy  :  -124.4047970 Eh     change       -0.7612832E-05 Eh
   gradient norm :     0.0005691 Eh/α   predicted    -0.3691415E-05 ( -51.51%)
   displ. norm   :     0.0805470 α      lambda       -0.5175958E-05
   maximum displ.:     0.0485030 α      in ANC's #1, #4, #3, ...

........................................................................
.............................. CYCLE   55 ..............................
........................................................................
   1   -126.3262783 -0.126326E+03  0.165E-02    2.46       0.0  T
   2   -126.3262784 -0.112418E-06  0.943E-03    2.46       1.2  T
   3   -126.3262781  0.340973E-06  0.234E-03    2.46       5.0  T
   4   -126.3262785 -0.397280E-06  0.727E-04    2.46      16.2  T
   5   -126.3262785 -0.423998E-08  0.420E-04    2.46      28.1  T
     SCC iter.                  ...        0 min,  0.129 sec
     gradient                   ...        0 min,  0.139 sec
 * total energy  :  -124.4048032 Eh     change       -0.6206487E-05 Eh
   gradient norm :     0.0004956 Eh/α   predicted    -0.2599216E-05 ( -58.12%)
   displ. norm   :     0.0984079 α      lambda       -0.6839448E-05
   maximum displ.:     0.0571716 α      in ANC's #1, #4, #9, ...

........................................................................
.............................. CYCLE   56 ..............................
........................................................................
   1   -126.3262918 -0.126326E+03  0.218E-02    2.46       0.0  T
   2   -126.3262920 -0.178612E-06  0.122E-02    2.46       1.0  T
   3   -126.3262915  0.560647E-06  0.295E-03    2.46       4.0  T
   4   -126.3262921 -0.649214E-06  0.103E-03    2.46      11.4  T
   5   -126.3262921 -0.143262E-07  0.576E-04    2.46      20.5  T
   6   -126.3262921 -0.750214E-08  0.292E-04    2.46      40.3  T
     SCC iter.                  ...        0 min,  0.154 sec
     gradient                   ...        0 min,  0.155 sec
 * total energy  :  -124.4048109 Eh     change       -0.7726709E-05 Eh
   gradient norm :     0.0005109 Eh/α   predicted    -0.3434985E-05 ( -55.54%)
   displ. norm   :     0.1090817 α      lambda       -0.6728961E-05
   maximum displ.:     0.0633410 α      in ANC's #1, #9, #4, ...

........................................................................
.............................. CYCLE   57 ..............................
........................................................................
   1   -126.3261241 -0.126326E+03  0.251E-02    2.45       0.0  T
   2   -126.3261244 -0.217702E-06  0.139E-02    2.45       1.0  T
   3   -126.3261235  0.886878E-06  0.385E-03    2.46       3.1  T
   4   -126.3261245 -0.103477E-05  0.130E-03    2.46       9.1  T
   5   -126.3261245 -0.681574E-08  0.717E-04    2.46      16.4  T
   6   -126.3261245 -0.118324E-07  0.392E-04    2.46      30.0  T
     SCC iter.                  ...        0 min,  0.152 sec
     gradient                   ...        0 min,  0.134 sec
 * total energy  :  -124.4048174 Eh     change       -0.6528132E-05 Eh
   gradient norm :     0.0005891 Eh/α   predicted    -0.3385537E-05 ( -48.14%)
   displ. norm   :     0.0810823 α      lambda       -0.4391701E-05
   maximum displ.:     0.0485306 α      in ANC's #1, #9, #4, ...

........................................................................
.............................. CYCLE   58 ..............................
........................................................................
   1   -126.3262976 -0.126326E+03  0.180E-02    2.46       0.0  T
   2   -126.3262977 -0.130079E-06  0.100E-02    2.46       1.2  T
   3   -126.3262974  0.337213E-06  0.241E-03    2.46       4.9  T
   4   -126.3262978 -0.382504E-06  0.994E-04    2.46      11.9  T
   5   -126.3262978 -0.224082E-07  0.547E-04    2.46      21.5  T
     SCC iter.                  ...        0 min,  0.125 sec
     gradient                   ...        0 min,  0.126 sec
 * total energy  :  -124.4048219 Eh     change       -0.4476505E-05 Eh
   gradient norm :     0.0005018 Eh/α   predicted    -0.2204690E-05 ( -50.75%)
   displ. norm   :     0.0569592 α      lambda       -0.3014315E-05
   maximum displ.:     0.0370826 α      in ANC's #1, #9, #4, ...

   *** GEOMETRY OPTIMIZATION CONVERGED AFTER 58 ITERATIONS ***

------------------------------------------------------------------------
 total energy gain   :        -0.0384129 Eh      -24.1044 kcal/mol
 total RMSD          :         1.6348070 a0        0.8651 Å
 total power (kW/mol):        -1.7388447 (step)   -3.4357 (real)
------------------------------------------------------------------------

 ANCopt (total)                0 d,  0 h,  0 min, 29.354 sec
 optimizer setup                ...        0 min,  0.000 sec (  0.001%)
[...]
       105        2.0000           -0.4150263             -11.2934
       106        2.0000           -0.4143794             -11.2758
       107        2.0000           -0.4124105             -11.2223
       108        2.0000           -0.4100840             -11.1590
       109        2.0000           -0.4094923             -11.1429
       110        2.0000           -0.4035841             -10.9821
       111        2.0000           -0.4034297             -10.9779
       112        2.0000           -0.3807710             -10.3613
       113        2.0000           -0.3803863             -10.3508 (HOMO)
       114                         -0.2901004              -7.8940 (LUMO)
       115                         -0.2817536              -7.6669
       116                         -0.2673815              -7.2758
       117                         -0.2654394              -7.2230
       118                         -0.2652191              -7.2170
       119                         -0.2644513              -7.1961
       120                         -0.2636588              -7.1745
       121                         -0.2391330              -6.5071
       122                         -0.2384685              -6.4891
       123                         -0.2327982              -6.3348
       124                         -0.2318346              -6.3085
       ...                                ...                  ...
       220                          0.6927168              18.8498
      -------------------------------------------------------------
                  HL-Gap            0.0902858 Eh            2.4568 eV
             Fermi-level           -0.3352434 Eh           -9.1224 eV

     #   Z          covCN         q      C6AA      α(0)
     1   6 C        2.921    -0.032    28.797     8.800
     2   6 C        2.915    -0.029    28.731     8.790
     3   6 C        2.917    -0.029    28.728     8.789
     4   6 C        2.917    -0.035    28.862     8.810
     5   6 C        2.987     0.016    27.650     8.626
     6   6 C        2.989     0.019    27.565     8.612
     7   6 C        2.919    -0.033    28.819     8.803
     8   6 C        2.915    -0.027    28.672     8.781
     9   6 C        2.920    -0.034    28.850     8.808
    10   6 C        2.965     0.010    27.785     8.646
    11   6 C        3.855     0.042    19.835     6.334
    12   6 C        3.824     0.047    19.765     6.326
    13   6 C        2.966     0.005    27.901     8.664
    14   6 C        2.924    -0.036    28.893     8.815
    15   6 C        2.914    -0.028    28.707     8.786
    16   6 C        2.921    -0.034    28.838     8.806
    17   6 C        2.989     0.017    27.614     8.620
    18   6 C        2.982     0.017    27.620     8.621
    19   6 C        2.917    -0.031    28.761     8.794
    20   6 C        2.917    -0.028    28.696     8.784
    21   6 C        2.915    -0.029    28.715     8.787
    22   6 C        2.922    -0.032    28.808     8.802
    23   7 N        2.773    -0.129    23.792     7.244
    24   6 C        2.758     0.274    22.374     7.746
    25   6 C        2.977    -0.020    28.500     8.757
    26   6 C        2.925    -0.027    28.674     8.781
    27   6 C        3.050    -0.030    28.696     8.786
    28   6 C        2.958     0.059    26.668     8.470
    29  53 I        1.225    -0.120   380.831    33.688
    30   6 C        3.050    -0.032    28.753     8.794
    31   6 C        2.926    -0.024    28.612     8.772
    32   8 O        0.858    -0.405    21.777     6.257
    33   6 C        3.784     0.091    19.089     6.223
    34   6 C        2.688     0.351    21.042     7.507
    35   8 O        1.659    -0.370    20.284     6.080
    36   8 O        0.856    -0.377    21.226     6.177
    37   7 N        2.766    -0.132    23.851     7.253
    38   6 C        2.761     0.277    22.306     7.734
    39   6 C        2.976    -0.020    28.503     8.757
    40   6 C        2.925    -0.025    28.638     8.776
    41   6 C        3.051    -0.030    28.689     8.784
    42   6 C        2.958     0.061    26.621     8.463
    43  53 I        1.225    -0.115   380.486    33.672
    44   6 C        3.049    -0.030    28.708     8.788
    45   6 C        2.926    -0.021    28.521     8.758
    46   8 O        0.858    -0.390    21.486     6.215
    47   1 H        0.926     0.036     2.503     2.474
    48   1 H        0.926     0.033     2.543     2.494
    49   1 H        0.926     0.029     2.607     2.525
    50   1 H        0.926     0.021     2.720     2.579
    51   1 H        0.926     0.038     2.475     2.460
    52   1 H        0.926     0.037     2.488     2.466
    53   1 H        0.926     0.038     2.469     2.457
    54   1 H        0.923     0.072     2.060     2.245
    55   1 H        0.924     0.053     2.281     2.362
    56   1 H        0.926     0.042     2.425     2.435
    57   1 H        0.926     0.036     2.504     2.475
    58   1 H        0.926     0.037     2.488     2.466
    59   1 H        0.926     0.029     2.600     2.522
    60   1 H        0.926     0.033     2.540     2.492
    61   1 H        0.926     0.033     2.538     2.491
    62   1 H        0.926     0.035     2.517     2.481
    63   1 H        0.926     0.042     2.419     2.432
    64   1 H        0.926     0.059     2.211     2.325
    65   1 H        0.926     0.058     2.216     2.328
    66   1 H        0.926     0.054     2.275     2.359
    67   1 H        0.924     0.059     2.209     2.324
    68   1 H        0.804     0.348     0.592     1.209
    69   1 H        0.926     0.043     2.415     2.430
    70   1 H        0.926     0.059     2.209     2.324
    71   1 H        0.926     0.061     2.188     2.313
    72   1 H        0.926     0.058     2.220     2.330

 Mol. C6AA /au·bohr⁶  :      92410.482783
 Mol. C8AA /au·bohr⁸  :    2892551.813649
 Mol. α(0) /au        :        489.888193


Wiberg/Mayer (AO) data.
largest (>0.10) Wiberg bond orders for each atom

 ---------------------------------------------------------------------------
     #   Z sym  total        # sym  WBO       # sym  WBO       # sym  WBO
 ---------------------------------------------------------------------------
     1   6 C    3.991 --     2 C    1.555     6 C    1.282    47 H    0.968
                             4 C    0.118
     2   6 C    3.992 --     1 C    1.555     3 C    1.325    48 H    0.971
     3   6 C    3.992 --     4 C    1.552     2 C    1.325    49 H    0.971
     4   6 C    3.993 --     3 C    1.552     5 C    1.288    50 H    0.966
                             1 C    0.118
     5   6 C    3.989 --     4 C    1.288     6 C    1.258    10 C    1.241
     6   6 C    3.990 --     1 C    1.282     7 C    1.272     5 C    1.258
     7   6 C    3.991 --     8 C    1.562     6 C    1.272    51 H    0.968
                            10 C    0.114
     8   6 C    3.992 --     7 C    1.562     9 C    1.317    52 H    0.970
     9   6 C    3.989 --    10 C    1.533     8 C    1.317    53 H    0.962
    10   6 C    3.982 --     9 C    1.533     5 C    1.241    11 C    0.996
                             7 C    0.114
    11   6 C    3.953 --    10 C    0.996    12 C    0.959    37 N    0.942
                            54 H    0.936
    12   6 C    3.956 --    13 C    0.994    11 C    0.959    55 H    0.946
                            23 N    0.939
    13   6 C    3.983 --    14 C    1.519    18 C    1.254    12 C    0.994
                            16 C    0.115
    14   6 C    3.990 --    13 C    1.519    15 C    1.330    56 H    0.962
    15   6 C    3.992 --    16 C    1.550    14 C    1.330    57 H    0.970
    16   6 C    3.990 --    15 C    1.550    17 C    1.281    58 H    0.968
                            13 C    0.115
    17   6 C    3.990 --    16 C    1.281    22 C    1.279    18 C    1.251
    18   6 C    3.988 --    19 C    1.282    13 C    1.254    17 C    1.251
    19   6 C    3.992 --    20 C    1.554    18 C    1.282    59 H    0.959
                            22 C    0.118
    20   6 C    3.990 --    19 C    1.554    21 C    1.322    60 H    0.971
    21   6 C    3.992 --    22 C    1.558    20 C    1.322    61 H    0.971
    22   6 C    3.991 --    21 C    1.558    17 C    1.279    62 H    0.968
                            19 C    0.118
    23   7 N    3.459 --    24 C    1.216    33 C    0.970    12 C    0.939
                            32 O    0.198
    24   6 C    3.949 --    32 O    1.706    23 N    1.216    25 C    0.947
    25   6 C    3.987 --    26 C    1.406    31 C    1.405    24 C    0.947
                            28 C    0.101
    26   6 C    3.991 --    27 C    1.440    25 C    1.406    63 H    0.967
                            30 C    0.109
    27   6 C    3.990 --    26 C    1.440    28 C    1.420    64 H    0.968
                            31 C    0.109
    28   6 C    3.955 --    30 C    1.422    27 C    1.420    29 I    0.974
                            25 C    0.101
    29  53 I    1.091 --    28 C    0.974
    30   6 C    3.989 --    31 C    1.437    28 C    1.422    65 H    0.967
                            26 C    0.109
    31   6 C    3.990 --    30 C    1.437    25 C    1.405    66 H    0.967
                            27 C    0.109
    32   8 O    2.039 --    24 C    1.706    23 N    0.198
    33   6 C    3.973 --    37 N    0.987    23 N    0.970    67 H    0.947
                            34 C    0.915
    34   6 C    3.919 --    36 O    1.780    35 O    1.152    33 C    0.915
    35   8 O    2.214 --    34 C    1.152    68 H    0.852    36 O    0.183
    36   8 O    2.070 --    34 C    1.780    35 O    0.183
    37   7 N    3.422 --    38 C    1.167    33 C    0.987    11 C    0.942
                            46 O    0.179
    38   6 C    3.944 --    46 O    1.728    37 N    1.167    39 C    0.967
    39   6 C    3.986 --    45 C    1.400    40 C    1.393    38 C    0.967
    40   6 C    3.991 --    41 C    1.445    39 C    1.393    69 H    0.967
                            44 C    0.108
    41   6 C    3.990 --    40 C    1.445    42 C    1.417    70 H    0.967
                            45 C    0.108
    42   6 C    3.956 --    44 C    1.420    41 C    1.417    43 I    0.978
    43  53 I    1.096 --    42 C    0.978
    44   6 C    3.989 --    45 C    1.441    42 C    1.420    71 H    0.967
                            40 C    0.108
    45   6 C    3.989 --    44 C    1.441    39 C    1.400    72 H    0.966
                            41 C    0.108
    46   8 O    2.058 --    38 C    1.728    37 N    0.179
    47   1 H    0.998 --     1 C    0.968
    48   1 H    0.998 --     2 C    0.971
    49   1 H    0.999 --     3 C    0.971
    50   1 H    0.999 --     4 C    0.966
    51   1 H    0.997 --     7 C    0.968
    52   1 H    0.998 --     8 C    0.970
    53   1 H    0.998 --     9 C    0.962
    54   1 H    0.994 --    11 C    0.936
    55   1 H    0.997 --    12 C    0.946
    56   1 H    0.998 --    14 C    0.962
    57   1 H    0.998 --    15 C    0.970
    58   1 H    0.998 --    16 C    0.968
    59   1 H    0.999 --    19 C    0.959
    60   1 H    0.998 --    20 C    0.971
    61   1 H    0.998 --    21 C    0.971
    62   1 H    0.998 --    22 C    0.968
    63   1 H    0.998 --    26 C    0.967
    64   1 H    0.996 --    27 C    0.968
    65   1 H    0.996 --    30 C    0.967
    66   1 H    0.997 --    31 C    0.967
    67   1 H    0.996 --    33 C    0.947
    68   1 H    0.878 --    35 O    0.852
    69   1 H    0.998 --    40 C    0.967
    70   1 H    0.996 --    41 C    0.967
    71   1 H    0.996 --    44 C    0.967
    72   1 H    0.997 --    45 C    0.966
 ---------------------------------------------------------------------------

Topologies differ in total number of bonds
Writing topology from bond orders to xtbtopo.mol

molecular dipole:
                 x           y           z       tot (Debye)
 q only:       -0.223      -0.204       0.867
   full:       -0.143      -0.750       0.932       3.062
molecular quadrupole (traceless):
                xx          xy          yy          xz          yz          zz
 q only:      -10.283      -0.152       3.342       5.527       7.116       6.941
  q+dip:       -4.253       0.761     -19.405       8.661      23.379      23.658
   full:       -1.481       0.893     -20.963       5.009      19.125      22.443

           -------------------------------------------------
          |                Geometry Summary                 |
           -------------------------------------------------

      molecular mass/u    :      828.4343936
   center of mass at/Å    :       -0.0192673       2.0193301      -0.6226423
  moments of inertia/u·Å² :        0.8707216E+04   0.1537398E+05   0.2109232E+05
rotational constants/cm⁻¹ :        0.1936053E-02   0.1096504E-02   0.7992308E-03

 * 73 selected distances

     #   Z          #   Z                                           value/Å
     1   6 C        2   6 C                                       1.3656004
     2   6 C        3   6 C                                       1.4013647
     3   6 C        4   6 C                                       1.3675470
     4   6 C        5   6 C                                       1.4115124
     1   6 C        6   6 C                                       1.4102955
     5   6 C        6   6 C                                       1.4198657
     6   6 C        7   6 C                                       1.4103851
     7   6 C        8   6 C                                       1.3633367
     8   6 C        9   6 C                                       1.4024426
     5   6 C       10   6 C                                       1.4244331
     9   6 C       10   6 C                                       1.3696701
    11   6 C       12   6 C                                       1.5425069
    13   6 C       14   6 C                                       1.3740738
    14   6 C       15   6 C                                       1.3991309
    15   6 C       16   6 C                                       1.3645840
    16   6 C       17   6 C                                       1.4090906
    13   6 C       18   6 C                                       1.4214727
    17   6 C       18   6 C                                       1.4233470
    18   6 C       19   6 C                                       1.4129823
    19   6 C       20   6 C                                       1.3670048
    20   6 C       21   6 C                                       1.4014679
    17   6 C       22   6 C                                       1.4110614
    21   6 C       22   6 C                                       1.3648256
    12   6 C       23   7 N                                       1.4682825
    23   7 N       24   6 C                                       1.3554561
    25   6 C       26   6 C                                       1.3889450
    26   6 C       27   6 C                                       1.3834561
    27   6 C       28   6 C                                       1.3832960
    28   6 C       29  53 I                                       2.1148629 (max)
    28   6 C       30   6 C                                       1.3834711
    25   6 C       31   6 C                                       1.3889669
    30   6 C       31   6 C                                       1.3838454
    24   6 C       32   8 O                                       1.2090767
    23   7 N       33   6 C                                       1.4535728
    34   6 C       35   8 O                                       1.3306618
    34   6 C       36   8 O                                       1.1984536
    11   6 C       37   7 N                                       1.4708928
    33   6 C       37   7 N                                       1.4435767
    37   7 N       38   6 C                                       1.3733898
    39   6 C       40   6 C                                       1.3908585
    40   6 C       41   6 C                                       1.3823129
    41   6 C       42   6 C                                       1.3842457
    42   6 C       43  53 I                                       2.1138524
    42   6 C       44   6 C                                       1.3839794
    39   6 C       45   6 C                                       1.3899092
    44   6 C       45   6 C                                       1.3831018
    38   6 C       46   8 O                                       1.2073737
     1   6 C       47   1 H                                       1.0807166
     2   6 C       48   1 H                                       1.0800646
     3   6 C       49   1 H                                       1.0807008
     4   6 C       50   1 H                                       1.0794257
     7   6 C       51   1 H                                       1.0804078
     8   6 C       52   1 H                                       1.0798207
     9   6 C       53   1 H                                       1.0771117
    11   6 C       54   1 H                                       1.0990121
    12   6 C       55   1 H                                       1.0939466
    14   6 C       56   1 H                                       1.0806368
    15   6 C       57   1 H                                       1.0798595
    16   6 C       58   1 H                                       1.0805086
    19   6 C       59   1 H                                       1.0793446
    20   6 C       60   1 H                                       1.0803299
    21   6 C       61   1 H                                       1.0799342
    22   6 C       62   1 H                                       1.0807544
    26   6 C       63   1 H                                       1.0804824
    27   6 C       64   1 H                                       1.0789960
    30   6 C       65   1 H                                       1.0792492
    31   6 C       66   1 H                                       1.0797607
    33   6 C       67   1 H                                       1.0969979
    35   8 O       68   1 H                                       0.9728164 (min)
    40   6 C       69   1 H                                       1.0793893
    41   6 C       70   1 H                                       1.0788954
    44   6 C       71   1 H                                       1.0790540
    45   6 C       72   1 H                                       1.0794698

 * 6 distinct bonds (by element types)

   Z      Z             #   av. dist./Å        max./Å        min./Å
   1 H    6 C          25     1.0817948     1.0990121     1.0771117
   6 C    6 C          35     1.3961254     1.5425069     1.3633367
   6 C    7 N           6     1.4275284     1.4708928     1.3554561
   1 H    8 O           1     0.9728164     0.9728164     0.9728164
   6 C    8 O           4     1.2363914     1.3306618     1.1984536
   6 C   53 I           2     2.1143576     2.1148629     2.1138524


optimized geometry written to: xtbopt.xyz


           -------------------------------------------------
          | TOTAL ENERGY             -124.404821914828 Eh   |
          | GRADIENT NORM               0.000502724955 Eh/α |
          | HOMO-LUMO GAP               2.456802512469 eV   |
           -------------------------------------------------

------------------------------------------------------------------------
 * finished run on 2022/03/16 at 21:45:19.220     
------------------------------------------------------------------------
 total:
 * wall-time:     0 d,  0 h,  0 min, 30.569 sec
 *  cpu-time:     0 d,  0 h,  9 min, 45.356 sec
 * ratio c/w:    19.148 speedup
 SCF:
 * wall-time:     0 d,  0 h,  0 min,  0.700 sec
 *  cpu-time:     0 d,  0 h,  0 min,  9.341 sec
 * ratio c/w:    13.348 speedup
 ANC optimizer:
 * wall-time:     0 d,  0 h,  0 min, 29.704 sec
 *  cpu-time:     0 d,  0 h,  9 min, 31.681 sec
 * ratio c/w:    19.246 speedup

