      -----------------------------------------------------------      
     |                   =====================                   |     
     |                           x T B                           |     
     |                   =====================                   |     
     |                         S. Grimme                         |     
     |          Mulliken Center for Theoretical Chemistry        |     
     |                    University of Bonn                     |     
      -----------------------------------------------------------      

   * xtb version 6.3.3 (4ae9cef) compiled by 'conda@95abc7406d43' on 2020-10-14

   xtb is free software: you can redistribute it and/or modify it under
   the terms of the GNU Lesser General Public License as published by
   the Free Software Foundation, either version 3 of the License, or
   (at your option) any later version.
   
   xtb is distributed in the hope that it will be useful,
   but WITHOUT ANY WARRANTY; without even the implied warranty of
   MERCHANTABILITY or FITNESS FOR A PARTICULAR PURPOSE.  See the
   GNU Lesser General Public License for more details.
   
   Cite this work as:
   * C. Bannwarth, E. Caldeweyher, S. Ehlert, A. Hansen, P. Pracht,
     J. Seibert, S. Spicher, S. Grimme, WIREs Comput. Mol. Sci., 2020,
     e01493. DOI: 10.1002/wcms.1493
   
   for GFN2-xTB:
   * S. Grimme, C. Bannwarth, P. Shushkov, J. Chem. Theory Comput., 2017,
     13, 1989-2009. DOI: 10.1021/acs.jctc.7b00118
   for GFN1-xTB:
   * C. Bannwarth, S. Ehlert and S. Grimme., J. Chem. Theory Comput., 2019,
     15, 1652-1671. DOI: 10.1021/acs.jctc.8b01176
   for GFN0-xTB:
   * P. Pracht, E. Caldeweyher, S. Ehlert, S. Grimme, ChemRxiv, 2019, preprint.
     DOI: 10.26434/chemrxiv.8326202.v1
   for GFN-FF:
   * S. Spicher and S. Grimme, Angew. Chem. Int. Ed., 2020, 59, 15665-15673.
     DOI: 10.1002/anie.202004239
   
   for DFT-D4:
   * E. Caldeweyher, C. Bannwarth and S. Grimme, J. Chem. Phys., 2017,
     147, 034112. DOI: 10.1063/1.4993215
   * E. Caldeweyher, S. Ehlert, A. Hansen, H. Neugebauer, S. Spicher,
     C. Bannwarth and S. Grimme, J. Chem. Phys., 2019, 150, 154122.
     DOI: 10.1063/1.5090222
   * E. Caldeweyher, J.-M. Mewes, S. Ehlert and S. Grimme, Phys. Chem. Chem. Phys.
     2020, 22, 8499-8512. DOI: 10.1039/D0CP00502A
   
   for sTDA-xTB:
   * S. Grimme and C. Bannwarth, J. Chem. Phys., 2016, 145, 054103.
     DOI: 10.1063/1.4959605
   
   in the mass-spec context:
   * V. Asgeirsson, C. Bauer and S. Grimme, Chem. Sci., 2017, 8, 4879.
     DOI: 10.1039/c7sc00601b
   * J. Koopman and S. Grimme, ACS Omega 2019, 4, 12, 15120-15133.
     DOI: 10.1021/acsomega.9b02011
   
   for metadynamics refer to:
   * S. Grimme, J. Chem. Theory Comput., 2019, 155, 2847-2862
     DOI: 10.1021/acs.jctc.9b00143
   
   with help from (in alphabetical order)
   C. Bannwarth, F. Bohle, G. Brandenburg, E. Caldeweyher, M. Checinski,
   S. Dohm, S. Ehlert, S. Ehrlich, F. März, H. Neugebauer, J. Pisarek,
   P. Pracht, P. Shushkov, and S. Spicher.
   
 * started run on 2022/03/17 at 02:19:54.041     

           -------------------------------------------------
          |                Calculation Setup                |
           -------------------------------------------------

          program call               : xtb sub_0.xyz --opt --chrg 0 --uhf 0 --gfn 2
          coordinate file            : sub_0.xyz
          omp threads                :                    64
          number of atoms            :                    25
          number of electrons        :                    72
          charge                     :                     0
          spin                       :                   0.0
          first test random number   :      0.89088216715221

   ID    Z sym.   atoms
    1    6 C      1-4, 6, 8-15
    2    7 N      5, 7
    3    1 H      16-25

           -------------------------------------------------
          |                 G F N 2 - x T B                 |
           -------------------------------------------------

        Reference                      10.1021/acs.jctc.8b01176
      * Hamiltonian:
        H0-scaling (s, p, d)           1.850000    2.230000    2.230000
        zeta-weighting                 0.500000
      * Dispersion:
        s8                             2.700000
        a1                             0.520000
        a2                             5.000000
        s9                             5.000000
      * Repulsion:
        kExp                           1.500000    1.000000
        rExp                           1.000000
      * Coulomb:
        alpha                          2.000000
        third order                    shell-resolved
        anisotropic                    true
        a3                             3.000000
        a5                             4.000000
        cn-shift                       1.200000
        cn-exp                         4.000000
        max-rad                        5.000000


          ...................................................
          :                      SETUP                      :
          :.................................................:
          :  # basis functions                  70          :
          :  # atomic orbitals                  70          :
          :  # shells                           40          :
          :  # electrons                        72          :
          :  max. iterations                   250          :
          :  Hamiltonian                  GFN2-xTB          :
          :  restarted?                      false          :
          :  GBSA solvation                  false          :
          :  PC potential                    false          :
          :  electronic temp.          300.0000000     K    :
          :  accuracy                    1.0000000          :
          :  -> integral cutoff          0.2500000E+02      :
          :  -> integral neglect         0.1000000E-07      :
          :  -> SCF convergence          0.1000000E-05 Eh   :
          :  -> wf. convergence          0.1000000E-03 e    :
          :  Broyden damping             0.4000000          :
          ...................................................

 iter      E             dE          RMSdq      gap      omega  full diag
   1    -39.3853087 -0.393853E+02  0.412E+00    3.04       0.0  T
   2    -39.4239420 -0.386333E-01  0.264E+00    2.81       1.0  T
   3    -39.4111931  0.127489E-01  0.123E+00    2.97       1.0  T
   4    -39.4277101 -0.165169E-01  0.471E-01    2.70       1.0  T
   5    -39.4323729 -0.466286E-02  0.116E-01    2.76       1.0  T
   6    -39.4325308 -0.157912E-03  0.526E-02    2.76       1.0  T
   7    -39.4325767 -0.458543E-04  0.194E-02    2.76       1.0  T
   8    -39.4325765  0.224517E-06  0.823E-03    2.76       2.4  T
   9    -39.4325775 -0.996459E-06  0.183E-03    2.76      10.9  T
  10    -39.4325775 -0.668134E-07  0.805E-04    2.76      24.8  T
  11    -39.4325775 -0.190065E-08  0.363E-04    2.76      55.0  T

   *** convergence criteria satisfied after 11 iterations ***

         #    Occupation            Energy/Eh            Energy/eV
      -------------------------------------------------------------
         1        2.0000           -0.6706683             -18.2498
       ...           ...                  ...                  ...
        30        2.0000           -0.4300974             -11.7035
        31        2.0000           -0.4288806             -11.6704
        32        2.0000           -0.4171992             -11.3526
        33        2.0000           -0.4107117             -11.1760
        34        2.0000           -0.3839202             -10.4470
        35        2.0000           -0.3798959             -10.3375
        36        2.0000           -0.3640385              -9.9060 (HOMO)
        37                         -0.2624446              -7.1415 (LUMO)
        38                         -0.2474758              -6.7342
        39                         -0.2331994              -6.3457
        40                         -0.1960815              -5.3356
        41                         -0.1614041              -4.3920
       ...                                ...                  ...
        70                          0.7052545              19.1910
      -------------------------------------------------------------
                  HL-Gap            0.1015939 Eh            2.7645 eV
             Fermi-level           -0.3132415 Eh           -8.5237 eV

 SCC (total)                   0 d,  0 h,  0 min,  0.228 sec
 SCC setup                      ...        0 min,  0.015 sec (  6.484%)
 Dispersion                     ...        0 min,  0.020 sec (  8.827%)
 classical contributions        ...        0 min,  0.012 sec (  5.235%)
 integral evaluation            ...        0 min,  0.029 sec ( 12.781%)
 iterations                     ...        0 min,  0.016 sec (  6.828%)
 molecular gradient             ...        0 min,  0.136 sec ( 59.731%)
 printout                       ...        0 min,  0.000 sec (  0.084%)

         :::::::::::::::::::::::::::::::::::::::::::::::::::::
         ::                     SUMMARY                     ::
         :::::::::::::::::::::::::::::::::::::::::::::::::::::
         :: total energy             -38.776470454960 Eh    ::
         :: gradient norm              0.074290379775 Eh/a0 ::
         :: HOMO-LUMO gap              2.764510800689 eV    ::
         ::.................................................::
         :: SCC energy               -39.432577525440 Eh    ::
         :: -> isotropic ES            0.011144511826 Eh    ::
         :: -> anisotropic ES          0.004411408539 Eh    ::
         :: -> anisotropic XC          0.028460434722 Eh    ::
         :: -> dispersion             -0.026475068462 Eh    ::
         :: repulsion energy           0.656137348205 Eh    ::
         :: add. restraining           0.000000000000 Eh    ::
         :: total charge               0.000000000000 e     ::
         :::::::::::::::::::::::::::::::::::::::::::::::::::::

      ----------------------------------------------------------- 
     |                   =====================                   |
     |                        A N C O P T                        |
     |                   =====================                   |
     |               Approximate Normal Coordinate               |
     |                Rational Function Optimizer                |
      ----------------------------------------------------------- 

          ...................................................
          :                      SETUP                      :
          :.................................................:
          :   optimization level            normal          :
          :   max. optcycles                   200          :
          :   ANC micro-cycles                  20          :
          :   degrees of freedom                69          :
          :.................................................:
          :   RF solver                   davidson          :
          :   write xtbopt.log                true          :
          :   linear?                        false          :
          :   energy convergence         0.5000000E-05 Eh   :
          :   grad. convergence          0.1000000E-02 Eh/α :
          :   maximium RF displ.         1.0000000          :
          :   Hlow (freq-cutoff)         0.1000000E-01      :
          :   Hmax (freq-cutoff)         5.0000000          :
          :   S6 in model hess.         20.0000000          :
          ...................................................

generating ANC from model Hessian ...
Using Lindh-Hessian (1995)
 Shifting diagonal of input Hessian by    8.4935655395029057E-003
 Lowest  eigenvalues of input Hessian
    0.000000    0.000000    0.000000    0.000000    0.000000    0.000000
    0.010000    0.010290    0.011285    0.015341    0.017347    0.021727
    0.025962    0.028215    0.029255    0.030600    0.032640    0.039727
 Highest eigenvalues
    1.925368    1.947180    1.975205    2.016022    2.083821    2.114770


........................................................................
.............................. CYCLE    1 ..............................
........................................................................
   1    -39.4325775 -0.394326E+02  0.140E-04    2.76       0.0  T
   2    -39.4325775 -0.142684E-09  0.762E-05    2.76     262.4  T
   3    -39.4325775 -0.441176E-10  0.476E-05    2.76     420.5  T
     SCC iter.                  ...        0 min,  0.005 sec
     gradient                   ...        0 min,  0.135 sec
 * total energy  :   -38.7764705 Eh     change       -0.1999297E-08 Eh
   gradient norm :     0.0742917 Eh/α   predicted     0.0000000E+00 (-100.00%)
   displ. norm   :     0.3122326 α      lambda       -0.9765127E-02
   maximum displ.:     0.2098352 α      in ANC's #11, #12, #35, ...

........................................................................
.............................. CYCLE    2 ..............................
........................................................................
   1    -39.4702016 -0.394702E+02  0.191E-01    2.92       0.0  T
   2    -39.4702910 -0.893815E-04  0.134E-01    2.93       1.0  T
   3    -39.4703020 -0.110220E-04  0.688E-02    2.93       1.0  T
   4    -39.4703558 -0.537325E-04  0.158E-02    2.93       1.3  T
   5    -39.4703603 -0.450962E-05  0.546E-03    2.94       3.7  T
   6    -39.4703606 -0.283142E-06  0.262E-03    2.94       7.6  T
   7    -39.4703606 -0.435126E-07  0.762E-04    2.94      26.3  T
   8    -39.4703606 -0.621989E-08  0.231E-04    2.94      86.7  T
     SCC iter.                  ...        0 min,  0.019 sec
     gradient                   ...        0 min,  0.139 sec
 * total energy  :   -38.7830875 Eh     change       -0.6617046E-02 Eh
   gradient norm :     0.0291257 Eh/α   predicted    -0.5358600E-02 ( -19.02%)
   displ. norm   :     0.2364723 α      lambda       -0.2396442E-02
   maximum displ.:     0.1752537 α      in ANC's #11, #12, #1, ...

........................................................................
.............................. CYCLE    3 ..............................
........................................................................
   1    -39.4879108 -0.394879E+02  0.119E-01    3.02       0.0  T
   2    -39.4879667 -0.558863E-04  0.895E-02    3.03       1.0  T
   3    -39.4879928 -0.260831E-04  0.455E-02    3.04       1.0  T
   4    -39.4880035 -0.107285E-04  0.128E-02    3.04       1.6  T
   5    -39.4880061 -0.262646E-05  0.421E-03    3.04       4.8  T
   6    -39.4880064 -0.213116E-06  0.187E-03    3.04      10.7  T
   7    -39.4880064 -0.199119E-07  0.537E-04    3.04      37.2  T
   8    -39.4880064 -0.300825E-08  0.157E-04    3.04     127.0  T
     SCC iter.                  ...        0 min,  0.017 sec
     gradient                   ...        0 min,  0.139 sec
 * total energy  :   -38.7843665 Eh     change       -0.1279037E-02 Eh
   gradient norm :     0.0063222 Eh/α   predicted    -0.1265228E-02 (  -1.08%)
   displ. norm   :     0.0997080 α      lambda       -0.1751423E-03
   maximum displ.:     0.0651919 α      in ANC's #1, #3, #5, ...

........................................................................
.............................. CYCLE    4 ..............................
........................................................................
   1    -39.4871832 -0.394872E+02  0.484E-02    3.04       0.0  T
   2    -39.4871845 -0.131414E-05  0.290E-02    3.04       1.0  T
   3    -39.4871826  0.183033E-05  0.896E-03    3.04       2.2  T
   4    -39.4871847 -0.209235E-05  0.221E-03    3.04       9.0  T
   5    -39.4871849 -0.108695E-06  0.715E-04    3.04      28.0  T
   6    -39.4871849 -0.407174E-08  0.362E-04    3.04      55.2  T
     SCC iter.                  ...        0 min,  0.014 sec
     gradient                   ...        0 min,  0.141 sec
 * total energy  :   -38.7844988 Eh     change       -0.1322226E-03 Eh
   gradient norm :     0.0032073 Eh/α   predicted    -0.8845901E-04 ( -33.10%)
   displ. norm   :     0.1518235 α      lambda       -0.1505337E-03
   maximum displ.:     0.1087544 α      in ANC's #1, #3, #5, ...

........................................................................
.............................. CYCLE    5 ..............................
........................................................................
   1    -39.4856839 -0.394857E+02  0.677E-02    3.03       0.0  T
   2    -39.4856850 -0.115863E-05  0.398E-02    3.03       1.0  T
   3    -39.4856835  0.150624E-05  0.939E-03    3.03       2.1  T
   4    -39.4856855 -0.192814E-05  0.155E-03    3.03      12.9  T
   5    -39.4856855 -0.138351E-07  0.780E-04    3.03      25.6  T
   6    -39.4856855 -0.145618E-08  0.323E-04    3.03      61.9  T
     SCC iter.                  ...        0 min,  0.009 sec
     gradient                   ...        0 min,  0.130 sec
 * total energy  :   -38.7846012 Eh     change       -0.1024329E-03 Eh
   gradient norm :     0.0031188 Eh/α   predicted    -0.7700238E-04 ( -24.83%)
   displ. norm   :     0.1075540 α      lambda       -0.6286724E-04
   maximum displ.:     0.0852709 α      in ANC's #1, #3, #4, ...

........................................................................
.............................. CYCLE    6 ..............................
........................................................................
   1    -39.4855203 -0.394855E+02  0.470E-02    3.03       0.0  T
   2    -39.4855208 -0.489102E-06  0.274E-02    3.03       1.0  T
   3    -39.4855200  0.816246E-06  0.636E-03    3.03       3.1  T
   4    -39.4855210 -0.100339E-05  0.108E-03    3.03      18.4  T
   5    -39.4855210 -0.863388E-08  0.544E-04    3.03      36.7  T
   6    -39.4855210 -0.235429E-08  0.250E-04    3.03      79.9  T
     SCC iter.                  ...        0 min,  0.021 sec
     gradient                   ...        0 min,  0.147 sec
 * total energy  :   -38.7846535 Eh     change       -0.5231074E-04 Eh
   gradient norm :     0.0032412 Eh/α   predicted    -0.3180895E-04 ( -39.19%)
   displ. norm   :     0.1046017 α      lambda       -0.6043044E-04
   maximum displ.:     0.0858086 α      in ANC's #1, #3, #4, ...

........................................................................
.............................. CYCLE    7 ..............................
........................................................................
   1    -39.4859959 -0.394860E+02  0.458E-02    3.03       0.0  T
   2    -39.4859966 -0.730797E-06  0.266E-02    3.03       1.0  T
   3    -39.4859960  0.686137E-06  0.581E-03    3.02       3.4  T
   4    -39.4859968 -0.822789E-06  0.145E-03    3.02      13.8  T
   5    -39.4859968 -0.404751E-07  0.528E-04    3.02      37.9  T
   6    -39.4859968 -0.142393E-08  0.294E-04    3.02      68.0  T
     SCC iter.                  ...        0 min,  0.017 sec
     gradient                   ...        0 min,  0.142 sec
 * total energy  :   -38.7847044 Eh     change       -0.5091921E-04 Eh
   gradient norm :     0.0021004 Eh/α   predicted    -0.3054849E-04 ( -40.01%)
   displ. norm   :     0.1015822 α      lambda       -0.4888133E-04
   maximum displ.:     0.0883316 α      in ANC's #1, #3, #4, ...

........................................................................
.............................. CYCLE    8 ..............................
........................................................................
   1    -39.4865493 -0.394865E+02  0.453E-02    3.03       0.0  T
   2    -39.4865499 -0.579093E-06  0.263E-02    3.02       1.0  T
   3    -39.4865497  0.190245E-06  0.367E-03    3.02       5.5  T
   4    -39.4865500 -0.272003E-06  0.120E-03    3.02      16.7  T
   5    -39.4865500 -0.259378E-07  0.448E-04    3.02      44.6  T
   6    -39.4865500 -0.275158E-09  0.230E-04    3.02      86.9  T
     SCC iter.                  ...        0 min,  0.012 sec
     gradient                   ...        0 min,  0.138 sec
 * total energy  :   -38.7847447 Eh     change       -0.4028251E-04 Eh
   gradient norm :     0.0011286 Eh/α   predicted    -0.2469426E-04 ( -38.70%)
   displ. norm   :     0.1112866 α      lambda       -0.2845473E-04
   maximum displ.:     0.1036965 α      in ANC's #1, #3, #4, ...

........................................................................
.............................. CYCLE    9 ..............................
........................................................................
   1    -39.4869333 -0.394869E+02  0.489E-02    3.02       0.0  T
   2    -39.4869337 -0.402201E-06  0.284E-02    3.02       1.0  T
   3    -39.4869336  0.107112E-06  0.311E-03    3.02       6.4  T
   4    -39.4869338 -0.194242E-06  0.111E-03    3.02      18.1  T
   5    -39.4869338 -0.169273E-07  0.499E-04    3.02      40.1  T
   6    -39.4869338 -0.151584E-08  0.211E-04    3.02      94.6  T
     SCC iter.                  ...        0 min,  0.010 sec
     gradient                   ...        0 min,  0.147 sec
 * total energy  :   -38.7847794 Eh     change       -0.3469827E-04 Eh
   gradient norm :     0.0012930 Eh/α   predicted    -0.1430689E-04 ( -58.77%)
   displ. norm   :     0.0623377 α      lambda       -0.1526458E-04
   maximum displ.:     0.0612517 α      in ANC's #1, #2, #5, ...

........................................................................
.............................. CYCLE   10 ..............................
........................................................................
   1    -39.4869998 -0.394870E+02  0.262E-02    3.02       0.0  T
   2    -39.4869998 -0.776284E-07  0.153E-02    3.02       1.3  T
   3    -39.4869996  0.190519E-06  0.278E-03    3.02       7.2  T
   4    -39.4869999 -0.230197E-06  0.508E-04    3.02      39.4  T
   5    -39.4869999 -0.184126E-08  0.264E-04    3.02      75.9  T
     SCC iter.                  ...        0 min,  0.016 sec
     gradient                   ...        0 min,  0.141 sec
 * total energy  :   -38.7848004 Eh     change       -0.2094995E-04 Eh
   gradient norm :     0.0010448 Eh/α   predicted    -0.7646550E-05 ( -63.50%)
   displ. norm   :     0.0588450 α      lambda       -0.1446695E-04
   maximum displ.:     0.0529139 α      in ANC's #1, #3, #2, ...

........................................................................
.............................. CYCLE   11 ..............................
........................................................................
   1    -39.4868874 -0.394869E+02  0.239E-02    3.02       0.0  T
   2    -39.4868874 -0.700657E-07  0.140E-02    3.02       1.4  T
   3    -39.4868873  0.145407E-06  0.239E-03    3.02       8.4  T
   4    -39.4868875 -0.175602E-06  0.480E-04    3.02      41.7  T
   5    -39.4868875 -0.307652E-08  0.230E-04    3.02      86.8  T
     SCC iter.                  ...        0 min,  0.020 sec
     gradient                   ...        0 min,  0.122 sec
 * total energy  :   -38.7848197 Eh     change       -0.1936969E-04 Eh
   gradient norm :     0.0006430 Eh/α   predicted    -0.7245005E-05 ( -62.60%)
   displ. norm   :     0.0692142 α      lambda       -0.1464383E-04
   maximum displ.:     0.0583060 α      in ANC's #1, #3, #4, ...

........................................................................
.............................. CYCLE   12 ..............................
........................................................................
   1    -39.4867637 -0.394868E+02  0.284E-02    3.02       0.0  T
   2    -39.4867637 -0.543023E-07  0.167E-02    3.02       1.2  T
   3    -39.4867637  0.473591E-07  0.156E-03    3.02      12.8  T
   4    -39.4867638 -0.699884E-07  0.471E-04    3.02      42.4  T
   5    -39.4867638 -0.208986E-08  0.238E-04    3.02      83.9  T
     SCC iter.                  ...        0 min,  0.012 sec
     gradient                   ...        0 min,  0.122 sec
 * total energy  :   -38.7848385 Eh     change       -0.1879747E-04 Eh
   gradient norm :     0.0005463 Eh/α   predicted    -0.7337889E-05 ( -60.96%)
   displ. norm   :     0.0703050 α      lambda       -0.1181956E-04
   maximum displ.:     0.0593502 α      in ANC's #1, #3, #6, ...

........................................................................
.............................. CYCLE   13 ..............................
........................................................................
   1    -39.4867003 -0.394867E+02  0.276E-02    3.02       0.0  T
   2    -39.4867004 -0.568341E-07  0.161E-02    3.02       1.2  T
   3    -39.4867004  0.423040E-07  0.164E-03    3.02      12.2  T
   4    -39.4867004 -0.684028E-07  0.425E-04    3.02      47.1  T
   5    -39.4867004 -0.850669E-09  0.215E-04    3.02      92.8  T
     SCC iter.                  ...        0 min,  0.008 sec
     gradient                   ...        0 min,  0.142 sec
 * total energy  :   -38.7848539 Eh     change       -0.1534604E-04 Eh
   gradient norm :     0.0005345 Eh/α   predicted    -0.5924327E-05 ( -61.40%)
   displ. norm   :     0.0596652 α      lambda       -0.8199733E-05
   maximum displ.:     0.0526536 α      in ANC's #1, #3, #5, ...

........................................................................
.............................. CYCLE   14 ..............................
........................................................................
   1    -39.4867338 -0.394867E+02  0.229E-02    3.02       0.0  T
   2    -39.4867338 -0.559169E-07  0.134E-02    3.02       1.5  T
   3    -39.4867338  0.409786E-07  0.160E-03    3.02      12.5  T
   4    -39.4867339 -0.607822E-07  0.416E-04    3.02      48.1  T
   5    -39.4867339 -0.140806E-08  0.196E-04    3.02     102.1  T
     SCC iter.                  ...        0 min,  0.011 sec
     gradient                   ...        0 min,  0.128 sec
 * total energy  :   -38.7848648 Eh     change       -0.1096184E-04 Eh
   gradient norm :     0.0004600 Eh/α   predicted    -0.4108153E-05 ( -62.52%)
   displ. norm   :     0.0472366 α      lambda       -0.5892322E-05
   maximum displ.:     0.0437376 α      in ANC's #1, #3, #2, ...

........................................................................
.............................. CYCLE   15 ..............................
........................................................................
   1    -39.4867823 -0.394868E+02  0.187E-02    3.02       0.0  T
   2    -39.4867824 -0.543570E-07  0.109E-02    3.01       1.8  T
   3    -39.4867824  0.378705E-07  0.158E-03    3.01      12.6  T
   4    -39.4867824 -0.536828E-07  0.391E-04    3.01      51.1  T
   5    -39.4867824 -0.137663E-08  0.176E-04    3.01     113.7  T
     SCC iter.                  ...        0 min,  0.008 sec
     gradient                   ...        0 min,  0.144 sec
 * total energy  :   -38.7848729 Eh     change       -0.8113231E-05 Eh
   gradient norm :     0.0003712 Eh/α   predicted    -0.2953334E-05 ( -63.60%)
   displ. norm   :     0.0417364 α      lambda       -0.4993132E-05
   maximum displ.:     0.0388642 α      in ANC's #1, #2, #4, ...

........................................................................
.............................. CYCLE   16 ..............................
........................................................................
   1    -39.4868182 -0.394868E+02  0.178E-02    3.01       0.0  T
   2    -39.4868182 -0.584527E-07  0.104E-02    3.01       1.9  T
   3    -39.4868182  0.319203E-07  0.152E-03    3.01      13.1  T
   4    -39.4868182 -0.476707E-07  0.404E-04    3.01      49.5  T
   5    -39.4868182 -0.145403E-08  0.173E-04    3.01     115.4  T
     SCC iter.                  ...        0 min,  0.009 sec
     gradient                   ...        0 min,  0.149 sec
 * total energy  :   -38.7848798 Eh     change       -0.6860132E-05 Eh
   gradient norm :     0.0003039 Eh/α   predicted    -0.2502695E-05 ( -63.52%)
   displ. norm   :     0.0410917 α      lambda       -0.3658820E-05
   maximum displ.:     0.0381714 α      in ANC's #1, #2, #4, ...

........................................................................
.............................. CYCLE   17 ..............................
........................................................................
   1    -39.4868372 -0.394868E+02  0.175E-02    3.01       0.0  T
   2    -39.4868372 -0.570924E-07  0.102E-02    3.01       2.0  T
   3    -39.4868372  0.314284E-07  0.151E-03    3.01      13.2  T
   4    -39.4868373 -0.468883E-07  0.397E-04    3.01      50.4  T
   5    -39.4868373 -0.137579E-08  0.169E-04    3.01     118.4  T
     SCC iter.                  ...        0 min,  0.012 sec
     gradient                   ...        0 min,  0.022 sec
 * total energy  :   -38.7848853 Eh     change       -0.5473854E-05 Eh
   gradient norm :     0.0004357 Eh/α   predicted    -0.1831845E-05 ( -66.53%)
   displ. norm   :     0.0381050 α      lambda       -0.4089728E-05
   maximum displ.:     0.0344667 α      in ANC's #1, #2, #4, ...

........................................................................
.............................. CYCLE   18 ..............................
........................................................................
   1    -39.4869045 -0.394869E+02  0.178E-02    3.01       0.0  T
   2    -39.4869046 -0.541246E-07  0.104E-02    3.01       1.9  T
   3    -39.4869045  0.371908E-07  0.153E-03    3.01      13.1  T
   4    -39.4869046 -0.523320E-07  0.420E-04    3.01      47.6  T
   5    -39.4869046 -0.173778E-08  0.191E-04    3.01     104.9  T
     SCC iter.                  ...        0 min,  0.007 sec
     gradient                   ...        0 min,  0.124 sec
 * total energy  :   -38.7848906 Eh     change       -0.5330073E-05 Eh
   gradient norm :     0.0002736 Eh/α   predicted    -0.2049245E-05 ( -61.55%)
   displ. norm   :     0.0386782 α      lambda       -0.2427898E-05
   maximum displ.:     0.0350997 α      in ANC's #1, #2, #4, ...

........................................................................
.............................. CYCLE   19 ..............................
........................................................................
   1    -39.4869378 -0.394869E+02  0.180E-02    3.01       0.0  T
   2    -39.4869378 -0.547547E-07  0.105E-02    3.01       1.9  T
   3    -39.4869378  0.414838E-07  0.160E-03    3.01      12.5  T
   4    -39.4869378 -0.574296E-07  0.421E-04    3.01      47.5  T
   5    -39.4869379 -0.167519E-08  0.194E-04    3.01     103.2  T
     SCC iter.                  ...        0 min,  0.013 sec
     gradient                   ...        0 min,  0.130 sec
 * total energy  :   -38.7848944 Eh     change       -0.3774304E-05 Eh
   gradient norm :     0.0005133 Eh/α   predicted    -0.1215658E-05 ( -67.79%)
   displ. norm   :     0.0291306 α      lambda       -0.2280602E-05
   maximum displ.:     0.0262699 α      in ANC's #1, #2, #3, ...

   *** GEOMETRY OPTIMIZATION CONVERGED AFTER 19 ITERATIONS ***

------------------------------------------------------------------------
 total energy gain   :        -0.0084239 Eh       -5.2861 kcal/mol
 total RMSD          :         0.2623953 a0        0.1389 Å
 total power (kW/mol):        -1.1640537 (step)   -5.1121 (real)
------------------------------------------------------------------------

 ANCopt (total)                0 d,  0 h,  0 min,  4.326 sec
 optimizer setup                ...        0 min,  0.000 sec (  0.001%)
 model hessian                  ...        0 min,  0.003 sec (  0.070%)
 ANC generation                 ...        0 min,  0.001 sec (  0.023%)
 coordinate transformation      ...        0 min,  0.000 sec (  0.005%)
 single point calculation       ...        0 min,  4.041 sec ( 93.399%)
 optimization log               ...        0 min,  0.016 sec (  0.363%)
 hessian update                 ...        0 min,  0.263 sec (  6.089%)
 rational function              ...        0 min,  0.001 sec (  0.027%)

================
 final structure:
================
25
 xtb: 6.3.3 (4ae9cef)
C        -1.07930786065942   -0.02503634144194   -0.12583970339792
C        -2.11446360278399   -0.73523555628622   -0.78267827534644
C        -1.48583733361665   -1.60173878975871   -1.72599709213561
C        -0.15130213537435   -1.39706086079891   -1.62528505186998
N         0.12225518465474   -0.46474819947027   -0.64597773416896
C         1.41652369348841   -0.11547252273818   -0.28887691276303
N         2.32489664367503   -0.23758471065554   -1.25267448295916
C         3.58036338955220    0.06565692729411   -0.98410696768130
C         4.01017053799138    0.51216758140991    0.25448314955629
C         3.06930265391062    0.60809860045973    1.27064785366772
C         1.75245171369442    0.28335367214893    1.00813076252998
C        -3.44588553398115   -0.49070714253605   -0.45724177084715
C        -3.72797467596972    0.46585484770821    0.49283520538021
C        -2.70603667750341    1.19701210186804    1.09802889927236
C        -1.37789803609615    0.97066601016227    0.79567751288920
H        -1.98231967371021   -2.28251037798603   -2.38835171906899
H         0.66388313848982   -1.84628012473225   -2.15680602300569
H         4.26989691039421   -0.05729403226207   -1.80925981297969
H         5.04557828733766    0.75915648374500    0.42551119653172
H         3.36268052675959    0.91916660787112    2.26295217610081
H         1.01173705703526    0.29829916901861    1.78975251075040
H        -4.23544161485731   -1.03792745753469   -0.94998777594418
H        -4.75310452943343    0.66978324881571    0.76466873691148
H        -2.95967953026406    1.96367336703804    1.81525238355535
H        -0.61048853273351    1.57870849866131    1.24861393502235

 Bond Distances (Angstroems)
 ---------------------------
C1-C2=1.4168         C1-N5=1.3812         C1-C15=1.3892        C2-C1=1.4168         C2-C3=1.4268         C2-C12=1.3923        
C3-C2=1.4268         C3-C4=1.3539         C3-H16=1.0718        C4-C3=1.3539         C4-N5=1.3795         C4-H17=1.0718        
N5-C1=1.3812         N5-C4=1.3795         N5-C6=1.3873         C6-N5=1.3873         C6-N7=1.3300         C6-C11=1.3979        
N7-C6=1.3300         N7-C8=1.3192         C8-N7=1.3192         C8-C9=1.3850         C8-H18=1.0823        C9-C8=1.3850         
C9-C10=1.3882        C9-H19=1.0781        C10-C9=1.3882        C10-C11=1.3815       C10-H20=1.0805       C11-C6=1.3979        
C11-C10=1.3815       C11-H21=1.0769       C12-C2=1.3923        C12-C13=1.3774       C12-H22=1.0797       C13-C12=1.3774       
C13-C14=1.3947       C13-H23=1.0800       C14-C13=1.3947       C14-C15=1.3808       C14-H24=1.0801       C15-C1=1.3892        
C15-C14=1.3808       C15-H25=1.0788       H16-C3=1.0718        H17-C4=1.0718        H18-C8=1.0823        H19-C9=1.0781        
H20-C10=1.0805       H21-C11=1.0769       H22-C12=1.0797       H23-C13=1.0800       H24-C14=1.0801       H25-C15=1.0788       
 C  H  Rav=1.0780 sigma=0.0034  Rmin=1.0718  Rmax=1.0823    10
 C  C  Rav=1.3904 sigma=0.0178  Rmin=1.3539  Rmax=1.4268    12
 N  C  Rav=1.3594 sigma=0.0288  Rmin=1.3192  Rmax=1.3873     5

 selected bond angles (degree)
 --------------------
N5-C1-C2=107.54                C15-C1-C2=120.65               C15-C1-N5=131.68               C3-C2-C1=106.80                
C12-C2-C1=120.15               C12-C2-C3=133.04               C4-C3-C2=107.05                H16-C3-C2=126.17               
H16-C3-C4=126.77               N5-C4-C3=110.51                H17-C4-C3=130.50               H17-C4-N5=118.98               
C4-N5-C1=108.06                C6-N5-C1=129.38                C6-N5-C4=122.54                N7-C6-N5=115.31                
C11-C6-N5=122.33               C11-C6-N7=122.30               C8-N7-C6=118.77                C9-C8-N7=123.47                
H18-C8-N7=115.15               H18-C8-C9=121.38               C10-C9-C8=117.81               H19-C9-C8=120.91               
H19-C9-C10=121.26              C11-C10-C9=119.39              H20-C10-C9=120.54              H20-C10-C11=120.07             

 selected dihedral angles (degree)
 ---------------------------------
C3-C2-C1-N5=359.25            C3-C2-C1-C15=175.65           C12-C2-C1-N5=180.16           C12-C2-C1-C15=356.55          
C4-C3-C2-C1=359.67            C4-C3-C2-C12=178.60           H16-C3-C2-C1=179.79           H16-C3-C2-C12=358.73          
N5-C4-C3-C2=  1.31            N5-C4-C3-H16=181.18           H17-C4-C3-C2=180.11           H17-C4-C3-H16=  0.00          
C4-N5-C1-C2=  1.54            C4-N5-C1-C15=185.69           C6-N5-C1-C2=183.09            C6-N5-C1-C15=  7.24           
C1-N5-C4-C3=358.19            C1-N5-C4-H17=179.24           C6-N5-C4-C3=176.77            C6-N5-C4-H17=357.82           
N7-C6-N5-C1=206.55            N7-C6-N5-C4= 28.30            C11-C6-N5-C1= 29.11           C11-C6-N5-C4=210.86           
C8-N7-C6-N5=180.56            C8-N7-C6-C11=358.00           C9-C8-N7-C6=359.79            H18-C8-N7-C6=179.85           
C10-C9-C8-N7=  1.79           C10-C9-C8-H18=181.72          H19-C9-C8-N7=180.70           H19-C9-C8-H18=  0.63          
C11-C10-C9-C8=358.83          C11-C10-C9-H19=179.92         H20-C10-C9-C8=177.91          H20-C10-C9-H19=359.01         
           -------------------------------------------------
          |                Final Singlepoint                |
           -------------------------------------------------

          ...................................................
          :                      SETUP                      :
          :.................................................:
          :  # basis functions                  70          :
          :  # atomic orbitals                  70          :
          :  # shells                           40          :
          :  # electrons                        72          :
          :  max. iterations                   250          :
          :  Hamiltonian                  GFN2-xTB          :
          :  restarted?                      false          :
          :  GBSA solvation                  false          :
          :  PC potential                    false          :
          :  electronic temp.          300.0000000     K    :
          :  accuracy                    1.0000000          :
          :  -> integral cutoff          0.2500000E+02      :
          :  -> integral neglect         0.1000000E-07      :
          :  -> SCF convergence          0.1000000E-05 Eh   :
          :  -> wf. convergence          0.1000000E-03 e    :
          :  Broyden damping             0.4000000          :
          ...................................................

 iter      E             dE          RMSdq      gap      omega  full diag
   1    -39.4869379 -0.394869E+02  0.789E-05    3.01       0.0  T
   2    -39.4869379 -0.299138E-10  0.531E-05    3.01     376.8  T
   3    -39.4869379 -0.437623E-10  0.247E-05    3.01     808.7  T

   *** convergence criteria satisfied after 3 iterations ***

         #    Occupation            Energy/Eh            Energy/eV
      -------------------------------------------------------------
         1        2.0000           -0.6782338             -18.4557
       ...           ...                  ...                  ...
        30        2.0000           -0.4295002             -11.6873
        31        2.0000           -0.4285981             -11.6627
        32        2.0000           -0.4169094             -11.3447
        33        2.0000           -0.4133365             -11.2475
        34        2.0000           -0.3821054             -10.3976
        35        2.0000           -0.3782295             -10.2921
        36        2.0000           -0.3661413              -9.9632 (HOMO)
        37                         -0.2555460              -6.9538 (LUMO)
        38                         -0.2463394              -6.7032
        39                         -0.2282361              -6.2106
        40                         -0.1949645              -5.3053
        41                         -0.1568636              -4.2685
       ...                                ...                  ...
        70                          0.7326686              19.9369
      -------------------------------------------------------------
                  HL-Gap            0.1105952 Eh            3.0094 eV
             Fermi-level           -0.3108437 Eh           -8.4585 eV

 SCC (total)                   0 d,  0 h,  0 min,  0.217 sec
 SCC setup                      ...        0 min,  0.011 sec (  5.239%)
 Dispersion                     ...        0 min,  0.020 sec (  9.157%)
 classical contributions        ...        0 min,  0.016 sec (  7.343%)
 integral evaluation            ...        0 min,  0.035 sec ( 16.015%)
 iterations                     ...        0 min,  0.008 sec (  3.648%)
 molecular gradient             ...        0 min,  0.127 sec ( 58.483%)
 printout                       ...        0 min,  0.000 sec (  0.083%)

         :::::::::::::::::::::::::::::::::::::::::::::::::::::
         ::                     SUMMARY                     ::
         :::::::::::::::::::::::::::::::::::::::::::::::::::::
         :: total energy             -38.784894383235 Eh    ::
         :: gradient norm              0.000513231430 Eh/a0 ::
         :: HOMO-LUMO gap              3.009449629600 eV    ::
         ::.................................................::
         :: SCC energy               -39.486937851184 Eh    ::
         :: -> isotropic ES            0.010983455495 Eh    ::
         :: -> anisotropic ES          0.004093666227 Eh    ::
         :: -> anisotropic XC          0.027154726227 Eh    ::
         :: -> dispersion             -0.026865457688 Eh    ::
         :: repulsion energy           0.702059217386 Eh    ::
         :: add. restraining           0.000000000000 Eh    ::
         :: total charge               0.000000000000 e     ::
         :::::::::::::::::::::::::::::::::::::::::::::::::::::

           -------------------------------------------------
          |                Property Printout                |
           -------------------------------------------------

    * Orbital Energies and Occupations

         #    Occupation            Energy/Eh            Energy/eV
      -------------------------------------------------------------
         1        2.0000           -0.6782338             -18.4557
       ...           ...                  ...                  ...
        24        2.0000           -0.4762588             -12.9597
        25        2.0000           -0.4649949             -12.6532
        26        2.0000           -0.4597355             -12.5100
        27        2.0000           -0.4571892             -12.4408
        28        2.0000           -0.4518783             -12.2962
        29        2.0000           -0.4418839             -12.0243
        30        2.0000           -0.4295002             -11.6873
        31        2.0000           -0.4285981             -11.6627
        32        2.0000           -0.4169094             -11.3447
        33        2.0000           -0.4133365             -11.2475
        34        2.0000           -0.3821054             -10.3976
        35        2.0000           -0.3782295             -10.2921
        36        2.0000           -0.3661413              -9.9632 (HOMO)
        37                         -0.2555460              -6.9538 (LUMO)
        38                         -0.2463394              -6.7032
        39                         -0.2282361              -6.2106
        40                         -0.1949645              -5.3053
        41                         -0.1568636              -4.2685
        42                         -0.1094767              -2.9790
        43                         -0.0710620              -1.9337
        44                          0.0219907               0.5984
        45                          0.1056313               2.8744
        46                          0.1187826               3.2322
        47                          0.1257500               3.4218
       ...                                ...                  ...
        70                          0.7326686              19.9369
      -------------------------------------------------------------
                  HL-Gap            0.1105952 Eh            3.0094 eV
             Fermi-level           -0.3108437 Eh           -8.4585 eV

     #   Z          covCN         q      C6AA      α(0)
     1   6 C        3.077     0.037    27.084     8.532
     2   6 C        3.115    -0.007    28.025     8.672
     3   6 C        3.000    -0.068    29.673     8.936
     4   6 C        3.036     0.001    27.961     8.673
     5   7 N        2.832    -0.018    21.597     6.902
     6   6 C        2.903     0.148    24.789     8.164
     7   7 N        1.847    -0.244    27.214     7.732
     8   6 C        2.906     0.062    26.612     8.459
     9   6 C        2.913    -0.047    29.178     8.858
    10   6 C        2.929    -0.012    28.303     8.725
    11   6 C        2.916    -0.057    29.425     8.895
    12   6 C        2.912    -0.036    28.890     8.814
    13   6 C        2.920    -0.039    28.966     8.826
    14   6 C        2.924    -0.037    28.922     8.819
    15   6 C        2.909    -0.049    29.214     8.863
    16   1 H        0.926     0.035     2.513     2.479
    17   1 H        0.926     0.054     2.266     2.354
    18   1 H        0.925     0.041     2.432     2.439
    19   1 H        0.926     0.037     2.487     2.466
    20   1 H        0.926     0.038     2.479     2.462
    21   1 H        0.926     0.045     2.383     2.414
    22   1 H        0.926     0.031     2.570     2.507
    23   1 H        0.926     0.028     2.613     2.528
    24   1 H        0.926     0.028     2.611     2.527
    25   1 H        0.926     0.027     2.634     2.538

 Mol. C6AA /au·bohr⁶  :       8962.327146
 Mol. C8AA /au·bohr⁸  :     223177.908137
 Mol. α(0) /au        :        152.582425


Wiberg/Mayer (AO) data.
largest (>0.10) Wiberg bond orders for each atom

 ---------------------------------------------------------------------------
     #   Z sym  total        # sym  WBO       # sym  WBO       # sym  WBO
 ---------------------------------------------------------------------------
     1   6 C    3.955 --    15 C    1.358     2 C    1.255     5 N    1.123
     2   6 C    3.982 --    12 C    1.344     1 C    1.255     3 C    1.200
     3   6 C    3.972 --     4 C    1.647     2 C    1.200    16 H    0.972
     4   6 C    3.952 --     3 C    1.647     5 N    1.148    17 H    0.966
     5   7 N    3.626 --     4 C    1.148     1 C    1.123     6 C    1.084
     6   6 C    3.970 --     7 N    1.370    11 C    1.342     5 N    1.084
     7   7 N    3.055 --     8 C    1.442     6 C    1.370
     8   6 C    3.981 --     7 N    1.442     9 C    1.428    18 H    0.963
                            11 C    0.111
     9   6 C    3.974 --     8 C    1.428    10 C    1.421    19 H    0.971
    10   6 C    3.989 --    11 C    1.468     9 C    1.421    20 H    0.970
    11   6 C    3.987 --    10 C    1.468     6 C    1.342    21 H    0.964
                             8 C    0.111
    12   6 C    3.990 --    13 C    1.491     2 C    1.344    22 H    0.969
                            15 C    0.110
    13   6 C    3.985 --    12 C    1.491    14 C    1.385    23 H    0.972
    14   6 C    3.989 --    15 C    1.476    13 C    1.385    24 H    0.972
    15   6 C    3.987 --    14 C    1.476     1 C    1.358    25 H    0.964
                            12 C    0.110
    16   1 H    0.998 --     3 C    0.972
    17   1 H    0.996 --     4 C    0.966
    18   1 H    0.998 --     8 C    0.963
    19   1 H    0.999 --     9 C    0.971
    20   1 H    0.998 --    10 C    0.970
    21   1 H    0.998 --    11 C    0.964
    22   1 H    0.999 --    12 C    0.969
    23   1 H    0.999 --    13 C    0.972
    24   1 H    0.999 --    14 C    0.972
    25   1 H    0.999 --    15 C    0.964
 ---------------------------------------------------------------------------

Topologies differ in total number of bonds
Writing topology from bond orders to xtbtopo.mol

molecular dipole:
                 x           y           z       tot (Debye)
 q only:        0.345       0.003       0.272
   full:        0.587       0.155       0.632       2.228
molecular quadrupole (traceless):
                xx          xy          yy          xz          yz          zz
 q only:        2.405       1.141      -1.470       1.643       1.744      -0.935
  q+dip:        7.040       2.547      -4.591       2.891       5.406      -2.449
   full:        4.640       1.772      -1.794       3.181       2.248      -2.845

           -------------------------------------------------
          |                Geometry Summary                 |
           -------------------------------------------------

      molecular mass/u    :      194.2323806
   center of mass at/Å    :        0.0357551      -0.0618694      -0.1978955
  moments of inertia/u·Å² :        0.3194080E+03   0.1241856E+04   0.1526525E+04
rotational constants/cm⁻¹ :        0.5277774E-01   0.1357454E-01   0.1104314E-01

 * 27 selected distances

     #   Z          #   Z                                           value/Å
     1   6 C        2   6 C                                       1.4168159
     2   6 C        3   6 C                                       1.4268319 (max)
     3   6 C        4   6 C                                       1.3538908
     1   6 C        5   7 N                                       1.3811748
     4   6 C        5   7 N                                       1.3795229
     5   7 N        6   6 C                                       1.3873159
     6   6 C        7   7 N                                       1.3300220
     7   7 N        8   6 C                                       1.3191970
     8   6 C        9   6 C                                       1.3849951
     9   6 C       10   6 C                                       1.3881736
     6   6 C       11   6 C                                       1.3979052
    10   6 C       11   6 C                                       1.3814742
     2   6 C       12   6 C                                       1.3922598
    12   6 C       13   6 C                                       1.3774002
    13   6 C       14   6 C                                       1.3947070
     1   6 C       15   6 C                                       1.3891628
    14   6 C       15   6 C                                       1.3807973
     3   6 C       16   1 H                                       1.0717548 (min)
     4   6 C       17   1 H                                       1.0718393
     8   6 C       18   1 H                                       1.0823357
     9   6 C       19   1 H                                       1.0781110
    10   6 C       20   1 H                                       1.0805099
    11   6 C       21   1 H                                       1.0769467
    12   6 C       22   1 H                                       1.0796516
    13   6 C       23   1 H                                       1.0799868
    14   6 C       24   1 H                                       1.0800526
    15   6 C       25   1 H                                       1.0787884

 * 3 distinct bonds (by element types)

   Z      Z             #   av. dist./Å        max./Å        min./Å
   1 H    6 C          10     1.0779977     1.0823357     1.0717548
   6 C    6 C          12     1.3903678     1.4268319     1.3538908
   6 C    7 N           5     1.3594465     1.3873159     1.3191970


optimized geometry written to: xtbopt.xyz


           -------------------------------------------------
          | TOTAL ENERGY              -38.784894383235 Eh   |
          | GRADIENT NORM               0.000513231430 Eh/α |
          | HOMO-LUMO GAP               3.009449629600 eV   |
           -------------------------------------------------

------------------------------------------------------------------------
 * finished run on 2022/03/17 at 02:19:58.935     
------------------------------------------------------------------------
 total:
 * wall-time:     0 d,  0 h,  0 min,  4.894 sec
 *  cpu-time:     0 d,  0 h,  2 min, 36.044 sec
 * ratio c/w:    31.883 speedup
 SCF:
 * wall-time:     0 d,  0 h,  0 min,  0.228 sec
 *  cpu-time:     0 d,  0 h,  0 min,  7.223 sec
 * ratio c/w:    31.626 speedup
 ANC optimizer:
 * wall-time:     0 d,  0 h,  0 min,  4.544 sec
 *  cpu-time:     0 d,  0 h,  2 min, 25.035 sec
 * ratio c/w:    31.915 speedup

