25
 energy: -38.784894383235 gnorm: 0.000513231430 xtb: 6.3.3 (4ae9cef)
C        -1.07930786065942   -0.02503634144194   -0.12583970339792
C        -2.11446360278399   -0.73523555628622   -0.78267827534644
C        -1.48583733361665   -1.60173878975871   -1.72599709213561
C        -0.15130213537435   -1.39706086079891   -1.62528505186998
N         0.12225518465474   -0.46474819947027   -0.64597773416896
C         1.41652369348841   -0.11547252273818   -0.28887691276303
N         2.32489664367503   -0.23758471065554   -1.25267448295916
C         3.58036338955220    0.06565692729411   -0.98410696768130
C         4.01017053799138    0.51216758140991    0.25448314955629
C         3.06930265391062    0.60809860045973    1.27064785366772
C         1.75245171369442    0.28335367214893    1.00813076252998
C        -3.44588553398115   -0.49070714253605   -0.45724177084715
C        -3.72797467596972    0.46585484770821    0.49283520538021
C        -2.70603667750341    1.19701210186804    1.09802889927236
C        -1.37789803609615    0.97066601016227    0.79567751288920
H        -1.98231967371021   -2.28251037798603   -2.38835171906899
H         0.66388313848982   -1.84628012473225   -2.15680602300569
H         4.26989691039421   -0.05729403226207   -1.80925981297969
H         5.04557828733766    0.75915648374500    0.42551119653172
H         3.36268052675959    0.91916660787112    2.26295217610081
H         1.01173705703526    0.29829916901861    1.78975251075040
H        -4.23544161485731   -1.03792745753469   -0.94998777594418
H        -4.75310452943343    0.66978324881571    0.76466873691148
H        -2.95967953026406    1.96367336703804    1.81525238355535
H        -0.61048853273351    1.57870849866131    1.24861393502235
