25
 energy: -38.776470456959 gnorm: 0.074291695164 xtb: 6.3.3 (4ae9cef)
C        -1.10268100000000   -0.00068400000000   -0.16455400000000
C        -2.12305300000000   -0.74388600000000   -0.78036900000000
C        -1.52488100000000   -1.55864100000000   -1.77134400000000
C        -0.17709800000000   -1.30447300000000   -1.75205000000000
N         0.11154800000000   -0.43619300000000   -0.71058100000000
C         1.45657800000000   -0.10998900000000   -0.33389700000000
N         2.43217800000000   -0.35852200000000   -1.25139700000000
C         3.70643800000000   -0.06347900000000   -0.91571600000000
C         4.07577500000000    0.45482600000000    0.31083900000000
C         3.07949200000000    0.67124500000000    1.25302600000000
C         1.75230100000000    0.38059700000000    0.93390900000000
C        -3.46249200000000   -0.55166300000000   -0.38309600000000
C        -3.76949900000000    0.40409800000000    0.58659700000000
C        -2.76373500000000    1.18093900000000    1.14464900000000
C        -1.42630500000000    1.00223000000000    0.77361000000000
H        -2.02937900000000   -2.23512500000000   -2.44838600000000
H         0.62320500000000   -1.71329700000000   -2.35554600000000
H         4.44613200000000   -0.26473500000000   -1.68534400000000
H         5.11498500000000    0.66985900000000    0.53221300000000
H         3.33308400000000    1.04945600000000    2.23977800000000
H         1.00378100000000    0.48915200000000    1.70707600000000
H        -4.25721700000000   -1.12983000000000   -0.84637700000000
H        -4.80372600000000    0.55717400000000    0.88387500000000
H        -3.01894100000000    1.94808000000000    1.87245100000000
H        -0.67649000000000    1.66286200000000    1.19410500000000
25
 energy: -38.783087502998 gnorm: 0.029125740216 xtb: 6.3.3 (4ae9cef)
C        -1.08627067680216    0.00215451820050   -0.14847260855413
C        -2.11626302180397   -0.73247967199268   -0.77924301937047
C        -1.50635432179050   -1.54774897209426   -1.77006718728523
C        -0.16732442916839   -1.31263243493838   -1.71588741665773
N         0.12138408055287   -0.40829197605295   -0.70871274344311
C         1.44051043300539   -0.08874028560764   -0.33237001355922
N         2.39291728996038   -0.33304809984681   -1.24403021263569
C         3.65547403764592   -0.06459270104943   -0.92159224300888
C         4.04635555005978    0.45093273272256    0.30108915659951
C         3.06344605069490    0.66479239443121    1.25462933254923
C         1.74266422849869    0.38240195566159    0.94276324188719
C        -3.44840889289216   -0.54615284280987   -0.39703768541516
C        -3.74433592737905    0.39444862973945    0.56923716174282
C        -2.73434648767560    1.16916967208238    1.13157538246279
C        -1.40480015500528    0.98985282630260    0.78305848825883
H        -2.00551084896874   -2.21722989618037   -2.44718936262679
H         0.63032232926088   -1.72148427343984   -2.30713734519429
H         4.38304318564206   -0.27980835026302   -1.69508086199208
H         5.08602963837852    0.66035059851003    0.51073855912132
H         3.32154783935466    1.03990495838275    2.23598556951344
H         0.98777973403563    0.49552656290817    1.70319268400090
H        -4.23677063030208   -1.12570675391798   -0.85809291610928
H        -4.77250009123875    0.54534071228336    0.87208891344983
H        -2.98993869051729    1.93472157941801    1.85286873512978
H        -0.65865022354569    1.64832011755063    1.20115739113639
25
 energy: -38.784366540009 gnorm: 0.006322209442 xtb: 6.3.3 (4ae9cef)
C        -1.07719310070516    0.00932271734265   -0.14657374582622
C        -2.11001356394380   -0.72486234620921   -0.78279398614920
C        -1.48696770983863   -1.54797500381134   -1.76612566498867
C        -0.15616125783392   -1.31117034613162   -1.69761717218323
N         0.12543982225246   -0.39426256045264   -0.70355257291126
C         1.42377137619532   -0.08616589838209   -0.32144331942298
N         2.36012088902787   -0.31649461477249   -1.23619516154783
C         3.61708366509988   -0.05936627083642   -0.93239767536696
C         4.02562082225092    0.44945811756203    0.28942391483218
C         3.05266566542920    0.66214444243728    1.25526058125991
C         1.73323092346682    0.38029935452931    0.95785025638724
C        -3.43805771419157   -0.54171252476792   -0.40945916780130
C        -3.72879319701429    0.39226911514808    0.55797790928998
C        -2.71716018685239    1.16599363923509    1.12510852539724
C        -1.39222745924324    0.99293721494594    0.78034640073688
H        -1.98129180754596   -2.22330245287759   -2.43501790461767
H         0.64802087810350   -1.72690005962292   -2.27007255416711
H         4.33377884082117   -0.27998927195125   -1.71321437885171
H         5.06609324015295    0.65367141511103    0.48734629769174
H         3.31918108547236    1.02654466721438    2.23628734612775
H         0.97500624368763    0.48571000208366    1.71336595424296
H        -4.22104685212536   -1.11795946046152   -0.87859103963051
H        -4.75254296764419    0.54702655937334    0.86483711902959
H        -2.97442017349391    1.92572742924374    1.84797091571511
H        -0.64413746152768    1.63905713605049    1.21075012275405
25
 energy: -38.784498762603 gnorm: 0.003207301312 xtb: 6.3.3 (4ae9cef)
C        -1.07880142921458    0.00899612913043   -0.14539649351727
C        -2.10996489258602   -0.72415509331305   -0.78513874822450
C        -1.48198465059745   -1.55235823143888   -1.76297624263825
C        -0.15149107643501   -1.31638027514923   -1.68817446623971
N         0.12369427138980   -0.39306442836304   -0.69858924164469
C         1.41895495592093   -0.08153697697379   -0.31722122793435
N         2.35263238440832   -0.30680198652895   -1.23708325395803
C         3.61177214343127   -0.05408193690707   -0.93918387483929
C         4.02462558755539    0.44893912284686    0.28374234328840
C         3.05559304395767    0.65580044486473    1.25593961322520
C         1.73408848250866    0.37762676464405    0.96511227623059
C        -3.43874395775351   -0.53726016518901   -0.41714184496466
C        -3.72993588674689    0.39693448607925    0.55180462936022
C        -2.71889697141028    1.16745314387347    1.12465244583842
C        -1.39290813082807    0.99323779965982    0.78245213192801
H        -1.97509423184876   -2.23019980233504   -2.43038907970638
H         0.65865905009066   -1.73614386386182   -2.25070987391214
H         4.32340305914889   -0.26719557116752   -1.72654319463240
H         5.06513341023279    0.65439874318520    0.47684894262779
H         3.32707417789478    1.01717597491103    2.23706818889094
H         0.97698428974391    0.47326600265165    1.72342210021072
H        -4.22026388445911   -1.11178913107123   -0.89109620767559
H        -4.75296894635434    0.55375169207838    0.85945730601850
H        -2.97782227454491    1.92511379882480    1.84918357482826
H        -0.64373852350418    1.63827435954899    1.21343119744017
25
 energy: -38.784601195528 gnorm: 0.003118864184 xtb: 6.3.3 (4ae9cef)
C        -1.08257905438644    0.00900323340729   -0.14431748744777
C        -2.11091137659987   -0.72359376582896   -0.78781926282298
C        -1.47701547281139   -1.55954671661605   -1.75668131528065
C        -0.14672764428488   -1.32453508216506   -1.67445695160709
N         0.12095184262399   -0.39524634840787   -0.68879746115012
C         1.41513054186684   -0.07930068571460   -0.30939510109657
N         2.34434833131607   -0.29185352221873   -1.23913123212630
C         3.60623541522507   -0.03934742095607   -0.95060611339588
C         4.02543583202406    0.45177952733994    0.27488581552080
C         3.06262837847049    0.64760606642884    1.25619744955147
C         1.73882317694571    0.37053643883296    0.97552965740333
C        -3.44123470630032   -0.53080265889718   -0.42762687703420
C        -3.73357795779846    0.40383659356623    0.54214035671778
C        -2.72369801774804    1.16987513249558    1.12284280845971
C        -1.39598253656973    0.99412094030715    0.78455911176715
H        -1.96857035030548   -2.24174738506042   -2.42134075001246
H         0.67096188663372   -1.74909749007196   -2.22356592457118
H         4.31107751390991   -0.24605863571908   -1.74563393765053
H         5.06686955935103    0.65500459490623    0.46340070200087
H         3.34246797186255    0.99974945679499    2.23899408618569
H         0.98379626355093    0.45556782230515    1.73797477339460
H        -4.22165085281210   -1.10106225549934   -0.90912331178448
H        -4.75682451376346    0.56557789596164    0.84673855052036
H        -2.98531290176356    1.92434043948151    1.85009908302541
H        -0.64464132863665    1.63519482532785    1.21860433143301
25
 energy: -38.784653506266 gnorm: 0.003241259424 xtb: 6.3.3 (4ae9cef)
C        -1.08485921770232    0.00804081743019   -0.14228998905703
C        -2.11170199579245   -0.72377872110943   -0.78835308408489
C        -1.47532604143904   -1.56482216107231   -1.75105925265545
C        -0.14497683830236   -1.33169431043358   -1.66445387320705
N         0.11992246015489   -0.39919163035531   -0.68101992166904
C         1.41466155596711   -0.07834702991856   -0.30516826769738
N         2.34028100110854   -0.28217677523798   -1.24086833932848
C         3.60334521880956   -0.02895694143852   -0.95714312818305
C         4.02687974876741    0.45356084457874    0.27009777117687
C         3.06822087009045    0.64122845375574    1.25674229486906
C         1.74339511164964    0.36470150621243    0.98078514514499
C        -3.44322144712856   -0.52602568612400   -0.43431965498729
C        -3.73653421577587    0.40960309595332    0.53412077125765
C        -2.72700213812619    1.17167187578188    1.12062985702105
C        -1.39828122478167    0.99310863940598    0.78698123718205
H        -1.96619057947386   -2.24891632331057   -2.41443138188433
H         0.67561393777767   -1.75824690737679   -2.20715697627602
H         4.30333711156883   -0.22542104272317   -1.75898246893695
H         5.06882413862981    0.65758583704348    0.45548518632407
H         3.35319799322227    0.98686371587598    2.24051806494583
H         0.99022178528797    0.44402367325644    1.74602889956287
H        -4.22350808241924   -1.09333008778166   -0.91962475809095
H        -4.76064907807109    0.57512405928128    0.83433590972282
H        -2.99023153533873    1.92494992223208    1.84865817377556
H        -0.64541853868277    1.63044617607439    1.22395878507502
25
 energy: -38.784704425476 gnorm: 0.002100479184 xtb: 6.3.3 (4ae9cef)
C        -1.08633124407417    0.00630325243360   -0.13904572037563
C        -2.11221985463849   -0.72436065887546   -0.78774074248407
C        -1.47490001946523   -1.56931707474063   -1.74544195338904
C        -0.14433132614270   -1.33909312697603   -1.65498043239380
N         0.11977122994642   -0.40510521252245   -0.67272557146290
C         1.41567470912310   -0.07892342610353   -0.30170258341430
N         2.33710281942110   -0.27298871180224   -1.24309721197669
C         3.60043184716375   -0.01650067689239   -0.96350487220341
C         4.02840797179491    0.45637128115350    0.26581411166874
C         3.07367780754593    0.63528769803716    1.25742653880746
C         1.74827084569423    0.35838423160949    0.98445576412986
C        -3.44484218277927   -0.52167836820701   -0.43997677856659
C        -3.73942604843487    0.41569820181808    0.52570971279146
C        -2.72994131950417    1.17367224241537    1.11778105599397
C        -1.40041939603986    0.99073693869735    0.79043564349283
H        -1.96513877283023   -2.25455634491907   -2.40803218001000
H         0.67721944315199   -1.76761792183324   -2.19371260716173
H         4.29664011411128   -0.20440464282333   -1.77054035194042
H         5.07104306379556    0.66012175845117    0.44898789547192
H         3.36291635464634    0.97420122807598    2.24215839794080
H         0.99734413129737    0.43467635490660    1.75225681537632
H        -4.22524491752303   -1.08653545328603   -0.92781595313619
H        -4.76488602850702    0.58520702911492    0.81966851162223
H        -2.99447411385760    1.92689714868612    1.84537301710298
H        -0.64634511389537    1.62352525358213    1.23172049411610
25
 energy: -38.784744707985 gnorm: 0.001128677284 xtb: 6.3.3 (4ae9cef)
C        -1.08673684774080    0.00339173089287   -0.13485826950833
C        -2.11240994629592   -0.72533101156231   -0.78639334018537
C        -1.47511036055487   -1.57339076991744   -1.74039477460082
C        -0.14421123869274   -1.34656342974845   -1.64650544117304
N         0.12015644219921   -0.41236757944873   -0.66466354738914
C         1.41686676187867   -0.08077938329309   -0.29873918799865
N         2.33413042663820   -0.26491650567733   -1.24536171018093
C         3.59729372373989   -0.00468317230594   -0.96903886414653
C         4.02923002671405    0.45980587459315    0.26199218079062
C         3.07798297930415    0.63032003969550    1.25822034107197
C         1.75228871509155    0.35162944208008    0.98756577824521
C        -3.44586821829577   -0.51756441701451   -0.44476058876332
C        -3.74158121537511    0.42230922552805    0.51755446387360
C        -2.73173024300266    1.17614500080006    1.11455696219538
C        -1.40160296118227    0.98737585528726    0.79436040124894
H        -1.96473950707291   -2.25892721508981   -2.40296213665770
H         0.67705542233846   -1.77775314742957   -2.18308167289582
H         4.29055901355171   -0.18222423251222   -1.78099846686798
H         5.07229454615957    0.66427320188374    0.44279463598454
H         3.37039581419630    0.96292511933419    2.24390090664472
H         1.00404949828887    0.42488872632846    1.75830141315625
H        -4.22643480308292   -1.08046518612296   -0.93442798969993
H        -4.76831685382266    0.59621377149319    0.80465808484666
H        -2.99688831009791    1.93041887978793    1.84073791754863
H        -0.64667286488412    1.61527018241796    1.24101390446096
25
 energy: -38.784779406251 gnorm: 0.001293026938 xtb: 6.3.3 (4ae9cef)
C        -1.08614372543656   -0.00159252023380   -0.12968684913827
C        -2.11248853100026   -0.72703162006258   -0.78443373664966
C        -1.47583074057007   -1.57794015628771   -1.73574671062815
C        -0.14442727400842   -1.35516383426760   -1.63849222513723
N         0.12079738171148   -0.42190807748142   -0.65638538056857
C         1.41765812325562   -0.08479429205684   -0.29539128645684
N         2.33083025931532   -0.25719923282381   -1.24749492696689
C         3.59337735128129    0.00910553027333   -0.97481671413558
C         4.02885463429002    0.46555552898085    0.25792341706594
C         3.08110915404413    0.62547224412521    1.25941070605078
C         1.75545384461716    0.34275544471836    0.99146608930720
C        -3.44647503504347   -0.51299310210123   -0.44924642987172
C        -3.74275443619171    0.43049240161746    0.50914552873757
C        -2.73189733773151    1.17934568389557    1.11089129713744
C        -1.40125971154713    0.98268612000332    0.79867770464040
H        -1.96500864397314   -2.26265635091541   -2.39931943706314
H         0.67559586724960   -1.78984693636462   -2.17422384266789
H         4.28456632336980   -0.15815221066819   -1.79066417720607
H         5.07197623111798    0.67230205279614    0.43582095794076
H         3.37578982899860    0.95292956755263    2.24581278268602
H         1.01041134873403    0.41108495140238    1.76580777747779
H        -4.22732662375958   -1.07374707731523   -0.94083378781733
H        -4.77042700530230    0.61005656156997    0.78910245800906
H        -2.99673849900535    1.93587008464923    1.83476095509583
H        -0.64564278441556    1.60537023899407    1.25138683015846
25
 energy: -38.784800356202 gnorm: 0.001044795493 xtb: 6.3.3 (4ae9cef)
C        -1.08526569636362   -0.00562474128939   -0.12728261476576
C        -2.11266839072269   -0.72853064033593   -0.78333378782796
C        -1.47668431539783   -1.58063580085838   -1.73424584506225
C        -0.14489103665622   -1.36017513819104   -1.63576031943946
N         0.12105713032111   -0.42799104152452   -0.65312417591980
C         1.41741383570365   -0.08853801766611   -0.29350554918736
N         2.32930025067655   -0.25491347028069   -1.24773752389684
C         3.59132326888556    0.01535195015801   -0.97660151895099
C         4.02735427994673    0.47054454760596    0.25630753422835
C         3.08100942362570    0.62411927770859    1.26009803831425
C         1.75593506629416    0.33661765354266    0.99409905475413
C        -3.44653981232640   -0.51036307078820   -0.45090903299712
C        -3.74197380591371    0.43533271749986    0.50577756221808
C        -2.72999776104378    1.18121555174574    1.10914648529069
C        -1.39931671239932    0.97978057971565    0.80018136252419
H        -1.96612483988768   -2.26412328538736   -2.39889249263444
H         0.67407054198228   -1.79676100197833   -2.17185381053698
H         4.28190715347824   -0.14522473901731   -1.79436311542770
H         5.06991021326791    0.68145131627469    0.43222135489655
H         3.37606859679633    0.94977406048500    2.24699737130207
H         1.01239969541799    0.39944445844918    1.77042732644367
H        -4.22790303442548   -1.06927807207207   -0.94382949246693
H        -4.76960907833094    0.61899609918677    0.78278543716444
H        -2.99365198480463    1.93951251431988    1.83160728032637
H        -0.64312298812393    1.60001929269744    1.25526147165070
25
 energy: -38.784819725896 gnorm: 0.000643057496 xtb: 6.3.3 (4ae9cef)
C        -1.08420041801390   -0.00981329473136   -0.12597625785790
C        -2.11301115347349   -0.73000149866356   -0.78273528206670
C        -1.47799290123392   -1.58290885012223   -1.73398672145205
C        -0.14575727086517   -1.36462557205544   -1.63516720774805
N         0.12123740112106   -0.43372282769102   -0.65180159504101
C         1.41698083042589   -0.09327950600382   -0.29207953515063
N         2.32873209221042   -0.25466600597583   -1.24742923864818
C         3.58986902400547    0.02116699273849   -0.97750878705958
C         4.02498646097597    0.47716526524700    0.25554145053238
C         3.07928323104188    0.62324737731498    1.26122544369701
C         1.75528235255363    0.32986105857086    0.99655231758999
C        -3.44651487263413   -0.50775530551237   -0.45176188889093
C        -3.74008780593416    0.43964470769463    0.50407855629143
C        -2.72656970295294    1.18273890154575    1.10813342816324
C        -1.39606892597945    0.97716216155454    0.80061572875478
H        -1.96831087383425   -2.26497112883845   -2.39951769733820
H         0.67218950188460   -1.80258959091159   -2.17196685862754
H         4.28073401722050   -0.13696437394760   -1.79518107787813
H         5.06655875737067    0.69373425190831    0.43008652761132
H         3.37363392941087    0.94949793746765    2.24818478083528
H         1.01230995783536    0.38636603510649    1.77389719435544
H        -4.22880920387918   -1.06468638011984   -0.94545817975805
H        -4.76725602613348    0.62695318871425    0.78005697542100
H        -2.98841642085808    1.94263332222295    1.82961339406455
H        -0.63880198026422    1.59581413448733    1.25605553020039
25
 energy: -38.784838523364 gnorm: 0.000546360286 xtb: 6.3.3 (4ae9cef)
C        -1.08303903967625   -0.01395597043016   -0.12546691272559
C        -2.11341257720886   -0.73147387449371   -0.78242578795257
C        -1.47982300486492   -1.58527852826227   -1.73409923317006
C        -0.14703791702601   -1.36976845100723   -1.63518013317572
N         0.12146546717223   -0.43995973176881   -0.65127443202127
C         1.41670527339587   -0.09876308536846   -0.29109900707330
N         2.32879757931368   -0.25568728947636   -1.24686950714629
C         3.58885921188126    0.02541509185891   -0.97707840062820
C         4.02187606547286    0.48489603281248    0.25549304450250
C         3.07640370413539    0.62359853922392    1.26224990075051
C         1.75408379486444    0.32204665861716    0.99871664858053
C        -3.44638668206260   -0.50481942656502   -0.45220834747764
C        -3.73735462739206    0.44400646839490    0.50313340085804
C        -2.72198084334158    1.18441594343668    1.10727360123802
C        -1.39193882534853    0.97482898698612    0.80024071214509
H        -1.97155999847774   -2.26597958690645   -2.40005064232887
H         0.66998826171656   -1.80910746804198   -2.17242012322172
H         4.27992383057732   -0.12708480302369   -1.79599136829882
H         5.06195000282426    0.70966048103377    0.42872874705690
H         3.36987450814566    0.94914471834126    2.24994229628989
H         1.01133140539666    0.37007910414758    1.77692468572633
H        -4.23021975010897   -1.05889233257580   -0.94672335663770
H        -4.76401314076641    0.63541609913851    0.77829102334979
H        -2.98169813397876    1.94575488786265    1.82802615794978
H        -0.63279456464353    1.59150853606607    1.25533803341022
25
 energy: -38.784853869401 gnorm: 0.000534529330 xtb: 6.3.3 (4ae9cef)
C        -1.08191505066394   -0.01747513855173   -0.12546841371367
C        -2.11376638279445   -0.73234799577195   -0.78274501706739
C        -1.48168661165563   -1.58790744891410   -1.73399075140416
C        -0.14838449778750   -1.37532852172878   -1.63489505600861
N         0.12170689928581   -0.44616191397202   -0.65089308295730
C         1.41660575753256   -0.10430812067220   -0.29044039137524
N         2.32899197106048   -0.25577705570964   -1.24695327552961
C         3.58772594001473    0.03186197894079   -0.97744196201001
C         4.01857867186040    0.49301574280321    0.25539271195873
C         3.07342899731291    0.62258551162150    1.26379534506065
C         1.75282981093739    0.31348871466437    1.00074678649500
C        -3.44620638558263   -0.50133936574349   -0.45306092867900
C        -3.73449292880981    0.44862082783644    0.50200673517907
C        -2.71725100241460    1.18630502883507    1.10643763147275
C        -1.38779431682671    0.97280751034979    0.79969488444009
H        -1.97499300602840   -2.26756374547698   -2.39989207737700
H         0.66805380209871   -1.81621211798281   -2.17180912959294
H         4.27932599169432   -0.11770563974290   -1.79625592253591
H         5.05708847969602    0.72539077606209    0.42784925247509
H         3.36583716966195    0.94818925680524    2.25176687753040
H         1.01010016279949    0.35354881298785    1.77944550100152
H        -4.23168530725604   -1.05298884448611   -0.94764275847125
H        -4.76055313377054    0.64316190482809    0.77710412036362
H        -2.97502781035615    1.94861677882252    1.82686247159417
H        -0.62651722000842    1.58752406419587    1.25385744915082
25
 energy: -38.784864831242 gnorm: 0.000459997245 xtb: 6.3.3 (4ae9cef)
C        -1.08102144654221   -0.01978118747010   -0.12593391547765
C        -2.11398558706281   -0.73289204597239   -0.78314807654572
C        -1.48323112831694   -1.59030573983228   -1.73357396027680
C        -0.14946179692795   -1.38050286963924   -1.63397722597691
N         0.12191318097822   -0.45125994663518   -0.65048830062981
C         1.41660218778703   -0.10843612043189   -0.29016064840167
N         2.32890387988915   -0.25470269974545   -1.24746899077180
C         3.58655239167691    0.03789028503873   -0.97792681132325
C         4.01582865106955    0.49926415431209    0.25542546679956
C         3.07110528868127    0.62129756904482    1.26513268691974
C         1.75195037961335    0.30630812220396    1.00221995792195
C        -3.44597120586584   -0.49851371728413   -0.45372096803906
C        -3.73212816527695    0.45242030517051    0.50097104618974
C        -2.71341487845051    1.18814665002618    1.10542700467760
C        -1.38449184895596    0.97160144463204    0.79883966708074
H        -1.97783638016269   -2.26946061811274   -2.39903405158748
H         0.66666931734713   -1.82318591982483   -2.16987350056179
H         4.27840741729752   -0.10747057675532   -1.79732695115861
H         5.05309834713730    0.73735145426879    0.42747002503611
H         3.36292846287331    0.94549386908263    2.25376973196779
H         1.00936140651108    0.33973962831111    1.78135433620800
H        -4.23289025858154   -1.04803933048855   -0.94839029561553
H        -4.75783041650515    0.64956344928502    0.77572101579804
H        -2.96975515340011    1.95111141775319    1.82565826719798
H        -0.62130264481319    1.58436342306315    1.25250549056863
25
 energy: -38.784872944474 gnorm: 0.000371266164 xtb: 6.3.3 (4ae9cef)
C        -1.08044068031398   -0.02129480373502   -0.12619611868070
C        -2.11415156863386   -0.73315560604438   -0.78350753894730
C        -1.48420703377479   -1.59270352624282   -1.73248776872399
C        -0.15018879054855   -1.38466198805603   -1.63259537942067
N         0.12204434441560   -0.45506321704605   -0.64980291233260
C         1.41665335652163   -0.11097256856966   -0.28999623299054
N         2.32851284376982   -0.25227674483781   -1.24838228711220
C         3.58544896329950    0.04351650773811   -0.97878629144151
C         4.01401494775191    0.50336355773504    0.25538486922449
C         3.06985809943703    0.61924054886816    1.26636858221992
C         1.75160621764510    0.30064336747300    1.00344751989299
C        -3.44590130571538   -0.49613505299482   -0.45464993400328
C        -3.73064629620168    0.45564694462405    0.49955446846190
C        -2.71090672189836    1.18989558045740    1.10423669396044
C        -1.38232181106663    0.97095273934797    0.79814357000382
H        -1.97961555349721   -2.27183140906864   -2.39737160532592
H         0.66571244834981   -1.82887796972582   -2.16745733119764
H         4.27720577419594   -0.09739054588517   -1.79910752192519
H         5.05051891931083    0.74495402353497    0.42717726335208
H         3.36153160355136    0.94147481982324    2.25566679057947
H         1.00927427462887    0.32918565313726    1.78304222035266
H        -4.23373551629538   -1.04471288555518   -0.94883737735041
H        -4.75608570057030    0.65431707862787    0.77414551173650
H        -2.96631902131021    1.95342327253357    1.82418820984808
H        -0.61786179305111    1.58246322386086    1.25129359981939
25
 energy: -38.784879804606 gnorm: 0.000303912260 xtb: 6.3.3 (4ae9cef)
C        -1.08010478701401   -0.02213397719213   -0.12646769125698
C        -2.11420849526214   -0.73371409464395   -0.78334674916197
C        -1.48484751419614   -1.59474602799894   -1.73123612872764
C        -0.15053924801845   -1.38827242471882   -1.63073124858013
N         0.12211502679989   -0.45782039085080   -0.64896017160436
C         1.41663086536973   -0.11243144822994   -0.28978438564943
N         2.32771717488212   -0.24883413034014   -1.24946938235387
C         3.58418287548260    0.04934306342502   -0.98010727764279
C         4.01280033314859    0.50611661909468    0.25518582041534
C         3.06939714623959    0.61663705454095    1.26748599395986
C         1.75163926467369    0.29600542716495    1.00459512428041
C        -3.44575702135161   -0.49491223451096   -0.45494694657636
C        -3.72966058344243    0.45807396007545    0.49826840664819
C        -2.70932449891646    1.19168722406737    1.10274753377406
C        -1.38096621208097    0.97097001164224    0.79725086390949
H        -1.98071630959232   -2.27418436233927   -2.39545072549029
H         0.66526638682862   -1.83415192440859   -2.16439409333886
H         4.27552924706453   -0.08730656893160   -1.80144419678797
H         5.04889968761102    0.74950367785709    0.42682786346284
H         3.36135546976461    0.93617841463676    2.25756702764884
H         1.00967578162938    0.32065003325184    1.78470440488055
H        -4.23428834855552   -1.04231878638865   -0.94944680260855
H        -4.75508698968406    0.65855136015779    0.77186617222144
H        -2.96418687479014    1.95589069679581    1.82216703222679
H        -0.61552237659019    1.58121982784398    1.25059055635119
25
 energy: -38.784885278460 gnorm: 0.000435685768 xtb: 6.3.3 (4ae9cef)
C        -1.07977381032036   -0.02293757202086   -0.12676125662377
C        -2.11426191238185   -0.73425961833751   -0.78319519900623
C        -1.48548016538934   -1.59675635367177   -1.73000677179243
C        -0.15088599021769   -1.39182962719603   -1.62889837911481
N         0.12218406412770   -0.46052430943988   -0.64814728440108
C         1.41660671161598   -0.11384178341932   -0.28959718356611
N         2.32692944273266   -0.24541133204367   -1.25055242408747
C         3.58293150560586    0.05509452057155   -0.98140146554457
C         4.01159645331940    0.50881398142292    0.25500640296154
C         3.06893376565299    0.61406273001943    1.26858952402426
C         1.75166419190612    0.29144464106708    1.00570859599092
C        -3.44560707229762   -0.49371823516032   -0.45522592927020
C        -3.72867736933833    0.46045261718573    0.49701688452577
C        -2.70775651886783    1.19345755349871    1.10127654447863
C        -1.37962694485182    0.97100910643441    0.79634714924435
H        -1.98180324109709   -2.27651184028396   -2.39354984772211
H         0.66482549952906   -1.83935745603462   -2.16137039543040
H         4.27387773117616   -0.07736951967037   -1.80372541142106
H         5.04729756763575    0.75394485027515    0.42651971429481
H         3.36117091433592    0.93093416461922    2.25944602009361
H         1.01005682910908    0.31225279198557    1.78631177939051
H        -4.23482663712491   -1.03997997480978   -0.95002021686237
H        -4.75408796424079    0.66269618049978    0.76965191555887
H        -2.96207652696236    1.95832002728233    1.82017908277582
H        -0.61321052365672    1.58001545722632    1.24986915150332
25
 energy: -38.784890608533 gnorm: 0.000273583714 xtb: 6.3.3 (4ae9cef)
C        -1.07954297435391   -0.02397044906858   -0.12631109808820
C        -2.11436117783610   -0.73474113306271   -0.78294161862286
C        -1.48565535669856   -1.59923291109065   -1.72801234703602