62
 energy: -117.731017618480 gnorm: 0.107106619359 xtb: 6.3.3 (4ae9cef)
C        -3.00356400000000   -0.14353700000000   -0.36859600000000
O        -2.31530000000000   -0.45989300000000   -1.50615700000000
C        -2.92786800000000   -1.45241100000000   -2.32753500000000
C        -4.39501700000000    0.03258000000000   -0.38900800000000
C        -5.08110700000000    0.41380900000000    0.76253100000000
C        -4.37979500000000    0.64043700000000    1.93831600000000
C        -2.99392500000000    0.48440500000000    1.95875300000000
C        -2.27394000000000    0.08715900000000    0.81007300000000
C        -0.75920700000000   -0.04283300000000    0.95705200000000
C         0.01586000000000   -1.02823000000000    0.03436200000000
C         0.96936100000000   -1.88402200000000    0.88190800000000
C         2.31873900000000   -1.53336700000000    1.07456800000000
C         3.15505200000000   -2.32053300000000    1.86512500000000
C         2.65461800000000   -3.46038600000000    2.48380100000000
C         1.31398500000000   -3.81387300000000    2.32275800000000
C         0.46598500000000   -3.03229500000000    1.53159300000000
O        -0.87027800000000   -3.27923400000000    1.34691100000000
C        -1.39766000000000   -4.47986100000000    1.89646300000000
N         0.72400300000000   -0.16390800000000   -0.92355400000000
C         1.32369100000000   -0.69295000000000   -2.04921200000000
C         2.20603000000000    0.16151700000000   -2.83045900000000
C         2.29330100000000    0.10737900000000   -4.20865400000000
O         3.19821300000000    1.00195200000000   -4.67767300000000
C         3.74103100000000    1.61552000000000   -3.59490400000000
Br        5.09022600000000    2.95241800000000   -3.67876100000000
C         3.18354700000000    1.12254500000000   -2.43720500000000
O         1.14473200000000   -1.86010200000000   -2.38923600000000
C         0.49141400000000    1.24327900000000   -0.62446700000000
C        -0.47839100000000    1.97191500000000   -1.60816200000000
O        -0.56828100000000    1.41088500000000   -2.83304000000000
O        -1.06882500000000    3.02288800000000   -1.39706400000000
N        -0.09164000000000    1.24255100000000    0.70831600000000
C         0.25156500000000    2.07196800000000    1.75967700000000
C         1.13505400000000    3.18938100000000    1.48375300000000
C         2.34981300000000    3.37574700000000    2.11507300000000
O         2.97061000000000    4.48975200000000    1.65222600000000
C         2.12789600000000    5.06555000000000    0.75400500000000
Br        2.49398700000000    6.68096500000000   -0.18025800000000
C         0.98155300000000    4.31450300000000    0.62599100000000
O        -0.09565800000000    1.84394500000000    2.91605100000000
H        -3.69326800000000   -1.00213100000000   -2.96658500000000
H        -2.15328400000000   -1.86946400000000   -2.97816300000000
H        -3.34473300000000   -2.27247300000000   -1.73283500000000
H        -4.96356600000000   -0.09864600000000   -1.30448000000000
H        -6.15887100000000    0.55002300000000    0.73578900000000
H        -4.90418200000000    0.95035800000000    2.83875300000000
H        -2.46633800000000    0.68367500000000    2.89204900000000
H        -0.58542300000000   -0.33332000000000    2.00257900000000
H        -0.61951400000000   -1.71832000000000   -0.52665500000000
H         2.73845000000000   -0.64536200000000    0.61259300000000
H         4.19841000000000   -2.04445000000000    1.99733400000000
H         3.30715200000000   -4.07427300000000    3.09952600000000
H         0.96145400000000   -4.70256900000000    2.83601900000000
H        -1.35101300000000   -4.46515200000000    2.99001600000000
H        -0.88882200000000   -5.35949400000000    1.48810900000000
H        -2.45203800000000   -4.54233300000000    1.61016600000000
H         1.78585100000000   -0.48524600000000   -4.95849800000000
H         3.47084200000000    1.40905000000000   -1.43575500000000
H         1.43678000000000    1.78192300000000   -0.63784100000000
H        -1.23603200000000    1.95869500000000   -3.29682500000000
H         2.88805000000000    2.81882600000000    2.87126500000000
H         0.13028700000000    4.56506800000000    0.00807700000000
62
 energy: -117.746635724674 gnorm: 0.042609335144 xtb: 6.3.3 (4ae9cef)
C        -2.99733523654645   -0.13045530939382   -0.36872200790740
O        -2.30908658166917   -0.47688868489079   -1.50200398778985
C        -2.92288809403880   -1.44857806200255   -2.33574248234677
C        -4.38378445251303    0.03456233547535   -0.38246721370832
C        -5.06392158647852    0.41554358795412    0.76081554230542
C        -4.36218948921991    0.64201782910885    1.93149190006927
C        -2.98593912967577    0.48302151424146    1.94923541675473
C        -2.27511829181253    0.08965486832180    0.81128688898604
C        -0.76514944462263   -0.04422865716209    0.95417149179265
C         0.01290523587455   -1.02740332594336    0.04232959030953
C         0.96885714980732   -1.87330583976824    0.88157506622738
C         2.30425631393287   -1.53301784932484    1.07076774050400
C         3.14011189824560   -2.31476374609389    1.85589749136096
C         2.64318265282023   -3.44839877778661    2.47206076771498
C         1.31122415931844   -3.79945104826273    2.31260677982813
C         0.46635223531675   -3.01978216758877    1.52634219163427
O        -0.86424794326506   -3.27932817268162    1.34011759190239
C        -1.39229051529813   -4.47144725521265    1.89167483738485
N         0.71652853155512   -0.16220460690954   -0.91087905100501
C         1.30050785800451   -0.68917556585828   -2.03415347398606
C         2.18973823042343    0.17715991086541   -2.82660680806066
C         2.28907565061049    0.12780222990659   -4.19664963096821
O         3.21032039859376    1.00120834197500   -4.65160129109819
C         3.73712325802499    1.59990553489693   -3.56618550538493
Br        5.06713976440814    2.91820510113159   -3.72245687596154
C         3.15974360728737    1.13649105554946   -2.42010729922562
O         1.13600558057293   -1.85375160638644   -2.35087676844443
C         0.49009903152929    1.23998700247408   -0.61547457268943
C        -0.46302658880938    1.95939321200510   -1.60275060388657
O        -0.55348475779616    1.39838632660787   -2.81498418901269
O        -1.05359201569415    2.97943708180128   -1.35510967023657
N        -0.08311555463393    1.23080718051453    0.71189499461458
C         0.26593834274969    2.04206196388685    1.75909669997125
C         1.14774143363771    3.18371418172359    1.47331074318141
C         2.35549841847829    3.38520841608423    2.09512695636389
O         2.94690329376608    4.51364493340623    1.64978032094001
C         2.09766988340767    5.06084028749186    0.75568485284795
Br        2.52619386091579    6.65500174379142   -0.13944190641010
C         0.97694722734252    4.29594032225996    0.60497862498140
O        -0.10911208676397    1.81860982459392    2.89551080062220
H        -3.69321500567760   -1.00197181809754   -2.97026529743342
H        -2.13506765220866   -1.85721179038434   -2.97138071405034
H        -3.35290690341443   -2.25686452835851   -1.73838403738329
H        -4.94513423753234   -0.11491855311022   -1.29428283449672
H        -6.13825785816684    0.54436200134248    0.73283048549322
H        -4.88408217482599    0.94416225645187    2.82962096674007
H        -2.45166895248228    0.67737725562760    2.87040049509522
H        -0.58200539720137   -0.31536617698542    2.00113256500322
H        -0.63837213970107   -1.71050860952176   -0.50757938250243
H         2.71431672265956   -0.65007432779575    0.60074324256529
H         4.17805637804473   -2.03865133763720    1.98786482247572
H         3.29022682583370   -4.06216799465955    3.08531962000274
H         0.95408052418096   -4.68582343362312    2.81747999660372
H        -1.33996158374982   -4.46219184402181    2.98422310617675
H        -0.87954967142382   -5.35282646457057    1.49577379801678
H        -2.44215043560700   -4.51440511038253    1.59558978582386
H         1.78362877440681   -0.46187631106111   -4.93884844648943
H         3.45188138551448    1.41465473586152   -1.42604535914326
H         1.42906137149712    1.80420251223662   -0.63196355820546
H        -1.21499726754079    1.92574098233899   -3.30325306760438
H         2.88974745453019    2.82897880169829    2.84341420555495
H         0.13058959507853    4.52895564385088   -0.01193534441771
62
 energy: -117.751916596340 gnorm: 0.014321251898 xtb: 6.3.3 (4ae9cef)
C        -2.98347911824910   -0.12800844317901   -0.36939005778104
O        -2.29366074387490   -0.49417511780516   -1.49807448818184
C        -2.91346902764559   -1.44126272503524   -2.34633821053903
C        -4.36733175981750    0.03001575403084   -0.37951227716516
C        -5.04478203800970    0.41631144401974    0.75885347826312
C        -4.34341536689882    0.64571057511556    1.92805063079365
C        -2.97133958123042    0.48724652335194    1.94309050807462
C        -2.26664155991359    0.09418377111308    0.81133414357144
C        -0.76370108639125   -0.04375286440335    0.95903775468639
C         0.00645590307163   -1.02550499767161    0.04928860918727
C         0.96304277369511   -1.86117104895448    0.87887076441338
C         2.29004903238960   -1.52430808692868    1.06226858815766
C         3.12895082191662   -2.30147034152176    1.84470173704045
C         2.63388561394514   -3.43278241886902    2.45996522171879
C         1.30576187745032   -3.78578131427039    2.30058607592835
C         0.46133131965039   -3.00774764484811    1.51829552652197
O        -0.86363365906535   -3.27622519651334    1.32881657746639
C        -1.39069868486353   -4.46005074076458    1.88393983240739
N         0.71333325069352   -0.16395588259212   -0.89621818048961
C         1.28431623095219   -0.69418755917869   -2.01303082811487
C         2.16808290801850    0.18974326381835   -2.81742169799664
C         2.27776138600728    0.14361191194515   -4.18092169083267
O         3.20630604345358    1.00677577119154   -4.62349981561658
C         3.72231211369393    1.59485091522078   -3.53678131667328
Br        5.05415802186218    2.88050832926863   -3.76652140021902
C         3.13680417448991    1.14476631067801   -2.39544635965648
O         1.12962045516878   -1.85822764768019   -2.31617217611568
C         0.48845725869453    1.23329284465201   -0.60464774430400
C        -0.47305064241796    1.93501021269047   -1.58616098239535
O        -0.52707167829116    1.38121905471498   -2.79309347438062
O        -1.05932481841625    2.94221659883448   -1.31011475412876
N        -0.07493631640299    1.22435996672704    0.71765092527156
C         0.27009906584859    2.02377194256725    1.76144960707616
C         1.16117940349256    3.17369187690879    1.46264154074525
C         2.36147100159372    3.39281871032277    2.08036878291310
O         2.93056170838026    4.52709382682633    1.63679403828241
C         2.07562548057726    5.05155794951944    0.74575194736557
Br        2.55437242062680    6.64225791868794   -0.09624777428205
C         0.96936830186968    4.27666124164737    0.58523282440803
O        -0.11088402609856    1.79650227341090    2.88872030274185
H        -3.68076380748996   -0.98923480113572   -2.98102620358807
H        -2.11683855862616   -1.84208911810361   -2.97138615722967
H        -3.36062083434769   -2.24748238120272   -1.75825777000841
H        -4.92077412995425   -0.13524956523639   -1.29112385632237
H        -6.11728276589047    0.53854936101046    0.72887561734499
H        -4.86415146402248    0.94361100386865    2.82455697272721
H        -2.42849294153452    0.67278584652500    2.85637524111680
H        -0.57884011726301   -0.29887325755042    2.00928854298341
H        -0.65712577737566   -1.70349044160085   -0.49153952376911
H         2.68886296102310   -0.64329377407948    0.58227280327723
H         4.16378752405628   -2.02465619214487    1.97283315222701
H         3.27744237264991   -4.04788196848777    3.07071815225117
H         0.94276341157295   -4.67115613202465    2.79743834673949
H        -1.33556155496647   -4.45259073398448    2.97667109427489
H        -0.87702611355935   -5.34565433588094    1.49841555276252
H        -2.43616908300078   -4.48790179370563    1.58052083001178
H         1.76740749083521   -0.44304396903377   -4.91607217594937
H         3.42606668763803    1.42207292230825   -1.40400072039464
H         1.41947921821593    1.82170659747337   -0.62211485939024
H        -1.17690988752103    1.87981335540055   -3.32343503343649
H         2.89317866735182    2.83478966145661    2.82316195826544
H         0.12568424225323    4.48370275908087   -0.03828915205575
62
 energy: -117.753207635085 gnorm: 0.010485973384 xtb: 6.3.3 (4ae9cef)
C        -2.97075048143186   -0.13228381757288   -0.36870140137986
O        -2.27724662971492   -0.50100097204507   -1.49413162578574
C        -2.89965851330736   -1.42889235061142   -2.35978069965270
C        -4.35433594451546    0.02214254278742   -0.37938606537424
C        -5.03265898558175    0.41445058361093    0.75723217212909
C        -4.33394493865478    0.65135771464873    1.92699066092880
C        -2.96228199130791    0.49209905724235    1.94378733103283
C        -2.25822831370341    0.09587545191845    0.81339419430144
C        -0.76020083717293   -0.04322460497027    0.96806116216707
C         0.00169605632223   -1.02333528006641    0.05551713452384
C         0.95881045250399   -1.85635127431318    0.87654907806893
C         2.28444475853426   -1.51465218554997    1.05502360198363
C         3.12626547998340   -2.28955838791819    1.83626450874128
C         2.63217426368638   -3.42165070809144    2.45164569127239
C         1.30422391586166   -3.77929849740341    2.29345610424230
C         0.45781341571018   -3.00320695571616    1.51290224577141
O        -0.86503831674016   -3.27158459960724    1.31876837862161
C        -1.39594875546720   -4.45010888535556    1.87600659289955
N         0.71147523751010   -0.16464156105821   -0.88616838734662
C         1.27641823134553   -0.69955695278562   -1.99862893633512
C         2.15148703921026    0.19371262690527   -2.80698851242311
C         2.25997898370281    0.14984906297623   -4.16887854393762
O         3.19245519953157    1.00811261963701   -4.60760067976416
C         3.71077957029728    1.59218971415154   -3.52098392147061
Br        5.05345185290776    2.85795094216693   -3.78492954292675
C         3.12076704723343    1.14749657767130   -2.37871247422556
O         1.13113523223959   -1.86697148595040   -2.29445021919205
C         0.48701233404325    1.23017734227287   -0.59613057092033
C        -0.47650867899941    1.92402509567957   -1.58190079404340
O        -0.50849574759807    1.36477541356400   -2.78310350385880
O        -1.10068285194624    2.90627252122858   -1.28683257909439
N        -0.06804332024126    1.22158251286696    0.72669560212873
C         0.27878571805763    2.01517366808535    1.77057058375761
C         1.17284403692568    3.16381134867655    1.46104359248481
C         2.36938558726250    3.39616901717871    2.07868005359914
O         2.92404437198572    4.53485691699105    1.63280990880811
C         2.06712456299964    5.04684321042151    0.73741728935005
Br        2.56001376089950    6.64409325727396   -0.08040601177120
C         0.96975008407408    4.25867388027380    0.57288410733485
O        -0.10489863216897    1.79190868176861    2.89814995961423
H        -3.65637248695732   -0.96173046198754   -2.99733643505789
H        -2.09996794462426   -1.82854326285952   -2.98100596970909
H        -3.36345868920102   -2.23927669637752   -1.78847458287517
H        -4.90399124070940   -0.15427253347256   -1.29119296882557
H        -6.10499226919790    0.53351133215453    0.72473357312841
H        -4.85515113639138    0.95171918339661    2.82192589595144
H        -2.41414416734394    0.67885876554144    2.85381125857600
H        -0.57646376792670   -0.29655429526368    2.01882912776339
H        -0.66757548660616   -1.69802316231819   -0.48175699138836
H         2.67522625200412   -0.63210937699971    0.57033334017935
H         4.16019026824691   -2.00980424577009    1.96151321274524
H         3.27582233154464   -4.03638253137377    3.06187623624835
H         0.94000554939735   -4.66583039268837    2.78634252761657
H        -1.34167756437517   -4.43990486740193    2.96916703220169
H        -0.88431050909700   -5.33968398572714    1.49552721204103
H        -2.43997570196990   -4.47245156296808    1.56959482984347
H         1.73934438250969   -0.43247980783685   -4.90027862379314
H         3.40324599687759    1.42837082941008   -1.38583525063309
H         1.41279601581708    1.82713062368934   -0.61506107657139
H        -1.16257145976393    1.83108796037767   -3.33722776178124
H         2.90385825743529    2.83766199071134    2.81898228434269
H         0.12675111605466    4.44142525678190   -0.06060335426218
62
 energy: -117.753978984977 gnorm: 0.009151502233 xtb: 6.3.3 (4ae9cef)
C        -2.95853134867142   -0.13912802172135   -0.36592705687657
O        -2.25913383395845   -0.50389655249516   -1.48802022026155
C        -2.88132034508486   -1.40804579884512   -2.37898382027296
C        -4.34253692555444    0.01024763051590   -0.37900226624634
C        -5.02321398328607    0.40939278837135    0.75500205838697
C        -4.32885685067485    0.65847853407301    1.92514280886634
C        -2.95701292180960    0.49985968639750    1.94607620941101
C        -2.25120364810008    0.09686467944905    0.81811575561835
C        -0.75683178353258   -0.04327671222715    0.98022150071656
C        -0.00102245615820   -1.02196396310480    0.06468198905950
C         0.95784777322375   -1.85433197987357    0.87724054856103
C         2.28294394349092   -1.50538220242162    1.05150947075048
C         3.12737073496807   -2.27937390299119    1.83042954278947
C         2.63470014224354   -3.41341038658920    2.44475716144274
C         1.30705205352073   -3.77708258374507    2.28804506053276
C         0.45790185657954   -3.00240614404900    1.50950207199495
O        -0.86420748456062   -3.26661067831629    1.30966625226186
C        -1.40363433448308   -4.43974772825189    1.86787316418502
N         0.70749490479371   -0.16458780596455   -0.87626633718500
C         1.26932148693458   -0.70358822677242   -1.98517904418066
C         2.13451856380724    0.19549440746968   -2.79646662956325
C         2.23760144274114    0.15369234581151   -4.15828625841803
O         3.17039012017191    1.01031434972568   -4.59695142398898
C         3.69581915401591    1.59103677101585   -3.51065998103271
Br        5.05119432121651    2.83920146145525   -3.79062045667217
C         3.10927606873105    1.14412517528076   -2.36648233299877
O         1.13341103352861   -1.87425328252751   -2.27514256914191
C         0.48036980844875    1.22815838187819   -0.58762261072524
C        -0.50640350463904    1.89914458729907   -1.57099493735334
O        -0.48996255783797    1.34907120962407   -2.77588338428454
O        -1.15571506573355    2.86399421606483   -1.27412016632984
N        -0.06197147436373    1.21934036128198    0.73889162516027
C         0.29121765238401    2.00993973793200    1.78179263595076
C         1.18752511921844    3.15333298900941    1.46197455880396
C         2.37947014941312    3.40151048650380    2.08268506474761
O         2.92289814941708    4.54127447999817    1.62902067561322
C         2.06447586184510    5.04048568148325    0.72596801862845
Br        2.55132887132953    6.64563038236340   -0.08014555594004
C         0.97458169654581    4.24009460967747    0.56424268945325
O        -0.08673689926518    1.79020059897223    2.91251915934069
H        -3.62139496130454   -0.91787629533670   -3.02063724003844
H        -2.07796079394853   -1.80806600360240   -2.99600851571487
H        -3.36539253436018   -2.22452647320404   -1.83139290881290
H        -4.88927880770087   -0.17613239728817   -1.29068838645177
H        -6.09569155501373    0.52614260952711    0.71867098631874
H        -4.85154876296312    0.96624959626275    2.81689597619794
H        -2.40571709766614    0.69223618088037    2.85381100295866
H        -0.57444727848634   -0.29847505724872    2.03063383925758
H        -0.67367870655425   -1.69449043448010   -0.47024293760909
H         2.66589284646555   -0.62019158088765    0.56468819653321
H         4.16075700585030   -1.99601988512009    1.95336270471039
H         3.27990778443845   -4.02691419187998    3.05459088640991
H         0.94382047512541   -4.66548032512009    2.77839753738531
H        -1.35223581951123   -4.42598611984850    2.96138494763486
H        -0.89671201811934   -5.33400514903110    1.49113171063776
H        -2.44705517548897   -4.45703450701214    1.55869094608425
H         1.70442686854942   -0.42344772775351   -4.88570963261066
H         3.38731561529810    1.42631760807609   -1.37186312902320
H         1.40090223124593    1.83148582777236   -0.61570377483550
H        -1.14040124370669    1.78711951838334   -3.35646956582091
H         2.91730436111383    2.84670098977786    2.82409352542875
H         0.13077407588167    4.39859423537611   -0.07624013944348
62
 energy: -117.754552498676 gnorm: 0.011321691432 xtb: 6.3.3 (4ae9cef)
C        -2.94900924334065   -0.14486877324242   -0.36241260980200
O        -2.24158216111420   -0.50107696620640   -1.48105681177028
C        -2.86049784519342   -1.37817297175673   -2.40213638524277
C        -4.33393519464006   -0.00298333366986   -0.37928332645353
C        -5.01820557720144    0.40240231749987    0.75098608757042
C        -4.32890907120789    0.66655338241688    1.92092046010346
C        -2.95665978943123    0.51021537812801    1.94761189374598
C        -2.24726721230735    0.09863405868650    0.82386438091381
C        -0.75477113346244   -0.04389938839957    0.99242742135816
C        -0.00180137829107   -1.02268325549865    0.07521960617871
C         0.96020910555312   -1.85410659860321    0.88252096081579
C         2.28489124525989   -1.49882858888464    1.05438401237561
C         3.13121634804331   -2.27379987038828    1.82982097268023
C         2.64028450146258   -3.41072795244288    2.44115505482587
C         1.31330665218366   -3.77968364970576    2.28555538654054
C         0.46167091420430   -3.00457158909323    1.50995849827998
O        -0.86067025940406   -3.26288086860289    1.30469702770247
C        -1.41062796364260   -4.43143708951333    1.86236504890463
N         0.70297681223423   -0.16608773879311   -0.86798181854156
C         1.26680241404280   -0.70831356326666   -1.97317697897537
C         2.12183254855018    0.19363618947172   -2.78771127552997
C         2.21383841991029    0.15751793633736   -4.15077320917464
O         3.14485670119656    1.01431881940874   -4.59254777978041
C         3.68181951559539    1.58925510885656   -3.50656773186982
Br        5.04536294865966    2.82719445275454   -3.78664643841682
C         3.10362059088165    1.13593513391326   -2.36019441573023
O         1.13656741330890   -1.88057349045799   -2.26005131547510
C         0.47014167823200    1.22587716787493   -0.58158480185204
C        -0.53132567863170    1.88175099174589   -1.56505665389668
O        -0.48169678602961    1.33823679575482   -2.77163500695066
O        -1.22240130825414    2.81813905981043   -1.26354063343198
N        -0.05700830037314    1.21695662294002    0.75116882743483
C         0.30844239989338    2.00448949566950    1.79294228909925
C         1.20360709115840    3.14334088352312    1.46482528175998
C         2.39059805800451    3.40942814515776    2.08928427049937
O         2.92458240367929    4.54910166348816    1.62574007596926
C         2.06426191171125    5.03429413690252    0.71415200220660
Br        2.53113792710724    6.64262882588746   -0.09768988950904
C         0.98250064392281    4.22123014769130    0.55781561805943
O        -0.05849178090454    1.78629925859628    2.92803615096489
H        -3.58018342650976   -0.86121489676519   -3.04775961182725
H        -2.05195425289699   -1.77848699535955   -3.01342424097301
H        -3.36618506585567   -2.20043081068193   -1.88206660837279
H        -4.87861428181533   -0.19849376786787   -1.29032178655119
H        -6.09124486467597    0.51509531441198    0.71060303954017
H        -4.85423224124401    0.98420256224758    2.80813956166428
H        -2.40540286115486    0.71071608203731    2.85427175623626
H        -0.57436821599384   -0.30196578422784    2.04247308136483
H        -0.67531021480310   -1.69558084438163   -0.45754571018748
H         2.66179741187527   -0.61046803372377    0.56880314792126
H         4.16431841425849   -1.98764939290973    1.95187485726495
H         3.28811350931480   -4.02332707508146    3.04955284598543
H         0.95264507476417   -4.67070196983556    2.77382047254172
H        -1.36321107962903   -4.41511186289706    2.95600294304740
H        -0.91006788304067   -5.33012095164071    1.48768272083179
H        -2.45380912613654   -4.44283353255136    1.55022914988071
H         1.66822524740481   -0.41351129204686   -4.87452291641971
H         3.38271827448417    1.41470796938908   -1.36441051374254
H         1.38508274328310    1.83364586653715   -0.62405444397624
H        -1.13700125596811    1.74623723354655   -3.36479425075316
H         2.93197104093773    2.86354564320765    2.83552980188381
H         0.13704749203563    4.35900625460364   -0.08548854094588
62
 energy: -117.755111812103 gnorm: 0.008662942466 xtb: 6.3.3 (4ae9cef)
C        -2.94132434467887   -0.14834374761786   -0.35889153587940
O        -2.22332870987048   -0.49345971291859   -1.47320282280654
C        -2.83677460735627   -1.33732473951670   -2.42949248116593
C        -4.32739273550044   -0.01692650815579   -0.38100575329562
C        -5.01679473982788    0.39352547837902    0.74442717667565
C        -4.33315127383192    0.67520802562805    1.91353424770557
C        -2.96046455174090    0.52219902507041    1.94766603557432
C        -2.24591923600183    0.10143387179980    0.83017432789314
C        -0.75402006183642   -0.04445987014655    1.00534828433657
C        -0.00188080577599   -1.02535080150260    0.08842258429506
C         0.96496804581934   -1.85450316050485    0.89290142811743
C         2.28910313888689   -1.49503945276342    1.06393147648070
C         3.13695406701703   -2.27290958264647    1.83463068568504
C         2.64824691341814   -3.41399570631771    2.44042559866777
C         1.32206633833291   -3.78659990165428    2.28561073662525
C         0.46839733959972   -3.00871610495326    1.51477754412996
O        -0.85451845528798   -3.26142311297462    1.30508328914548
C        -1.41500682789321   -4.42638378007536    1.86069586493851
N         0.69568297762272   -0.16942083027025   -0.86045989827001
C         1.26387275015593   -0.71372076846735   -1.96289960038439
C         2.11084566043277    0.18888546970944   -2.78056949865919
C         2.18786546043059    0.16320775019786   -4.14546127029613
O         3.11637276952611    1.02119623504713   -4.59146470522185
C         3.66788944725414    1.58648546206483   -3.50558188615511
Br        5.03457966505450    2.82140500854547   -3.77890029240784
C         3.10025334664719    1.12421944986112   -2.35719201754943
O         1.14048659157037   -1.88813325801581   -2.24512966465977
C         0.45536766903705    1.22260382939358   -0.57720798771071
C        -0.56699533750636    1.85948682485577   -1.55543027599905
O        -0.48286820075865    1.33253587036024   -2.76797550670267
O        -1.28437338746076    2.77198459256037   -1.25548801117847
N        -0.05254254126720    1.21431275503456    0.76359289852517
C         0.33176579917787    1.99645926417195    1.80418252769023
C         1.22121266993481    3.13396848518225    1.46889370225158
C         2.40278779638286    3.42117069160280    2.09585099887282
O         2.92600693828238    4.56143846378653    1.62163802966940
C         2.06320091843110    5.02858859499278    0.70079814014356
Br        2.50359667043252    6.63436865641878   -0.13205014414564
C         0.99218494008695    4.20009886930985    0.55015591904736
O        -0.01893851122718    1.77581987899387    2.94436348265934
H        -3.53235784594122   -0.78970000882334   -3.07740224995405
H        -2.02149567184165   -1.73681337655624   -3.03327476330867
H        -3.36649549682259   -2.16428246915024   -1.94192633017952
H        -4.87008740869463   -0.22235102242258   -1.29101193969995
H        -6.09077190056238    0.49880320359179    0.70006150236868
H        -4.86254367222364    1.00372980503206    2.79479278990990
H        -2.41241364877829    0.73281185250095    2.85433461389905
H        -0.57659873063939   -0.30465218196970    2.05540133008843
H        -0.67520729023146   -1.70137161829034   -0.44050560293374
H         2.66186278589870   -0.60287046922878    0.58284842692536
H         4.16989031916041   -1.98525184737552    1.95730590215982
H         3.29957346504461   -4.02710726712227    3.04512811916509
H         0.96492576568224   -4.68136699427478    2.77057492108970
H        -1.37150623423676   -4.40940163323797    2.95423149608727
H        -0.92151086995449   -5.32876373612283    1.48644345837197
H        -2.45788751713818   -4.43027688170595    1.54543067924963
H         1.63047535975599   -0.39987239887427   -4.86657046123855
H         3.38666418836013    1.39358009509832   -1.36068619881305
H         1.36488573458028    1.83459281695615   -0.64224054544067
H        -1.13988791551701    1.71745562998061   -3.36852501487150
H         2.94837651301217    2.88986601992687    2.85023084729628
H         0.14469848537582    4.31935096760367   -0.09334360681401
62
 energy: -117.755630371110 gnorm: 0.011594470472 xtb: 6.3.3 (4ae9cef)
C        -2.93564642260106   -0.14740952609401   -0.35718656153973
O        -2.20606512100588   -0.48188655940232   -1.46644003750011
C        -2.81341529138875   -1.28913661274354   -2.45727846726970
C        -4.32254246145144   -0.02778070128885   -0.38509878754260
C        -5.01799172096565    0.38487755586124    0.73546775861805