      -----------------------------------------------------------      
     |                   =====================                   |     
     |                           x T B                           |     
     |                   =====================                   |     
     |                         S. Grimme                         |     
     |          Mulliken Center for Theoretical Chemistry        |     
     |                    University of Bonn                     |     
      -----------------------------------------------------------      

   * xtb version 6.3.3 (4ae9cef) compiled by 'conda@95abc7406d43' on 2020-10-14

   xtb is free software: you can redistribute it and/or modify it under
   the terms of the GNU Lesser General Public License as published by
   the Free Software Foundation, either version 3 of the License, or
   (at your option) any later version.
   
   xtb is distributed in the hope that it will be useful,
   but WITHOUT ANY WARRANTY; without even the implied warranty of
   MERCHANTABILITY or FITNESS FOR A PARTICULAR PURPOSE.  See the
   GNU Lesser General Public License for more details.
   
   Cite this work as:
   * C. Bannwarth, E. Caldeweyher, S. Ehlert, A. Hansen, P. Pracht,
     J. Seibert, S. Spicher, S. Grimme, WIREs Comput. Mol. Sci., 2020,
     e01493. DOI: 10.1002/wcms.1493
   
   for GFN2-xTB:
   * S. Grimme, C. Bannwarth, P. Shushkov, J. Chem. Theory Comput., 2017,
     13, 1989-2009. DOI: 10.1021/acs.jctc.7b00118
   for GFN1-xTB:
   * C. Bannwarth, S. Ehlert and S. Grimme., J. Chem. Theory Comput., 2019,
     15, 1652-1671. DOI: 10.1021/acs.jctc.8b01176
   for GFN0-xTB:
   * P. Pracht, E. Caldeweyher, S. Ehlert, S. Grimme, ChemRxiv, 2019, preprint.
     DOI: 10.26434/chemrxiv.8326202.v1
   for GFN-FF:
   * S. Spicher and S. Grimme, Angew. Chem. Int. Ed., 2020, 59, 15665-15673.
     DOI: 10.1002/anie.202004239
   
   for DFT-D4:
   * E. Caldeweyher, C. Bannwarth and S. Grimme, J. Chem. Phys., 2017,
     147, 034112. DOI: 10.1063/1.4993215
   * E. Caldeweyher, S. Ehlert, A. Hansen, H. Neugebauer, S. Spicher,
     C. Bannwarth and S. Grimme, J. Chem. Phys., 2019, 150, 154122.
     DOI: 10.1063/1.5090222
   * E. Caldeweyher, J.-M. Mewes, S. Ehlert and S. Grimme, Phys. Chem. Chem. Phys.
     2020, 22, 8499-8512. DOI: 10.1039/D0CP00502A
   
   for sTDA-xTB:
   * S. Grimme and C. Bannwarth, J. Chem. Phys., 2016, 145, 054103.
     DOI: 10.1063/1.4959605
   
   in the mass-spec context:
   * V. Asgeirsson, C. Bauer and S. Grimme, Chem. Sci., 2017, 8, 4879.
     DOI: 10.1039/c7sc00601b
   * J. Koopman and S. Grimme, ACS Omega 2019, 4, 12, 15120-15133.
     DOI: 10.1021/acsomega.9b02011
   
   for metadynamics refer to:
   * S. Grimme, J. Chem. Theory Comput., 2019, 155, 2847-2862
     DOI: 10.1021/acs.jctc.9b00143
   
   with help from (in alphabetical order)
   C. Bannwarth, F. Bohle, G. Brandenburg, E. Caldeweyher, M. Checinski,
   S. Dohm, S. Ehlert, S. Ehrlich, F. März, H. Neugebauer, J. Pisarek,
   P. Pracht, P. Shushkov, and S. Spicher.
   
 * started run on 2022/03/17 at 02:18:12.388     

           -------------------------------------------------
          |                Calculation Setup                |
           -------------------------------------------------

          program call               : xtb acid_98.xyz --opt --chrg 0 --uhf 0 --gfn 2
          coordinate file            : acid_98.xyz
          omp threads                :                    64
          number of atoms            :                    70
          number of electrons        :                   238
          charge                     :                     0
          spin                       :                   0.0
          first test random number   :      0.18131677492797

   ID    Z sym.   atoms
    1    6 C      1-22, 24-28, 34, 35, 39-43
    2    7 N      23, 29, 38, 44
    3    8 O      30-33, 36, 37, 45-48
    4    1 H      49-70

           -------------------------------------------------
          |                 G F N 2 - x T B                 |
           -------------------------------------------------

        Reference                      10.1021/acs.jctc.8b01176
      * Hamiltonian:
        H0-scaling (s, p, d)           1.850000    2.230000    2.230000
        zeta-weighting                 0.500000
      * Dispersion:
        s8                             2.700000
        a1                             0.520000
        a2                             5.000000
        s9                             5.000000
      * Repulsion:
        kExp                           1.500000    1.000000
        rExp                           1.000000
      * Coulomb:
        alpha                          2.000000
        third order                    shell-resolved
        anisotropic                    true
        a3                             3.000000
        a5                             4.000000
        cn-shift                       1.200000
        cn-exp                         4.000000
        max-rad                        5.000000


          ...................................................
          :                      SETUP                      :
          :.................................................:
          :  # basis functions                 214          :
          :  # atomic orbitals                 214          :
          :  # shells                          118          :
          :  # electrons                       238          :
          :  max. iterations                   250          :
          :  Hamiltonian                  GFN2-xTB          :
          :  restarted?                      false          :
          :  GBSA solvation                  false          :
          :  PC potential                    false          :
          :  electronic temp.          300.0000000     K    :
          :  accuracy                    1.0000000          :
          :  -> integral cutoff          0.2500000E+02      :
          :  -> integral neglect         0.1000000E-07      :
          :  -> SCF convergence          0.1000000E-05 Eh   :
          :  -> wf. convergence          0.1000000E-03 e    :
          :  Broyden damping             0.4000000          :
          ...................................................

 iter      E             dE          RMSdq      gap      omega  full diag
   1   -137.4442563 -0.137444E+03  0.505E+00    2.23       0.0  T
   2   -137.7912225 -0.346966E+00  0.267E+00    1.58       1.0  T
   3   -137.7942092 -0.298667E-02  0.140E+00    1.13       1.0  T
   4   -137.8012907 -0.708153E-02  0.621E-01    0.64       1.0  T
   5   -137.8171498 -0.158591E-01  0.130E-01    0.59       1.0  T
   6   -137.8178750 -0.725126E-03  0.608E-02    0.62       1.0  T
   7   -137.8179058 -0.308418E-04  0.332E-02    0.65       1.0  T
   8   -137.8179496 -0.437516E-04  0.141E-02    0.65       1.0  T
   9   -137.8179548 -0.528782E-05  0.563E-03    0.66       2.1  T
  10   -137.8179554 -0.580469E-06  0.206E-03    0.65       5.8  T
  11   -137.8179555 -0.111012E-06  0.872E-04    0.65      13.7  T
  12   -137.8179555 -0.130018E-07  0.464E-04    0.65      25.7  T

   *** convergence criteria satisfied after 12 iterations ***

         #    Occupation            Energy/Eh            Energy/eV
      -------------------------------------------------------------
         1        2.0000           -0.8110180             -22.0689
       ...           ...                  ...                  ...
       113        2.0000           -0.4332646             -11.7897
       114        2.0000           -0.4301778             -11.7057
       115        2.0000           -0.4278283             -11.6418
       116        2.0000           -0.4166563             -11.3378
       117        2.0000           -0.4124785             -11.2241
       118        2.0000           -0.3989132             -10.8550
       119        2.0000           -0.3891669             -10.5898 (HOMO)
       120        0.0000           -0.3652066              -9.9378 (LUMO)
       121                         -0.3501736              -9.5287
       122                         -0.3217467              -8.7552
       123                         -0.3061657              -8.3312
       124                         -0.2934548              -7.9853
       ...                                ...                  ...
       214                          0.6732326              18.3196
      -------------------------------------------------------------
                  HL-Gap            0.0239602 Eh            0.6520 eV
             Fermi-level           -0.3771867 Eh          -10.2638 eV

 SCC (total)                   0 d,  0 h,  0 min,  0.559 sec
 SCC setup                      ...        0 min,  0.019 sec (  3.378%)
 Dispersion                     ...        0 min,  0.025 sec (  4.522%)
 classical contributions        ...        0 min,  0.021 sec (  3.731%)
 integral evaluation            ...        0 min,  0.106 sec ( 18.946%)
 iterations                     ...        0 min,  0.274 sec ( 49.009%)
 molecular gradient             ...        0 min,  0.111 sec ( 19.879%)
 printout                       ...        0 min,  0.003 sec (  0.519%)

         :::::::::::::::::::::::::::::::::::::::::::::::::::::
         ::                     SUMMARY                     ::
         :::::::::::::::::::::::::::::::::::::::::::::::::::::
         :: total energy            -136.164672364188 Eh    ::
         :: gradient norm              0.178275004082 Eh/a0 ::
         :: HOMO-LUMO gap              0.651991514999 eV    ::
         ::.................................................::
         :: SCC energy              -137.817955549683 Eh    ::
         :: -> isotropic ES            0.219997092331 Eh    ::
         :: -> anisotropic ES          0.023292719753 Eh    ::
         :: -> anisotropic XC          0.030958180099 Eh    ::
         :: -> dispersion             -0.096332476687 Eh    ::
         :: repulsion energy           1.650955536391 Eh    ::
         :: add. restraining           0.000000000000 Eh    ::
         :: total charge               0.000000000230 e     ::
         :::::::::::::::::::::::::::::::::::::::::::::::::::::

      ----------------------------------------------------------- 
     |                   =====================                   |
     |                        A N C O P T                        |
     |                   =====================                   |
     |               Approximate Normal Coordinate               |
     |                Rational Function Optimizer                |
      ----------------------------------------------------------- 

          ...................................................
          :                      SETUP                      :
          :.................................................:
          :   optimization level            normal          :
          :   max. optcycles                   210          :
          :   ANC micro-cycles                  20          :
          :   degrees of freedom               204          :
          :.................................................:
          :   RF solver                   davidson          :
          :   write xtbopt.log                true          :
          :   linear?                        false          :
          :   energy convergence         0.5000000E-05 Eh   :
          :   grad. convergence          0.1000000E-02 Eh/α :
          :   maximium RF displ.         1.0000000          :
          :   Hlow (freq-cutoff)         0.1000000E-01      :
          :   Hmax (freq-cutoff)         5.0000000          :
          :   S6 in model hess.         20.0000000          :
          ...................................................

generating ANC from model Hessian ...
Using Lindh-Hessian (1995)
 Shifting diagonal of input Hessian by    9.8738766373102187E-003
 Lowest  eigenvalues of input Hessian
    0.000000    0.000000    0.000000    0.000000    0.000000    0.000000
    0.010000    0.010061    0.010076    0.010145    0.010203    0.010439
    0.010639    0.010687    0.010903    0.011315    0.011917    0.012013
 Highest eigenvalues
    2.157772    2.158872    2.257584    2.269736    2.529272    2.531298


........................................................................
.............................. CYCLE    1 ..............................
........................................................................
   1   -137.8179556 -0.137818E+03  0.161E-04    0.65       0.0  T
   2   -137.8179556 -0.310564E-09  0.105E-04    0.65     113.8  T
   3   -137.8179556 -0.226748E-09  0.654E-05    0.65     182.9  T
     SCC iter.                  ...        0 min,  0.072 sec
     gradient                   ...        0 min,  0.134 sec
 * total energy  :  -136.1646724 Eh     change       -0.6190817E-08 Eh
   gradient norm :     0.1782772 Eh/α   predicted     0.0000000E+00 (-100.00%)
   displ. norm   :     0.3482431 α      lambda       -0.3444581E-01
   maximum displ.:     0.1264896 α      in ANC's #85, #119, #22, ...

........................................................................
.............................. CYCLE    2 ..............................
........................................................................
   1   -137.9077296 -0.137908E+03  0.218E-01    0.94       0.0  T
   2   -137.9084836 -0.753982E-03  0.128E-01    0.92       1.0  T
   3   -137.9085521 -0.685564E-04  0.734E-02    0.91       1.0  T
   4   -137.9086247 -0.725584E-04  0.274E-02    0.90       1.0  T
   5   -137.9086534 -0.286932E-04  0.766E-03    0.90       1.6  T
   6   -137.9086554 -0.206078E-05  0.400E-03    0.90       3.0  T
   7   -137.9086556 -0.126139E-06  0.233E-03    0.90       5.1  T
   8   -137.9086558 -0.182011E-06  0.754E-04    0.90      15.8  T
   9   -137.9086558 -0.174614E-07  0.326E-04    0.90      36.6  T
     SCC iter.                  ...        0 min,  0.208 sec
     gradient                   ...        0 min,  0.144 sec
 * total energy  :  -136.1875324 Eh     change       -0.2286000E-01 Eh
   gradient norm :     0.0752890 Eh/α   predicted    -0.1931159E-01 ( -15.52%)
   displ. norm   :     0.4298411 α      lambda       -0.1415245E-01
   maximum displ.:     0.1987792 α      in ANC's #22, #12, #16, ...

........................................................................
.............................. CYCLE    3 ..............................
........................................................................
   1   -137.9673425 -0.137967E+03  0.212E-01    1.13       0.0  T
   2   -137.9678928 -0.550344E-03  0.126E-01    1.12       1.0  T
   3   -137.9679424 -0.495897E-04  0.730E-02    1.12       1.0  T
   4   -137.9680511 -0.108652E-03  0.216E-02    1.11       1.0  T
   5   -137.9680709 -0.198013E-04  0.684E-03    1.11       1.7  T
   6   -137.9680728 -0.186606E-05  0.336E-03    1.11       3.6  T
   7   -137.9680730 -0.206077E-06  0.184E-03    1.11       6.5  T
   8   -137.9680730 -0.690005E-07  0.578E-04    1.11      20.7  T
   9   -137.9680730 -0.855732E-08  0.252E-04    1.11      47.3  T
     SCC iter.                  ...        0 min,  0.205 sec
     gradient                   ...        0 min,  0.054 sec
 * total energy  :  -136.1941105 Eh     change       -0.6578145E-02 Eh
   gradient norm :     0.0372154 Eh/α   predicted    -0.8383669E-02 (  27.45%)
   displ. norm   :     0.3625105 α      lambda       -0.4972208E-02
   maximum displ.:     0.1845388 α      in ANC's #22, #12, #20, ...

........................................................................
.............................. CYCLE    4 ..............................
........................................................................
   1   -137.9668412 -0.137967E+03  0.130E-01    1.13       0.0  T
   2   -137.9669593 -0.118094E-03  0.775E-02    1.14       1.0  T
   3   -137.9669426  0.166820E-04  0.360E-02    1.14       1.0  T
   4   -137.9669743 -0.317299E-04  0.111E-02    1.14       1.1  T
   5   -137.9669827 -0.839656E-05  0.270E-03    1.14       4.4  T
   6   -137.9669829 -0.183736E-06  0.136E-03    1.14       8.8  T
   7   -137.9669829 -0.924069E-08  0.548E-04    1.14      21.8  T
   8   -137.9669829 -0.792787E-08  0.244E-04    1.14      49.0  T
     SCC iter.                  ...        0 min,  0.186 sec
     gradient                   ...        0 min,  0.138 sec
 * total energy  :  -136.1975511 Eh     change       -0.3440593E-02 Eh
   gradient norm :     0.0241374 Eh/α   predicted    -0.2812812E-02 ( -18.25%)
   displ. norm   :     0.4573534 α      lambda       -0.3377584E-02
   maximum displ.:     0.2278656 α      in ANC's #22, #12, #20, ...

........................................................................
.............................. CYCLE    5 ..............................
........................................................................
   1   -137.9593709 -0.137959E+03  0.136E-01    1.12       0.0  T
   2   -137.9595186 -0.147736E-03  0.811E-02    1.13       1.0  T
   3   -137.9595057  0.129047E-04  0.394E-02    1.14       1.0  T
   4   -137.9595408 -0.350430E-04  0.124E-02    1.14       1.0  T
   5   -137.9595506 -0.981587E-05  0.319E-03    1.14       3.7  T
   6   -137.9595508 -0.222762E-06  0.166E-03    1.14       7.2  T
   7   -137.9595508 -0.160945E-07  0.726E-04    1.14      16.5  T
   8   -137.9595508 -0.125331E-07  0.340E-04    1.14      35.2  T
     SCC iter.                  ...        0 min,  0.185 sec
     gradient                   ...        0 min,  0.131 sec
 * total energy  :  -136.2000737 Eh     change       -0.2522565E-02 Eh
   gradient norm :     0.0254723 Eh/α   predicted    -0.2042046E-02 ( -19.05%)
   displ. norm   :     0.5239299 α      lambda       -0.3058922E-02
   maximum displ.:     0.2852408 α      in ANC's #12, #22, #15, ...

........................................................................
.............................. CYCLE    6 ..............................
........................................................................
   1   -137.9580656 -0.137958E+03  0.147E-01    1.12       0.0  T
   2   -137.9582087 -0.143055E-03  0.859E-02    1.13       1.0  T
   3   -137.9581888  0.199029E-04  0.428E-02    1.14       1.0  T
   4   -137.9582362 -0.474705E-04  0.121E-02    1.14       1.0  T
   5   -137.9582457 -0.945787E-05  0.323E-03    1.14       3.7  T
   6   -137.9582459 -0.169016E-06  0.181E-03    1.14       6.6  T
   7   -137.9582459 -0.289022E-07  0.797E-04    1.14      15.0  T
   8   -137.9582459 -0.191257E-07  0.372E-04    1.14      32.1  T
     SCC iter.                  ...        0 min,  0.186 sec
     gradient                   ...        0 min,  0.139 sec
 * total energy  :  -136.2021820 Eh     change       -0.2108341E-02 Eh
   gradient norm :     0.0288869 Eh/α   predicted    -0.1949316E-02 (  -7.54%)
   displ. norm   :     0.5198349 α      lambda       -0.3062603E-02
   maximum displ.:     0.2983000 α      in ANC's #12, #15, #22, ...

........................................................................
.............................. CYCLE    7 ..............................
........................................................................
   1   -137.9636614 -0.137964E+03  0.148E-01    1.14       0.0  T
   2   -137.9637894 -0.127985E-03  0.856E-02    1.15       1.0  T
   3   -137.9637745  0.149319E-04  0.411E-02    1.16       1.0  T
   4   -137.9638142 -0.397630E-04  0.103E-02    1.16       1.2  T
   5   -137.9638208 -0.656541E-05  0.340E-03    1.16       3.5  T
   6   -137.9638210 -0.175778E-06  0.182E-03    1.16       6.6  T
   7   -137.9638210 -0.380570E-07  0.686E-04    1.16      17.4  T
   8   -137.9638210 -0.103339E-07  0.347E-04    1.16      34.4  T
     SCC iter.                  ...        0 min,  0.185 sec
     gradient                   ...        0 min,  0.141 sec
 * total energy  :  -136.2042316 Eh     change       -0.2049631E-02 Eh
   gradient norm :     0.0262457 Eh/α   predicted    -0.1945113E-02 (  -5.10%)
   displ. norm   :     0.4529300 α      lambda       -0.2525074E-02
   maximum displ.:     0.2425440 α      in ANC's #12, #5, #15, ...

........................................................................
.............................. CYCLE    8 ..............................
........................................................................
   1   -137.9743111 -0.137974E+03  0.140E-01    1.19       0.0  T
   2   -137.9744320 -0.120983E-03  0.806E-02    1.19       1.0  T
   3   -137.9744194  0.126918E-04  0.368E-02    1.19       1.0  T
   4   -137.9744489 -0.295623E-04  0.918E-03    1.19       1.3  T
   5   -137.9744546 -0.571975E-05  0.304E-03    1.19       3.9  T
   6   -137.9744549 -0.269272E-06  0.157E-03    1.19       7.6  T
   7   -137.9744549 -0.229202E-07  0.689E-04    1.19      17.3  T
   8   -137.9744549 -0.743279E-08  0.294E-04    1.19      40.6  T
     SCC iter.                  ...        0 min,  0.186 sec
     gradient                   ...        0 min,  0.050 sec
 * total energy  :  -136.2061712 Eh     change       -0.1939520E-02 Eh
   gradient norm :     0.0178841 Eh/α   predicted    -0.1521544E-02 ( -21.55%)
   displ. norm   :     0.5213461 α      lambda       -0.2146770E-02
   maximum displ.:     0.2511271 α      in ANC's #12, #5, #31, ...

........................................................................
.............................. CYCLE    9 ..............................
........................................................................
   1   -137.9822579 -0.137982E+03  0.156E-01    1.20       0.0  T
   2   -137.9823362 -0.783722E-04  0.901E-02    1.20       1.0  T
   3   -137.9822821  0.540977E-04  0.403E-02    1.20       1.0  T
   4   -137.9823591 -0.769770E-04  0.912E-03    1.20       1.3  T
   5   -137.9823648 -0.562941E-05  0.315E-03    1.20       3.8  T
   6   -137.9823648 -0.962944E-07  0.163E-03    1.20       7.4  T
   7   -137.9823649 -0.217037E-07  0.670E-04    1.20      17.8  T
   8   -137.9823649 -0.168779E-07  0.278E-04    1.20      42.9  T
     SCC iter.                  ...        0 min,  0.187 sec
     gradient                   ...        0 min,  0.150 sec
 * total energy  :  -136.2076731 Eh     change       -0.1501899E-02 Eh
   gradient norm :     0.0138629 Eh/α   predicted    -0.1365137E-02 (  -9.11%)
   displ. norm   :     0.5759253 α      lambda       -0.1860342E-02
   maximum displ.:     0.2379512 α      in ANC's #5, #12, #31, ...

........................................................................
.............................. CYCLE   10 ..............................
........................................................................
   1   -137.9784317 -0.137978E+03  0.191E-01    1.19       0.0  T
   2   -137.9788683 -0.436631E-03  0.115E-01    1.18       1.0  T
   3   -137.9788991 -0.307758E-04  0.592E-02    1.18       1.0  T
   4   -137.9789313 -0.322211E-04  0.175E-02    1.18       1.0  T
   5   -137.9789558 -0.245037E-04  0.449E-03    1.18       2.7  T
   6   -137.9789563 -0.536530E-06  0.249E-03    1.18       4.8  T
   7   -137.9789564 -0.106306E-06  0.119E-03    1.18      10.0  T
   8   -137.9789565 -0.245734E-07  0.543E-04    1.18      22.0  T
   9   -137.9789565 -0.104242E-07  0.177E-04    1.18      67.3  T
     SCC iter.                  ...        0 min,  0.209 sec
     gradient                   ...        0 min,  0.129 sec
 * total energy  :  -136.2080871 Eh     change       -0.4139961E-03 Eh
   gradient norm :     0.0430743 Eh/α   predicted    -0.1238704E-02 ( 199.21%)
   displ. norm   :     0.2445043 α      lambda       -0.2120976E-02
   maximum displ.:     0.0922629 α      in ANC's #5, #14, #10, ...

........................................................................
.............................. CYCLE   11 ..............................
........................................................................
   1   -137.9896389 -0.137990E+03  0.864E-02    1.19       0.0  T
   2   -137.9898311 -0.192255E-03  0.563E-02    1.19       1.0  T
   3   -137.9898569 -0.257476E-04  0.309E-02    1.19       1.0  T
   4   -137.9898570 -0.161146E-06  0.101E-02    1.19       1.2  T
   5   -137.9898624 -0.536272E-05  0.308E-03    1.19       3.9  T
   6   -137.9898627 -0.339480E-06  0.143E-03    1.19       8.4  T
   7   -137.9898628 -0.282067E-07  0.707E-04    1.19      16.9  T
   8   -137.9898628  0.103626E-09  0.344E-04    1.19      34.7  T
     SCC iter.                  ...        0 min,  0.189 sec
     gradient                   ...        0 min,  0.116 sec
 * total energy  :  -136.2086470 Eh     change       -0.5599227E-03 Eh
   gradient norm :     0.0324669 Eh/α   predicted    -0.1123903E-02 ( 100.72%)
   displ. norm   :     0.2828879 α      lambda       -0.2084580E-02
   maximum displ.:     0.1168955 α      in ANC's #5, #12, #10, ...

........................................................................
.............................. CYCLE   12 ..............................
........................................................................
   1   -137.9805383 -0.137981E+03  0.103E-01    1.19       0.0  T
   2   -137.9808957 -0.357406E-03  0.680E-02    1.21       1.0  T
   3   -137.9809708 -0.751586E-04  0.367E-02    1.22       1.0  T
   4   -137.9809602  0.106341E-04  0.164E-02    1.22       1.0  T
   5   -137.9809762 -0.160536E-04  0.339E-03    1.22       3.5  T
   6   -137.9809766 -0.393675E-06  0.146E-03    1.22       8.2  T
   7   -137.9809767 -0.511783E-07  0.779E-04    1.22      15.3  T
   8   -137.9809767 -0.554837E-08  0.429E-04    1.22      27.9  T
     SCC iter.                  ...        0 min,  0.185 sec
     gradient                   ...        0 min,  0.127 sec
 * total energy  :  -136.2089720 Eh     change       -0.3250321E-03 Eh
   gradient norm :     0.0319648 Eh/α   predicted    -0.1125701E-02 ( 246.34%)
   displ. norm   :     0.1556304 α      lambda       -0.1334906E-02
   maximum displ.:     0.0830285 α      in ANC's #5, #23, #14, ...

........................................................................
.............................. CYCLE   13 ..............................
........................................................................
   1   -137.9841746 -0.137984E+03  0.590E-02    1.22       0.0  T
   2   -137.9842886 -0.114030E-03  0.384E-02    1.21       1.0  T
   3   -137.9843034 -0.147205E-04  0.215E-02    1.21       1.0  T
   4   -137.9843002  0.311386E-05  0.949E-03    1.21       1.3  T
   5   -137.9843052 -0.495802E-05  0.208E-03    1.21       5.7  T
   6   -137.9843054 -0.164441E-06  0.100E-03    1.21      11.9  T
   7   -137.9843054 -0.265078E-07  0.536E-04    1.21      22.3  T
   8   -137.9843054 -0.341157E-08  0.242E-04    1.21      49.4  T
     SCC iter.                  ...        0 min,  0.191 sec
     gradient                   ...        0 min,  0.141 sec
 * total energy  :  -136.2097193 Eh     change       -0.7473182E-03 Eh
   gradient norm :     0.0122323 Eh/α   predicted    -0.6836310E-03 (  -8.52%)
   displ. norm   :     0.2917724 α      lambda       -0.5363739E-03
   maximum displ.:     0.1696750 α      in ANC's #5, #10, #14, ...

........................................................................
.............................. CYCLE   14 ..............................
........................................................................
   1   -137.9834985 -0.137983E+03  0.720E-02    1.20       0.0  T
   2   -137.9835373 -0.388408E-04  0.436E-02    1.20       1.0  T
   3   -137.9835435 -0.616359E-05  0.235E-02    1.20       1.0  T
   4   -137.9835505 -0.698140E-05  0.446E-03    1.20       2.7  T
   5   -137.9835516 -0.113263E-05  0.160E-03    1.20       7.5  T
   6   -137.9835516 -0.914864E-08  0.817E-04    1.20      14.6  T
   7   -137.9835516 -0.166603E-07  0.324E-04    1.20      36.9  T
     SCC iter.                  ...        0 min,  0.167 sec
     gradient                   ...        0 min,  0.136 sec
 * total energy  :  -136.2099623 Eh     change       -0.2429921E-03 Eh
   gradient norm :     0.0149581 Eh/α   predicted    -0.2910246E-03 (  19.77%)
   displ. norm   :     0.3262595 α      lambda       -0.6188512E-03
   maximum displ.:     0.2116038 α      in ANC's #5, #10, #14, ...

........................................................................
.............................. CYCLE   15 ..............................
........................................................................
   1   -137.9859290 -0.137986E+03  0.698E-02    1.20       0.0  T
   2   -137.9859405 -0.114888E-04  0.419E-02    1.20       1.0  T
   3   -137.9859269  0.135985E-04  0.196E-02    1.20       1.0  T
   4   -137.9859460 -0.191594E-04  0.369E-03    1.20       3.2  T
   5   -137.9859468 -0.751086E-06  0.157E-03    1.20       7.6  T
   6   -137.9859468 -0.100061E-07  0.785E-04    1.20      15.2  T
   7   -137.9859468 -0.195419E-07  0.304E-04    1.20      39.4  T
     SCC iter.                  ...        0 min,  0.162 sec
     gradient                   ...        0 min,  0.125 sec
 * total energy  :  -136.2104069 Eh     change       -0.4445344E-03 Eh
   gradient norm :     0.0115367 Eh/α   predicted    -0.3423630E-03 ( -22.98%)
   displ. norm   :     0.4026336 α      lambda       -0.5649068E-03
   maximum displ.:     0.2745898 α      in ANC's #5, #10, #14, ...

........................................................................
.............................. CYCLE   16 ..............................
........................................................................
   1   -137.9877647 -0.137988E+03  0.777E-02    1.21       0.0  T
   2   -137.9877898 -0.250857E-04  0.460E-02    1.21       1.0  T
   3   -137.9877796  0.101973E-04  0.192E-02    1.21       1.0  T
   4   -137.9877946 -0.150648E-04  0.497E-03    1.22       2.4  T
   5   -137.9877964 -0.175961E-05  0.161E-03    1.22       7.4  T
   6   -137.9877965 -0.469934E-07  0.873E-04    1.21      13.7  T
   7   -137.9877965 -0.774654E-08  0.437E-04    1.21      27.3  T
     SCC iter.                  ...        0 min,  0.164 sec
     gradient                   ...        0 min,  0.144 sec
 * total energy  :  -136.2107871 Eh     change       -0.3802081E-03 Eh
   gradient norm :     0.0074552 Eh/α   predicted    -0.3282435E-03 ( -13.67%)
   displ. norm   :     0.4787442 α      lambda       -0.4519128E-03
   maximum displ.:     0.3236798 α      in ANC's #5, #10, #14, ...

........................................................................
.............................. CYCLE   17 ..............................
........................................................................
   1   -137.9824982 -0.137982E+03  0.948E-02    1.20       0.0  T
   2   -137.9825183 -0.201633E-04  0.561E-02    1.21       1.0  T
   3   -137.9824973  0.210276E-04  0.235E-02    1.20       1.0  T
   4   -137.9825254 -0.280579E-04  0.494E-03    1.21       2.4  T
   5   -137.9825264 -0.106936E-05  0.227E-03    1.20       5.3  T
   6   -137.9825265 -0.710195E-07  0.113E-03    1.20      10.6  T
   7   -137.9825265 -0.658966E-08  0.498E-04    1.20      24.0  T
   8   -137.9825265 -0.112435E-07  0.168E-04    1.20      71.0  T
     SCC iter.                  ...        0 min,  0.191 sec
     gradient                   ...        0 min,  0.126 sec
 * total energy  :  -136.2110081 Eh     change       -0.2209936E-03 Eh
   gradient norm :     0.0114567 Eh/α   predicted    -0.2777533E-03 (  25.68%)
   displ. norm   :     0.2858328 α      lambda       -0.3814645E-03
   maximum displ.:     0.1932361 α      in ANC's #5, #12, #10, ...

........................................................................
.............................. CYCLE   18 ..............................
........................................................................
   1   -137.9861964 -0.137986E+03  0.515E-02    1.20       0.0  T
   2   -137.9862062 -0.986250E-05  0.305E-02    1.20       1.0  T
   3   -137.9862037  0.253699E-05  0.131E-02    1.20       1.0  T
   4   -137.9862087 -0.496866E-05  0.252E-03    1.20       4.7  T
   5   -137.9862089 -0.269693E-06  0.118E-03    1.20      10.1  T
   6   -137.9862090 -0.280389E-07  0.598E-04    1.20      20.0  T
   7   -137.9862090 -0.285252E-08  0.280E-04    1.20      42.7  T
     SCC iter.                  ...        0 min,  0.164 sec
     gradient                   ...        0 min,  0.135 sec
 * total energy  :  -136.2112633 Eh     change       -0.2552738E-03 Eh
   gradient norm :     0.0091325 Eh/α   predicted    -0.2063168E-03 ( -19.18%)
   displ. norm   :     0.3685686 α      lambda       -0.3589394E-03
   maximum displ.:     0.2743200 α      in ANC's #5, #10, #12, ...

........................................................................
.............................. CYCLE   19 ..............................
........................................................................
   1   -137.9864382 -0.137986E+03  0.719E-02    1.20       0.0  T
   2   -137.9864499 -0.116869E-04  0.425E-02    1.20       1.0  T
   3   -137.9864444  0.555471E-05  0.127E-02    1.20       1.0  T
   4   -137.9864520 -0.760606E-05  0.305E-03    1.20       3.9  T
   5   -137.9864525 -0.516045E-06  0.126E-03    1.20       9.5  T
   6   -137.9864525 -0.257510E-07  0.658E-04    1.20      18.2  T
   7   -137.9864525 -0.462273E-08  0.272E-04    1.20      44.0  T
     SCC iter.                  ...        0 min,  0.164 sec
     gradient                   ...        0 min,  0.030 sec
 * total energy  :  -136.2114865 Eh     change       -0.2232143E-03 Eh
   gradient norm :     0.0107963 Eh/α   predicted    -0.2038523E-03 (  -8.67%)
   displ. norm   :     0.3711916 α      lambda       -0.3599470E-03
   maximum displ.:     0.2685004 α      in ANC's #5, #12, #11, ...

........................................................................
.............................. CYCLE   20 ..............................
........................................................................
   1   -137.9899415 -0.137990E+03  0.753E-02    1.21       0.0  T
   2   -137.9899503 -0.889739E-05  0.444E-02    1.21       1.0  T
   3   -137.9899416  0.873524E-05  0.150E-02    1.21       1.0  T
   4   -137.9899527 -0.110538E-04  0.313E-03    1.21       3.8  T
   5   -137.9899531 -0.422709E-06  0.131E-03    1.21       9.2  T
   6   -137.9899531 -0.302897E-07  0.647E-04    1.21      18.5  T
   7   -137.9899531 -0.666773E-10  0.320E-04    1.21      37.4  T
     SCC iter.                  ...        0 min,  0.164 sec
     gradient                   ...        0 min,  0.142 sec
 * total energy  :  -136.2117024 Eh     change       -0.2158211E-03 Eh
   gradient norm :     0.0091074 Eh/α   predicted    -0.2047744E-03 (  -5.12%)
   displ. norm   :     0.4042194 α      lambda       -0.3274789E-03
   maximum displ.:     0.3112222 α      in ANC's #5, #10, #11, ...
 * RMSD in coord.:     0.6702068 α      energy gain  -0.4703001E-01 Eh

generating ANC from model Hessian ...
Using Lindh-Hessian (1995)
 Shifting diagonal of input Hessian by    9.8692134353031424E-003
 Lowest  eigenvalues of input Hessian
    0.000000    0.000000    0.000000    0.000000    0.000000    0.000000
    0.010000    0.010060    0.010089    0.010146    0.010279    0.010515
    0.010724    0.010840    0.011037    0.011655    0.011867    0.012423
 Highest eigenvalues
    2.287319    2.354928    2.357238    2.376665    2.692574    2.720268


........................................................................
.............................. CYCLE   21 ..............................
........................................................................
   1   -137.9869152 -0.137987E+03  0.840E-02    1.20       0.0  T
   2   -137.9869400 -0.248287E-04  0.497E-02    1.21       1.0  T
   3   -137.9869293  0.106813E-04  0.214E-02    1.21       1.0  T
   4   -137.9869453 -0.160037E-04  0.534E-03    1.21       2.2  T
   5   -137.9869467 -0.138459E-05  0.213E-03    1.21       5.6  T
   6   -137.9869468 -0.109633E-06  0.108E-03    1.21      11.1  T
   7   -137.9869468 -0.308358E-08  0.418E-04    1.21      28.6  T
   8   -137.9869468 -0.668763E-08  0.156E-04    1.21      76.9  T
     SCC iter.                  ...        0 min,  0.192 sec
     gradient                   ...        0 min,  0.126 sec
 * total energy  :  -136.2118562 Eh     change       -0.1538789E-03 Eh
   gradient norm :     0.0110493 Eh/α   predicted     0.0000000E+00 (-100.00%)
   displ. norm   :     0.0661159 α      lambda       -0.2173637E-03
   maximum displ.:     0.0349010 α      in ANC's #5, #14, #19, ...

........................................................................
.............................. CYCLE   22 ..............................
........................................................................
   1   -137.9880156 -0.137988E+03  0.212E-02    1.21       0.0  T
   2   -137.9880209 -0.521311E-05  0.126E-02    1.21       1.0  T
   3   -137.9880211 -0.263618E-06  0.668E-03    1.21       1.8  T
   4   -137.9880216 -0.452942E-06  0.224E-03    1.21       5.3  T
   5   -137.9880218 -0.207675E-06  0.787E-04    1.21      15.2  T
   6   -137.9880218 -0.246254E-07  0.358E-04    1.21      33.4  T
     SCC iter.                  ...        0 min,  0.140 sec
     gradient                   ...        0 min,  0.150 sec
 * total energy  :  -136.2120060 Eh     change       -0.1497041E-03 Eh
   gradient norm :     0.0045025 Eh/α   predicted    -0.1092456E-03 ( -27.03%)
   displ. norm   :     0.1178596 α      lambda       -0.1672423E-03
   maximum displ.:     0.0709342 α      in ANC's #5, #14, #11, ...

........................................................................
.............................. CYCLE   23 ..............................
........................................................................
   1   -137.9888774 -0.137989E+03  0.319E-02    1.21       0.0  T
   2   -137.9888839 -0.645033E-05  0.187E-02    1.21       1.0  T
   3   -137.9888834  0.531021E-06  0.854E-03    1.22       1.4  T
   4   -137.9888848 -0.144453E-05  0.224E-03    1.22       5.3  T
   5   -137.9888850 -0.229456E-06  0.847E-04    1.22      14.1  T
   6   -137.9888851 -0.240168E-07  0.419E-04    1.22      28.5  T
     SCC iter.                  ...        0 min,  0.138 sec
     gradient                   ...        0 min,  0.118 sec
 * total energy  :  -136.2120879 Eh     change       -0.8193885E-04 Eh
   gradient norm :     0.0047640 Eh/α   predicted    -0.8486655E-04 (   3.57%)
   displ. norm   :     0.1013996 α      lambda       -0.9115867E-04
   maximum displ.:     0.0642398 α      in ANC's #5, #14, #8, ...

........................................................................
.............................. CYCLE   24 ..............................
........................................................................
   1   -137.9888624 -0.137989E+03  0.231E-02    1.22       0.0  T
   2   -137.9888634 -0.103717E-05  0.135E-02    1.22       1.0  T
   3   -137.9888625  0.890376E-06  0.482E-03    1.22       2.5  T
   4   -137.9888637 -0.117465E-05  0.113E-03    1.22      10.6  T
   5   -137.9888638 -0.618030E-07  0.516E-04    1.22      23.2  T
   6   -137.9888638 -0.249477E-08  0.244E-04    1.22      48.9  T
     SCC iter.                  ...        0 min,  0.143 sec
     gradient                   ...        0 min,  0.133 sec
 * total energy  :  -136.2121504 Eh     change       -0.6247529E-04 Eh
   gradient norm :     0.0050485 Eh/α   predicted    -0.4604902E-04 ( -26.29%)
   displ. norm   :     0.1398762 α      lambda       -0.8848454E-04
   maximum displ.:     0.0874259 α      in ANC's #5, #8, #14, ...

........................................................................
.............................. CYCLE   25 ..............................
........................................................................
   1   -137.9884135 -0.137988E+03  0.303E-02    1.22       0.0  T
   2   -137.9884148 -0.130631E-05  0.177E-02    1.22       1.0  T
   3   -137.9884130  0.182951E-05  0.615E-03    1.22       1.9  T
   4   -137.9884153 -0.231353E-05  0.136E-03    1.22       8.8  T
   5   -137.9884154 -0.722988E-07  0.701E-04    1.22      17.0  T
   6   -137.9884154 -0.746991E-08  0.363E-04    1.22      32.9  T
     SCC iter.                  ...        0 min,  0.138 sec
     gradient                   ...        0 min,  0.148 sec
 * total energy  :  -136.2122226 Eh     change       -0.7219479E-04 Eh
   gradient norm :     0.0037185 Eh/α   predicted    -0.4511072E-04 ( -37.52%)
   displ. norm   :     0.2339807 α      lambda       -0.1205902E-03
   maximum displ.:     0.1455967 α      in ANC's #5, #8, #11, ...

........................................................................
.............................. CYCLE   26 ..............................
........................................................................
   1   -137.9876775 -0.137988E+03  0.509E-02    1.22       0.0  T
   2   -137.9876803 -0.278820E-05  0.298E-02    1.22       1.0  T
   3   -137.9876782  0.212250E-05  0.754E-03    1.23       1.6  T
   4   -137.9876812 -0.303556E-05  0.200E-03    1.23       6.0  T
   5   -137.9876814 -0.111741E-06  0.114E-03    1.23      10.4  T
   6   -137.9876814 -0.228319E-07  0.522E-04    1.23      22.9  T
   7   -137.9876814 -0.334856E-08  0.175E-04    1.23      68.5  T
     SCC iter.                  ...        0 min,  0.167 sec
     gradient                   ...        0 min,  0.135 sec
 * total energy  :  -136.2123134 Eh     change       -0.9084620E-04 Eh
   gradient norm :     0.0032038 Eh/α   predicted    -0.6359953E-04 ( -29.99%)
   displ. norm   :     0.2412326 α      lambda       -0.9431189E-04
   maximum displ.:     0.1523738 α      in ANC's #5, #8, #2, ...

........................................................................
.............................. CYCLE   27 ..............................
........................................................................
   1   -137.9873053 -0.137987E+03  0.525E-02    1.23       0.0  T
   2   -137.9873076 -0.232787E-05  0.307E-02    1.23       1.0  T
   3   -137.9873060  0.159450E-05  0.688E-03    1.23       1.7  T
   4   -137.9873085 -0.245260E-05  0.185E-03    1.23       6.5  T
   5   -137.9873085 -0.640054E-07  0.109E-03    1.23      11.0  T
   6   -137.9873085 -0.147405E-07  0.380E-04    1.23      31.5  T
   7   -137.9873086 -0.357744E-08  0.131E-04    1.23      91.4  T
     SCC iter.                  ...        0 min,  0.163 sec
     gradient                   ...        0 min,  0.123 sec
 * total energy  :  -136.2123869 Eh     change       -0.7346109E-04 Eh
   gradient norm :     0.0040275 Eh/α   predicted    -0.4990081E-04 ( -32.07%)
   displ. norm   :     0.2437094 α      lambda       -0.9415687E-04
   maximum displ.:     0.1568310 α      in ANC's #5, #8, #2, ...

........................................................................
.............................. CYCLE   28 ..............................
........................................................................
   1   -137.9876559 -0.137988E+03  0.518E-02    1.23       0.0  T
   2   -137.9876581 -0.214563E-05  0.304E-02    1.23       1.0  T
   3   -137.9876566  0.144123E-05  0.648E-03    1.23       1.8  T
   4   -137.9876589 -0.223741E-05  0.196E-03    1.23       6.1  T
   5   -137.9876589 -0.774491E-07  0.111E-03    1.23      10.8  T
   6   -137.9876589 -0.992662E-08  0.399E-04    1.23      29.9  T
   7   -137.9876589 -0.592237E-08  0.149E-04    1.23      80.4  T
     SCC iter.                  ...        0 min,  0.164 sec
     gradient                   ...        0 min,  0.136 sec
 * total energy  :  -136.2124646 Eh     change       -0.7776089E-04 Eh
   gradient norm :     0.0042557 Eh/α   predicted    -0.4987785E-04 ( -35.86%)
   displ. norm   :     0.2842586 α      lambda       -0.1137575E-03
   maximum displ.:     0.1854554 α      in ANC's #5, #8, #2, ...

........................................................................
.............................. CYCLE   29 ..............................
........................................................................
   1   -137.9885106 -0.137989E+03  0.593E-02    1.23       0.0  T
   2   -137.9885139 -0.326640E-05  0.348E-02    1.23       1.0  T
   3   -137.9885111  0.279723E-05  0.836E-03    1.23       1.4  T
   4   -137.9885150 -0.393586E-05  0.230E-03    1.23       5.2  T
   5   -137.9885152 -0.121445E-06  0.126E-03    1.23       9.5  T
   6   -137.9885152 -0.110535E-07  0.462E-04    1.23      25.8  T
   7   -137.9885152 -0.517497E-08  0.171E-04    1.23      69.7  T
     SCC iter.                  ...        0 min,  0.160 sec
     gradient                   ...        0 min,  0.131 sec
 * total energy  :  -136.2125546 Eh     change       -0.8999571E-04 Eh
   gradient norm :     0.0036560 Eh/α   predicted    -0.6148192E-04 ( -31.68%)
   displ. norm   :     0.3095351 α      lambda       -0.1035317E-03
   maximum displ.:     0.2036108 α      in ANC's #5, #8, #2, ...

........................................................................
.............................. CYCLE   30 ..............................
........................................................................
   1   -137.9888730 -0.137989E+03  0.621E-02    1.23       0.0  T
   2   -137.9888759 -0.291095E-05  0.364E-02    1.23       1.0  T
   3   -137.9888734  0.257167E-05  0.796E-03    1.23       1.5  T
   4   -137.9888771 -0.375963E-05  0.241E-03    1.23       5.0  T
   5   -137.9888772 -0.108477E-06  0.132E-03    1.23       9.1  T
   6   -137.9888772 -0.113925E-07  0.446E-04    1.23      26.8  T
   7   -137.9888772 -0.797704E-08  0.192E-04    1.23      62.3  T
     SCC iter.                  ...        0 min,  0.163 sec
     gradient                   ...        0 min,  0.133 sec
 * total energy  :  -136.2126326 Eh     change       -0.7801463E-04 Eh
   gradient norm :     0.0036482 Eh/α   predicted    -0.5672649E-04 ( -27.29%)
   displ. norm   :     0.2920466 α      lambda       -0.9063177E-04
   maximum displ.:     0.1934876 α      in ANC's #5, #8, #2, ...

........................................................................
.............................. CYCLE   31 ..............................
........................................................................
   1   -137.9892947 -0.137989E+03  0.565E-02    1.23       0.0  T
   2   -137.9892984 -0.371183E-05  0.332E-02    1.23       1.0  T
   3   -137.9892946  0.384701E-05  0.102E-02    1.23       1.2  T
   4   -137.9892998 -0.527001E-05  0.220E-03    1.23       5.4  T
   5   -137.9892999 -0.109343E-06  0.125E-03    1.23       9.5  T
   6   -137.9893000 -0.176917E-07  0.401E-04    1.23      29.8  T
   7   -137.9893000 -0.270157E-08  0.179E-04    1.23      66.7  T
     SCC iter.                  ...        0 min,  0.161 sec
     gradient                   ...        0 min,  0.139 sec
 * total energy  :  -136.2126944 Eh     change       -0.6179152E-04 Eh
   gradient norm :     0.0031422 Eh/α   predicted    -0.4918229E-04 ( -20.41%)
   displ. norm   :     0.2573836 α      lambda       -0.7335632E-04
   maximum displ.:     0.1703162 α      in ANC's #5, #2, #8, ...

........................................................................
.............................. CYCLE   32 ..............................
........................................................................
   1   -137.9895633 -0.137990E+03  0.476E-02    1.24       0.0  T
   2   -137.9895652 -0.193997E-05  0.278E-02    1.24       1.0  T
   3   -137.9895637  0.159027E-05  0.632E-03    1.24       1.9  T
   4   -137.9895660 -0.232209E-05  0.176E-03    1.24       6.8  T
   5   -137.9895660 -0.505669E-07  0.984E-04    1.24      12.2  T
   6   -137.9895660 -0.104373E-07  0.314E-04    1.24      38.1  T
     SCC iter.                  ...        0 min,  0.141 sec
     gradient                   ...        0 min,  0.126 sec
 * total energy  :  -136.2127498 Eh     change       -0.5538423E-04 Eh
   gradient norm :     0.0023110 Eh/α   predicted    -0.3911782E-04 ( -29.37%)
   displ. norm   :     0.2501109 α      lambda       -0.6354362E-04
   maximum displ.:     0.1649193 α      in ANC's #5, #2, #8, ...

........................................................................
.............................. CYCLE   33 ..............................
........................................................................
   1   -137.9892057 -0.137989E+03  0.441E-02    1.24       0.0  T
   2   -137.9892069 -0.124265E-05  0.258E-02    1.24       1.0  T
   3   -137.9892058  0.111734E-05  0.537E-03    1.24       2.2  T
   4   -137.9892075 -0.166854E-05  0.154E-03    1.24       7.7  T
   5   -137.9892075 -0.285651E-07  0.896E-04    1.24      13.3  T
   6   -137.9892075 -0.138383E-07  0.251E-04    1.24      47.6  T
     SCC iter.                  ...        0 min,  0.138 sec
     gradient                   ...        0 min,  0.132 sec
 * total energy  :  -136.2128028 Eh     change       -0.5302860E-04 Eh
   gradient norm :     0.0022616 Eh/α   predicted    -0.3376242E-04 ( -36.33%)
   displ. norm   :     0.2946862 α      lambda       -0.7887938E-04
   maximum displ.:     0.1904274 α      in ANC's #5, #2, #8, ...

........................................................................
.............................. CYCLE   34 ..............................
........................................................................
   1   -137.9896834 -0.137990E+03  0.481E-02    1.25       0.0  T
   2   -137.9896852 -0.183924E-05  0.281E-02    1.25       1.0  T
   3   -137.9896833  0.190354E-05  0.675E-03    1.25       1.8  T
   4   -137.9896860 -0.269735E-05  0.167E-03    1.25       7.2  T
   5   -137.9896860 -0.403862E-07  0.983E-04    1.25      12.2  T
   6   -137.9896860 -0.126558E-07  0.266E-04    1.25      44.9  T
     SCC iter.                  ...        0 min,  0.151 sec
     gradient                   ...        0 min,  0.122 sec
 * total energy  :  -136.2128642 Eh     change       -0.6137605E-04 Eh
   gradient norm :     0.0030193 Eh/α   predicted    -0.4286638E-04 ( -30.16%)
   displ. norm   :     0.3705185 α      lambda       -0.7600916E-04
   maximum displ.:     0.2403067 α      in ANC's #5, #2, #8, ...

........................................................................
.............................. CYCLE   35 ..............................
........................................................................
   1   -137.9877889 -0.137988E+03  0.622E-02    1.25       0.0  T
   2   -137.9877913 -0.233664E-05  0.365E-02    1.25       1.0  T
   3   -137.9877879  0.340623E-05  0.820E-03    1.25       1.5  T
   4   -137.9877925 -0.462850E-05  0.219E-03    1.25       5.5  T
   5   -137.9877926 -0.513925E-07  0.124E-03    1.25       9.6  T
   6   -137.9877926 -0.289660E-07  0.496E-04    1.25      24.1  T
   7   -137.9877926 -0.817761E-08  0.195E-04    1.25      61.4  T
     SCC iter.                  ...        0 min,  0.166 sec
     gradient                   ...        0 min,  0.141 sec
 * total energy  :  -136.2129157 Eh     change       -0.5148088E-04 Eh
   gradient norm :     0.0039012 Eh/α   predicted    -0.4322258E-04 ( -16.04%)
   displ. norm   :     0.3128022 α      lambda       -0.6752231E-04
   maximum displ.:     0.1951638 α      in ANC's #5, #2, #1, ...

........................................................................
.............................. CYCLE   36 ..............................
........................................................................
   1   -137.9887336 -0.137989E+03  0.462E-02    1.25       0.0  T
   2   -137.9887351 -0.150390E-05  0.270E-02    1.25       1.0  T
   3   -137.9887341  0.936335E-06  0.513E-03    1.25       2.3  T
   4   -137.9887357 -0.157120E-05  0.162E-03    1.25       7.4  T
   5   -137.9887357 -0.298385E-07  0.897E-04    1.25      13.3  T
   6   -137.9887357 -0.977454E-08  0.286E-04    1.25      41.8  T
     SCC iter.                  ...        0 min,  0.141 sec
     gradient                   ...        0 min,  0.142 sec
 * total energy  :  -136.2129623 Eh     change       -0.4658840E-04 Eh
   gradient norm :     0.0030538 Eh/α   predicted    -0.3706744E-04 ( -20.44%)
   displ. norm   :     0.2870896 α      lambda       -0.4354670E-04
   maximum displ.:     0.1798776 α      in ANC's #5, #2, #1, ...

........................................................................
.............................. CYCLE   37 ..............................
........................................................................
   1   -137.9888399 -0.137989E+03  0.420E-02    1.25       0.0  T
   2   -137.9888410 -0.104949E-05  0.247E-02    1.25       1.0  T
   3   -137.9888395  0.149036E-05  0.549E-03    1.26       2.2  T
   4   -137.9888416 -0.208573E-05  0.151E-03    1.26       7.9  T
   5   -137.9888416 -0.132074E-07  0.805E-04    1.26      14.8  T
   6   -137.9888416 -0.122367E-07  0.281E-04    1.26      42.6  T
     SCC iter.                  ...        0 min,  0.130 sec
     gradient                   ...        0 min,  0.117 sec
 * total energy  :  -136.2129958 Eh     change       -0.3346123E-04 Eh
   gradient norm :     0.0020360 Eh/α   predicted    -0.2356837E-04 ( -29.57%)
   displ. norm   :     0.2121104 α      lambda       -0.3907948E-04
   maximum displ.:     0.1222002 α      in ANC's #5, #2, #1, ...

........................................................................
.............................. CYCLE   38 ..............................
........................................................................
   1   -137.9899707 -0.137990E+03  0.288E-02    1.26       0.0  T
   2   -137.9899717 -0.956047E-06  0.170E-02    1.26       1.0  T
   3   -137.9899711  0.560121E-06  0.380E-03    1.26       3.1  T
   4   -137.9899719 -0.813348E-06  0.131E-03    1.26       9.1  T
   5   -137.9899720 -0.560468E-07  0.634E-04    1.26      18.9  T
   6   -137.9899720 -0.337869E-08  0.295E-04    1.26      40.5  T
     SCC iter.                  ...        0 min,  0.140 sec
     gradient                   ...        0 min,  0.146 sec
 * total energy  :  -136.2130231 Eh     change       -0.2732503E-04 Eh
   gradient norm :     0.0015213 Eh/α   predicted    -0.2042000E-04 ( -25.27%)
   displ. norm   :     0.3232493 α      lambda       -0.2266856E-04
   maximum displ.:     0.1885965 α      in ANC's #5, #2, #1, ...

........................................................................
.............................. CYCLE   39 ..............................
........................................................................
   1   -137.9894233 -0.137989E+03  0.452E-02    1.26       0.0  T
   2   -137.9894255 -0.222260E-05  0.267E-02    1.26       1.0  T
   3   -137.9894220  0.343876E-05  0.830E-03    1.26       1.4  T
   4   -137.9894265 -0.443562E-05  0.188E-03    1.26       6.4  T
   5   -137.9894266 -0.832147E-07  0.108E-03    1.26      11.1  T
   6   -137.9894266 -0.180883E-07  0.470E-04    1.26      25.4  T
   7   -137.9894266 -0.590251E-08  0.190E-04    1.26      62.8  T
     SCC iter.                  ...        0 min,  0.160 sec
     gradient                   ...        0 min,  0.109 sec
 * total energy  :  -136.2130426 Eh     change       -0.1950120E-04 Eh
   gradient norm :     0.0027061 Eh/α   predicted    -0.1186331E-04 ( -39.17%)
   displ. norm   :     0.0702490 α      lambda       -0.1772567E-04
   maximum displ.:     0.0379019 α      in ANC's #2, #9, #4, ...

........................................................................
.............................. CYCLE   40 ..............................
........................................................................
   1   -137.9902050 -0.137990E+03  0.107E-02    1.26       0.0  T
   2   -137.9902054 -0.384526E-06  0.641E-03    1.26       1.9  T
   3   -137.9902051  0.229661E-06  0.279E-03    1.26       4.3  T
   4   -137.9902055 -0.332862E-06  0.623E-04    1.26      19.2  T
   5   -137.9902055 -0.177681E-07  0.293E-04    1.26      40.8  T
     SCC iter.                  ...        0 min,  0.122 sec
     gradient                   ...        0 min,  0.130 sec
 * total energy  :  -136.2130560 Eh     change       -0.1346451E-04 Eh
   gradient norm :     0.0023168 Eh/α   predicted    -0.8906891E-05 ( -33.85%)
   displ. norm   :     0.1276555 α      lambda       -0.2805976E-04
   maximum displ.:     0.0743930 α      in ANC's #2, #9, #4, ...

........................................................................
.............................. CYCLE   41 ..............................
........................................................................
   1   -137.9906581 -0.137991E+03  0.188E-02    1.27       0.0  T
   2   -137.9906585 -0.377876E-06  0.111E-02    1.27       1.1  T
   3   -137.9906580  0.512022E-06  0.317E-03    1.27       3.8  T
   4   -137.9906586 -0.633470E-06  0.669E-04    1.27      17.9  T
   5   -137.9906587 -0.182456E-07  0.336E-04    1.27      35.6  T
     SCC iter.                  ...        0 min,  0.116 sec
     gradient                   ...        0 min,  0.147 sec
 * total energy  :  -136.2130780 Eh     change       -0.2195772E-04 Eh
   gradient norm :     0.0017875 Eh/α   predicted    -0.1426405E-04 ( -35.04%)
   displ. norm   :     0.2560617 α      lambda       -0.2775534E-04
   maximum displ.:     0.1524711 α      in ANC's #2, #9, #4, ...

........................................................................
.............................. CYCLE   42 ..............................
........................................................................
   1   -137.9900183 -0.137990E+03  0.382E-02    1.27       0.0  T
   2   -137.9900194 -0.107278E-05  0.224E-02    1.27       1.0  T
   3   -137.9900181  0.127314E-05  0.489E-03    1.27       2.4  T
   4   -137.9900197 -0.161449E-05  0.115E-03    1.27      10.4  T
   5   -137.9900198 -0.498399E-07  0.609E-04    1.27      19.6  T
   6   -137.9900198 -0.683787E-08  0.251E-04    1.27      47.6  T
     SCC iter.                  ...        0 min,  0.138 sec
     gradient                   ...        0 min,  0.075 sec
 * total energy  :  -136.2131021 Eh     change       -0.2406341E-04 Eh
   gradient norm :     0.0023206 Eh/α   predicted    -0.1428280E-04 ( -40.65%)
   displ. norm   :     0.0813369 α      lambda       -0.1250107E-04
   maximum displ.:     0.0491808 α      in ANC's #2, #9, #4, ...
 * RMSD in coord.:     0.5198092 α      energy gain  -0.1399693E-02 Eh

generating ANC from model Hessian ...
Using Lindh-Hessian (1995)
 Shifting diagonal of input Hessian by    9.8620828201081406E-003
 Lowest  eigenvalues of input Hessian
    0.000000    0.000000    0.000000    0.000000    0.000000    0.000000
    0.010000    0.010057    0.010086    0.010136    0.010293    0.010522
    0.010716    0.010821    0.010996    0.011769    0.011934    0.012526
 Highest eigenvalues
    2.296024    2.361427    2.368267    2.383407    2.712122    2.717979


........................................................................
.............................. CYCLE   43 ..............................
........................................................................
   1   -137.9904336 -0.137990E+03  0.126E-02    1.27       0.0  T
   2   -137.9904338 -0.215355E-06  0.746E-03    1.27       1.6  T
   3   -137.9904334  0.409151E-06  0.308E-03    1.27       3.9  T
   4   -137.9904339 -0.514321E-06  0.482E-04    1.27      24.8  T
   5   -137.9904339 -0.985551E-08  0.224E-04    1.27      53.5  T
     SCC iter.                  ...        0 min,  0.117 sec
     gradient                   ...        0 min,  0.138 sec
 * total energy  :  -136.2131119 Eh     change       -0.9817335E-05 Eh
   gradient norm :     0.0018049 Eh/α   predicted     0.0000000E+00 (-100.00%)
   displ. norm   :     0.0271133 α      lambda       -0.9202829E-05
   maximum displ.:     0.0126367 α      in ANC's #2, #5, #13, ...

........................................................................
.............................. CYCLE   44 ..............................
........................................................................
   1   -137.9901546 -0.137990E+03  0.798E-03    1.27       0.0  T
   2   -137.9901547 -0.188599E-06  0.478E-03    1.27       2.5  T
   3   -137.9901546  0.160377E-06  0.215E-03    1.27       5.6  T
   4   -137.9901548 -0.226923E-06  0.432E-04    1.27      27.7  T
   5   -137.9901548 -0.960932E-08  0.188E-04    1.27      63.4  T
     SCC iter.                  ...        0 min,  0.120 sec
     gradient                   ...        0 min,  0.129 sec
 * total energy  :  -136.2131211 Eh     change       -0.9193513E-05 Eh
   gradient norm :     0.0008027 Eh/α   predicted    -0.4605708E-05 ( -49.90%)
   displ. norm   :     0.0525265 α      lambda       -0.9167464E-05
   maximum displ.:     0.0274537 α      in ANC's #2, #5, #13, ...

........................................................................
.............................. CYCLE   45 ..............................
........................................................................
   1   -137.9899410 -0.137990E+03  0.120E-02    1.27       0.0  T
   2   -137.9899412 -0.213546E-06  0.708E-03    1.27       1.7  T
   3   -137.9899407  0.481765E-06  0.301E-03    1.27       4.0  T
   4   -137.9899413 -0.595457E-06  0.486E-04    1.27      24.6  T
   5   -137.9899413 -0.119456E-07  0.210E-04    1.27      56.8  T
     SCC iter.                  ...        0 min,  0.127 sec
     gradient                   ...        0 min,  0.125 sec
 * total energy  :  -136.2131261 Eh     change       -0.4990577E-05 Eh
   gradient norm :     0.0015450 Eh/α   predicted    -0.4595739E-05 (  -7.91%)
   displ. norm   :     0.0522685 α      lambda        0.1716706E-04
   maximum displ.:     0.0274591 α      in ANC's #2, #5, #13, ...

........................................................................
.............................. CYCLE   46 ..............................
........................................................................
   1   -137.9896803 -0.137990E+03  0.119E-02    1.27       0.0  T
   2   -137.9896805 -0.213322E-06  0.706E-03    1.27       1.7  T
   3   -137.9896800  0.489864E-06  0.303E-03    1.27       3.9  T
   4   -137.9896806 -0.606414E-06  0.482E-04    1.27      24.8  T
   5   -137.9896807 -0.115968E-07  0.210E-04    1.27      56.8  T
     SCC iter.                  ...        0 min,  0.120 sec
     gradient                   ...        0 min,  0.134 sec
 * total energy  :  -136.2131135 Eh     change        0.1258705E-04 Eh
   gradient norm :     0.0034992 Eh/α   predicted     0.8590657E-05 ( -31.75%)
   displ. norm   :     0.0112705 α      lambda       -0.2436272E-04
   maximum displ.:     0.0049383 α      in ANC's #57, #13, #67, ...

........................................................................
.............................. CYCLE   47 ..............................
........................................................................
   1   -137.9898884 -0.137990E+03  0.595E-03    1.27       0.0  T
   2   -137.9898885 -0.759622E-07  0.355E-03    1.27       3.4  T
   3   -137.9898884  0.135405E-06  0.170E-03    1.27       7.0  T
   4   -137.9898886 -0.175309E-06  0.297E-04    1.27      40.2  T
   5   -137.9898886 -0.432178E-08  0.132E-04    1.27      90.7  T
     SCC iter.                  ...        0 min,  0.115 sec
     gradient                   ...        0 min,  0.122 sec
 * total energy  :  -136.2131298 Eh     change       -0.1633512E-04 Eh
   gradient norm :     0.0017109 Eh/α   predicted    -0.1218567E-04 ( -25.40%)
   displ. norm   :     0.0205930 α      lambda       -0.9041190E-05
   maximum displ.:     0.0078565 α      in ANC's #2, #13, #5, ...

........................................................................
.............................. CYCLE   48 ..............................
........................................................................
   1   -137.9901849 -0.137990E+03  0.738E-03    1.27       0.0  T
   2   -137.9901851 -0.222633E-06  0.450E-03    1.27       2.7  T
   3   -137.9901850  0.162111E-06  0.255E-03    1.27       4.7  T
   4   -137.9901853 -0.304595E-06  0.436E-04    1.27      27.4  T
   5   -137.9901853 -0.839825E-08  0.195E-04    1.27      61.3  T
     SCC iter.                  ...        0 min,  0.118 sec
     gradient                   ...        0 min,  0.147 sec
 * total energy  :  -136.2131346 Eh     change       -0.4785793E-05 Eh
   gradient norm :     0.0009524 Eh/α   predicted    -0.4538735E-05 (  -5.16%)
   displ. norm   :     0.0209693 α      lambda        0.1720005E-04
   maximum displ.:     0.0078511 α      in ANC's #2, #13, #1, ...

   *** GEOMETRY OPTIMIZATION CONVERGED AFTER 48 ITERATIONS ***

------------------------------------------------------------------------
 total energy gain   :        -0.0484622 Eh      -30.4105 kcal/mol
 total RMSD          :         1.0137289 a0        0.5364 Å
 total power (kW/mol):        -2.6507829 (step)   -5.7916 (real)
------------------------------------------------------------------------

 ANCopt (total)                0 d,  0 h,  0 min, 21.969 sec
 optimizer setup                ...        0 min,  0.000 sec (  0.001%)
 model hessian                  ...        0 min,  0.085 sec (  0.388%)
 ANC generation                 ...        0 min,  0.037 sec (  0.168%)
 coordinate transformation      ...        0 min,  0.005 sec (  0.021%)
 single point calculation       ...        0 min, 21.232 sec ( 96.643%)
 optimization log               ...        0 min,  0.060 sec (  0.272%)
 hessian update                 ...        0 min,  0.495 sec (  2.252%)
 rational function              ...        0 min,  0.022 sec (  0.099%)

================
 final structure:
================
70
 xtb: 6.3.3 (4ae9cef)
C        -2.12032514412099   -1.74011850326445   -2.03269827460014
C        -2.46491555830873   -2.77194038149969   -2.86059319908317
C        -1.60636878529087   -3.87399727615331   -3.04551500086436
C        -1.93412280494335   -4.94970699972429   -3.89680275837453
C        -1.07726813614884   -6.00364704073291   -4.04597456958125
C         0.14306593579082   -6.03133126193884   -3.35100249039308
C         0.48909082096670   -5.00500410967002   -2.51808144184774
C        -0.37208531751604   -3.90089763584949   -2.34409114588892
C        -0.04502218047730   -2.82395987175198   -1.49774177833190
C        -0.89170132232392   -1.75527616464165   -1.34466981748621
C        -0.47811053415575   -0.62633030945574   -0.42633139930873
C         0.83766248280182    0.06459897887728   -0.89263204075726
C         1.86451247809303    0.10070611666928    0.21000339576838
C         1.63240521208567    0.84604573319178    1.33805234072120
C         2.57132889526077    0.89020713464595    2.38631888558980
C         2.35790861013432    1.66090270446656    3.54870587863547
C         3.29325149578201    1.68894781792092    4.54450910234330
C         4.48008935126682    0.94775896197571    4.42550578390515
C         4.71352037983195    0.18895946795568    3.31290289925792
C         3.77022903316657    0.13921292195118    2.26561269475055
C         3.97918792981306   -0.62390308734963    1.09841689785377
C         3.05199602268285   -0.64284899564261    0.09580440173489
N         0.40092197856985    1.41656205389510   -1.23269387296061
C         1.34556831145970    2.35558456438429   -1.51723667053309
C         0.89807000926778    3.76463716820950   -1.46576611630383
C         1.30075375845310    4.86346528948902   -2.18643652719457
C         0.58204345573785    5.95570098408624   -1.67112415130682
C        -0.19040585958569    5.44057575896196   -0.65851258650132
N        -1.10903686861426    6.06231261901357    0.22424331796294
O        -1.27930879847420    7.25499511087252    0.08107007216651
O        -1.64293912141608    5.36202914250248    1.05516978755468
O         0.00551367860189    4.11675697403040   -0.52778208327640
O         2.50601115925441    2.05932943936442   -1.70144719580751
C        -1.03198722816869    1.36310099512906   -1.46400648668298
C        -1.68757637393750    2.72449300497725   -1.85526490637620
O        -2.59166373681105    3.27881807971830   -1.11445884186516
O        -1.31695286379646    3.18166710544073   -2.90550288266428
N        -1.44795309916553    0.46222999667107   -0.38325262247221
C        -2.30428438196526    0.65800285713175    0.62824301878084
C        -2.46235763788276   -0.47486906698405    1.58637182577179
C        -2.75918939395937   -1.80739921727415    1.39187700737915
C        -2.97321080387664   -2.35087170466179    2.66911977345741
C        -2.79196746888769   -1.30542004463832    3.54383778752040
N        -2.85306282554469   -1.28933826466338    4.96629854058054
O        -3.16947572566346   -2.33525240750794    5.49380282726063
O        -2.58271629510309   -0.25824696603061    5.53243806250874
O        -2.49391910059855   -0.17583692983892    2.88940936783441
O        -2.99240064919447    1.65676643158334    0.78632995008710
H        -2.80226444906168   -0.91313756955730   -1.89684321998949
H        -3.40850814116870   -2.75259516435171   -3.38567284432978
H        -2.87408779952382   -4.92286540028424   -4.42848159855899
H        -1.33183181760871   -6.82413344881051   -4.69994439110416
H         0.80649874487219   -6.87300048497183   -3.48218332503486
H         1.42664787532673   -5.02139379180521   -1.98171782881570
H         0.89218952266585   -2.85019364641602   -0.95985137123370
H        -0.33337917948969   -1.02290157809872    0.58336765468505
H         1.24894774548186   -0.43588441243266   -1.77763979775257
H         0.72674613707969    1.43062152347123    1.43494117374711
H         1.44352773301024    2.22989968328534    3.63605387146140
H         3.12637863670602    2.28248695496688    5.43089321367227
H         5.20778600767279    0.98392682894678    5.22268857339711
H         5.62571612746117   -0.38220983167685    3.21690901568283
H         4.89488937756590   -1.18937849384243    1.00525854749468
H         3.22896988301449   -1.21483842241085   -0.80287158744124
H         2.00548515363448    4.86471644743167   -2.99115482221967
H         0.61281567604202    6.97831327893702   -1.98584299407940
H        -1.18175707645438    0.77518078629279   -2.39426336940633
H        -2.82105106845776    2.78059616559994   -0.26013497267910
H        -2.82167330446869   -2.32261994049067    0.45539300959494
H        -3.22484976739751   -3.35875965762975    2.92666930394871

 Bond Distances (Angstroems)
 ---------------------------
C1-C2=1.3670         C1-C10=1.4082        C1-H49=1.0805        C2-C1=1.3670         C2-C3=1.4092         C2-H50=1.0800        
C3-C2=1.4092         C3-C4=1.4104         C3-C8=1.4199         C4-C3=1.4104         C4-C5=1.3665         C4-H51=1.0802        
C5-C4=1.3665         C5-C6=1.4046         C5-H52=1.0797        C6-C5=1.4046         C6-C7=1.3663         C6-H53=1.0797        
C7-C6=1.3663         C7-C8=1.4110         C7-H54=1.0803        C8-C3=1.4199         C8-C7=1.4110         C8-C9=1.4082         
C9-C8=1.4082         C9-C10=1.3720        C9-H55=1.0809        C10-C1=1.4082        C10-C9=1.3720        C10-C11=1.5129       
C11-C10=1.5129       C11-C12=1.5576       C11-N38=1.4586       C11-H56=1.0944       C12-C11=1.5576       C12-C13=1.5072       
C12-N23=1.4609       C12-H57=1.0968       C13-C12=1.5072       C13-C14=1.3718       C13-C22=1.4057       C14-C13=1.3718       
C14-C15=1.4080       C14-H58=1.0823       C15-C14=1.4080       C15-C16=1.4109       C15-C20=1.4198       C16-C15=1.4109       
C16-C17=1.3665       C16-H59=1.0805       C17-C16=1.3665       C17-C18=1.4043       C17-H60=1.0797       C18-C17=1.4043       
C18-C19=1.3668       C18-H61=1.0800       C19-C18=1.3668       C19-C20=1.4104       C19-H62=1.0805       C20-C15=1.4198       
C20-C19=1.4104       C20-C21=1.4101       C21-C20=1.4101       C21-C22=1.3658       C21-H63=1.0803       C22-C13=1.4057       
C22-C21=1.3658       C22-H64=1.0799       N23-C12=1.4609       N23-C24=1.3620       N23-C34=1.4524       C24-N23=1.3620       
C24-C25=1.4793       C24-O33=1.2117       C25-C24=1.4793       C25-C26=1.3744       C25-O32=1.3418       C26-C25=1.3744       
C26-C27=1.4054       C26-H65=1.0697       C27-C26=1.4054       C27-C28=1.3738       C27-H66=1.0704       C28-C27=1.3738       
C28-N29=1.4176       C28-O32=1.3446       N29-C28=1.4176       N29-O30=1.2133       N29-O31=1.2107       O30-N29=1.2133       
O31-N29=1.2107       O32-C25=1.3418       O32-C28=1.3446       O33-C24=1.2117       C34-N23=1.4524       C34-C35=1.5609       
C34-N38=1.4672       C34-H67=1.1106       C35-C34=1.5609       C35-O36=1.2936       C35-O37=1.2039       O36-C35=1.2936       
O36-H68=1.0152       O37-C35=1.2039       N38-C11=1.4586       N38-C34=1.4672       N38-C39=1.3397       C39-N38=1.3397       
C39-C40=1.4921       C39-O48=1.2231       C40-C39=1.4921       C40-C41=1.3790       C40-O47=1.3373       C41-C40=1.3790       
C41-C42=1.4045       C41-H69=1.0707       C42-C41=1.4045       C42-C43=1.3751       C42-H70=1.0703       C43-C42=1.3751       
C43-N44=1.4239       C43-O47=1.3391       N44-C43=1.4239       N44-O45=1.2134       N44-O46=1.2070       O45-N44=1.2134       
O46-N44=1.2070       O47-C40=1.3373       O47-C43=1.3391       O48-C39=1.2231       H49-C1=1.0805        H50-C2=1.0800        
H51-C4=1.0802        H52-C5=1.0797        H53-C6=1.0797        H54-C7=1.0803        H55-C9=1.0809        H56-C11=1.0944       
H57-C12=1.0968       H58-C14=1.0823       H59-C16=1.0805       H60-C17=1.0797       H61-C18=1.0800       H62-C19=1.0805       
H63-C21=1.0803       H64-C22=1.0799       H65-C26=1.0697       H66-C27=1.0704       H67-C34=1.1106       H68-O36=1.0152       
H69-C41=1.0707       H70-C42=1.0703       
 C  H  Rav=1.0813 sigma=0.0092  Rmin=1.0697  Rmax=1.1106    21
 C  C  Rav=1.4149 sigma=0.0528  Rmin=1.3658  Rmax=1.5609    34
 N  C  Rav=1.4228 sigma=0.0450  Rmin=1.3397  Rmax=1.4672     8
 O  H  Rav=1.0152 sigma=0.0000  Rmin=1.0152  Rmax=1.0152     1
 O  C  Rav=1.2869 sigma=0.0594  Rmin=1.2039  Rmax=1.3446     8
 O  N  Rav=1.2111 sigma=0.0026  Rmin=1.2070  Rmax=1.2134     4

 selected bond angles (degree)
 --------------------
C10-C1-C2=120.51               H49-C1-C2=119.65               H49-C1-C10=119.83              C3-C2-C1=121.08                
H50-C2-C1=120.08               H50-C2-C3=118.85               C4-C3-C2=122.28                C8-C3-C2=118.66                
C8-C3-C4=119.06                C5-C4-C3=120.56                H51-C4-C3=118.71               H51-C4-C5=120.73               
C6-C5-C4=120.40                H52-C5-C4=120.29               H52-C5-C6=119.31               C7-C6-C5=120.45                
H53-C6-C5=119.28               H53-C6-C7=120.27               C8-C7-C6=120.56                H54-C7-C6=120.74               
H54-C7-C8=118.71               C7-C8-C3=118.98                C9-C8-C3=118.97                C9-C8-C7=122.06                
C10-C9-C8=121.29               H55-C9-C8=118.81               H55-C9-C10=119.90              C9-C10-C1=119.49               
C11-C10-C1=121.81              C11-C10-C9=118.70              

 selected dihedral angles (degree)
 ---------------------------------
C3-C2-C1-C10=  0.12           C3-C2-C1-H49=180.87           H50-C2-C1-C10=180.07          H50-C2-C1-H49=  0.82          
C4-C3-C2-C1=180.23            C4-C3-C2-H50=  0.28           C8-C3-C2-C1=  0.50            C8-C3-C2-H50=180.55           
C5-C4-C3-C2=180.26            C5-C4-C3-C8=  0.00            H51-C4-C3-C2=  0.34           H51-C4-C3-C8=180.07           
C6-C5-C4-C3=  0.09            C6-C5-C4-H51=180.01           H52-C5-C4-C3=180.09           H52-C5-C4-H51=  0.00          
C7-C6-C5-C4=359.96            C7-C6-C5-H52=179.95           H53-C6-C5-C4=179.99           H53-C6-C5-H52=  0.00          
C8-C7-C6-C5=359.91            C8-C7-C6-H53=179.88           H54-C7-C6-C5=180.03           H54-C7-C6-H53=  0.00          
C7-C8-C3-C2=179.62            C7-C8-C3-C4=359.89            C9-C8-C3-C2=359.55            C9-C8-C3-C4=179.81            
C3-C8-C7-C6=  0.16            C3-C8-C7-H54=180.05           C9-C8-C7-C6=180.24            C9-C8-C7-H54=  0.13           
C10-C9-C8-C3=359.79           C10-C9-C8-C7=179.71           H55-C9-C8-C3=179.59           H55-C9-C8-C7=359.51           
C9-C10-C1-C2=359.22           C9-C10-C1-H49=178.46          C11-C10-C1-C2=179.72          C11-C10-C1-H49=358.96         
C1-C10-C9-C8=  0.83           C1-C10-C9-H55=181.03          C11-C10-C9-C8=180.34          C11-C10-C9-H55=  0.54         
           -------------------------------------------------
          |                Final Singlepoint                |
           -------------------------------------------------

          ...................................................
          :                      SETUP                      :
          :.................................................:
          :  # basis functions                 214          :
          :  # atomic orbitals                 214          :
          :  # shells                          118          :
          :  # electrons                       238          :
          :  max. iterations                   250          :
          :  Hamiltonian                  GFN2-xTB          :
          :  restarted?                      false          :
          :  GBSA solvation                  false          :
          :  PC potential                    false          :
          :  electronic temp.          300.0000000     K    :
          :  accuracy                    1.0000000          :
          :  -> integral cutoff          0.2500000E+02      :
          :  -> integral neglect         0.1000000E-07      :
          :  -> SCF convergence          0.1000000E-05 Eh   :
          :  -> wf. convergence          0.1000000E-03 e    :
          :  Broyden damping             0.4000000          :
          ...................................................

 iter      E             dE          RMSdq      gap      omega  full diag
   1   -137.9901853 -0.137990E+03  0.907E-05    1.27       0.0  T
   2   -137.9901853 -0.592877E-10  0.643E-05    1.27     185.8  T
   3   -137.9901853 -0.154529E-09  0.368E-05    1.27     324.8  T

   *** convergence criteria satisfied after 3 iterations ***

         #    Occupation            Energy/Eh            Energy/eV
      -------------------------------------------------------------
         1        2.0000           -0.8141111             -22.1531
       ...           ...                  ...                  ...
       113        2.0000           -0.4351632             -11.8414
       114        2.0000           -0.4326475             -11.7729
       115        2.0000           -0.4295881             -11.6897
       116        2.0000           -0.4280272             -11.6472
       117        2.0000           -0.4145713             -11.2811
       118        2.0000           -0.4105695             -11.1722
       119        2.0000           -0.3942749             -10.7288 (HOMO)
       120                         -0.3477371              -9.4624 (LUMO)
       121                         -0.3313590              -9.0167
       122                         -0.2965921              -8.0707
       123                         -0.2937449              -7.9932
       124                         -0.2797503              -7.6124
       ...                                ...                  ...
       214                          0.6827066              18.5774
      -------------------------------------------------------------
                  HL-Gap            0.0465378 Eh            1.2664 eV
             Fermi-level           -0.3710060 Eh          -10.0956 eV

 SCC (total)                   0 d,  0 h,  0 min,  0.335 sec
 SCC setup                      ...        0 min,  0.021 sec (  6.402%)
[...]

           -------------------------------------------------
          |                Property Printout                |
           -------------------------------------------------

    * Orbital Energies and Occupations

         #    Occupation            Energy/Eh            Energy/eV
      -------------------------------------------------------------
         1        2.0000           -0.8141111             -22.1531
       ...           ...                  ...                  ...
       107        2.0000           -0.4489792             -12.2173
       108        2.0000           -0.4480710             -12.1926
       109        2.0000           -0.4454001             -12.1200
       110        2.0000           -0.4436373             -12.0720
       111        2.0000           -0.4414432             -12.0123
       112        2.0000           -0.4362474             -11.8709
       113        2.0000           -0.4351632             -11.8414
       114        2.0000           -0.4326475             -11.7729
       115        2.0000           -0.4295881             -11.6897
       116        2.0000           -0.4280272             -11.6472
       117        2.0000           -0.4145713             -11.2811
       118        2.0000           -0.4105695             -11.1722
       119        2.0000           -0.3942749             -10.7288 (HOMO)
       120                         -0.3477371              -9.4624 (LUMO)
       121                         -0.3313590              -9.0167
       122                         -0.2965921              -8.0707
       123                         -0.2937449              -7.9932
       124                         -0.2797503              -7.6124
       125                         -0.2762589              -7.5174
       126                         -0.2627816              -7.1507
       127                         -0.2582747              -7.0280
       128                         -0.2458410              -6.6897
       129                         -0.2419370              -6.5834
       130                         -0.2214957              -6.0272
       ...                                ...                  ...
       214                          0.6827066              18.5774
      -------------------------------------------------------------
                  HL-Gap            0.0465378 Eh            1.2664 eV
             Fermi-level           -0.3710060 Eh          -10.0956 eV

     #   Z          covCN         q      C6AA      α(0)
     1   6 C        2.917    -0.043    29.073     8.842
     2   6 C        2.918    -0.032    28.810     8.802
     3   6 C        2.987     0.015    27.680     8.630
     4   6 C        2.918    -0.032    28.803     8.801
     5   6 C        2.916    -0.025    28.630     8.774
     6   6 C        2.916    -0.025    28.618     8.772
     7   6 C        2.918    -0.033    28.832     8.805
     8   6 C        2.986     0.017    27.630     8.623
     9   6 C        2.924    -0.044    29.104     8.847
    10   6 C        2.967    -0.010    28.267     8.721
    11   6 C        3.853     0.027    20.093     6.375
    12   6 C        3.840     0.042    19.835     6.336
    13   6 C        2.971     0.002    27.970     8.675
    14   6 C        2.923    -0.042    29.047     8.838
    15   6 C        2.987     0.015    27.660     8.627
    16   6 C        2.918    -0.033    28.830     8.805
    17   6 C        2.916    -0.026    28.649     8.777
    18   6 C        2.916    -0.026    28.662     8.779
    19   6 C        2.918    -0.033    28.825     8.804
    20   6 C        2.987     0.015    27.671     8.629
    21   6 C        2.918    -0.031    28.777     8.797
    22   6 C        2.918    -0.032    28.799     8.800
    23   7 N        2.769    -0.112    23.447     7.192
    24   6 C        2.757     0.276    22.334     7.739
    25   6 C        3.136     0.110    25.362     8.243
    26   6 C        3.026    -0.037    28.887     8.816
    27   6 C        3.012    -0.034    28.837     8.809
    28   6 C        3.089     0.121    25.242     8.235
    29   7 N        2.755     0.545    13.532     5.463
    30   8 O        0.933    -0.378    21.205     6.176
    31   8 O        0.932    -0.363    20.929     6.135
    32   8 O        1.727    -0.156    16.658     5.511
    33   8 O        0.859    -0.390    21.476     6.213
    34   6 C        3.792     0.070    19.416     6.275
    35   6 C        2.682     0.364    20.818     7.467
    36   8 O        1.651    -0.357    20.037     6.043
    37   8 O        0.858    -0.399    21.659     6.240
    38   7 N        2.765    -0.097    23.132     7.143
    39   6 C        2.752     0.272    22.402     7.750
    40   6 C        3.139     0.103    25.494     8.263
    41   6 C        3.028    -0.057    29.389     8.892
    42   6 C        3.011    -0.042    29.024     8.837
    43   6 C        3.096     0.116    25.341     8.250
    44   7 N        2.755     0.546    13.527     5.462
    45   8 O        0.934    -0.377    21.182     6.172
    46   8 O        0.931    -0.348    20.629     6.091
    47   8 O        1.728    -0.117    16.078     5.414
    48   8 O        0.867    -0.400    21.683     6.243
    49   1 H        0.926     0.028     2.610     2.526
    50   1 H        0.926     0.045     2.384     2.414
    51   1 H        0.926     0.041     2.440     2.443
    52   1 H        0.926     0.041     2.433     2.439
    53   1 H        0.926     0.041     2.433     2.439
    54   1 H        0.926     0.039     2.458     2.452
    55   1 H        0.926     0.038     2.472     2.459
    56   1 H        0.924     0.059     2.208     2.324
    57   1 H        0.924     0.064     2.157     2.297
    58   1 H        0.925     0.028     2.611     2.527
    59   1 H        0.926     0.041     2.439     2.442
    60   1 H        0.926     0.040     2.447     2.446
    61   1 H        0.926     0.037     2.483     2.464
    62   1 H        0.926     0.037     2.492     2.469
    63   1 H        0.926     0.043     2.413     2.429
    64   1 H        0.926     0.037     2.483     2.464
    65   1 H        0.927     0.088     1.902     2.156
    66   1 H        0.926     0.096     1.822     2.111
    67   1 H        0.922     0.078     2.001     2.212
    68   1 H        0.803     0.386     0.512     1.124
    69   1 H        0.926     0.074     2.038     2.232
    70   1 H        0.927     0.095     1.829     2.115

 Mol. C6AA /au·bohr⁶  :      72707.112026
 Mol. C8AA /au·bohr⁸  :    1788553.030018
 Mol. α(0) /au        :        421.920947


Wiberg/Mayer (AO) data.
largest (>0.10) Wiberg bond orders for each atom

 ---------------------------------------------------------------------------
     #   Z sym  total        # sym  WBO       # sym  WBO       # sym  WBO
 ---------------------------------------------------------------------------
     1   6 C    3.990 --     2 C    1.551    10 C    1.301    49 H    0.966
     2   6 C    3.991 --     1 C    1.551     3 C    1.283    50 H    0.967
                             9 C    0.116
     3   6 C    3.990 --     2 C    1.283     4 C    1.278     8 C    1.248
     4   6 C    3.991 --     5 C    1.559     3 C    1.278    51 H    0.968
                             7 C    0.119
     5   6 C    3.989 --     4 C    1.559     6 C    1.318    52 H    0.970
     6   6 C    3.992 --     7 C    1.561     5 C    1.318    53 H    0.970
     7   6 C    3.990 --     6 C    1.561     8 C    1.275    54 H    0.968
                             4 C    0.119
     8   6 C    3.990 --     9 C    1.289     7 C    1.275     3 C    1.248
     9   6 C    3.989 --    10 C    1.517     8 C    1.289    55 H    0.965
                             2 C    0.116
    10   6 C    3.983 --     9 C    1.517     1 C    1.301    11 C    0.984
    11   6 C    3.953 --    10 C    0.984    38 N    0.962    56 H    0.948
                            12 C    0.944
    12   6 C    3.957 --    13 C    0.990    23 N    0.957    57 H    0.954
                            11 C    0.944
    13   6 C    3.982 --    14 C    1.519    22 C    1.300    12 C    0.990
    14   6 C    3.991 --    13 C    1.519    15 C    1.287    58 H    0.966
                            21 C    0.116
    15   6 C    3.990 --    14 C    1.287    16 C    1.277    20 C    1.248
    16   6 C    3.990 --    17 C    1.559    15 C    1.277    59 H    0.968
                            19 C    0.118
    17   6 C    3.992 --    16 C    1.559    18 C    1.319    60 H    0.970
    18   6 C    3.989 --    19 C    1.558    17 C    1.319    61 H    0.971
    19   6 C    3.992 --    18 C    1.558    20 C    1.280    62 H    0.968
                            16 C    0.118
    20   6 C    3.990 --    21 C    1.280    19 C    1.280    15 C    1.248
    21   6 C    3.991 --    22 C    1.557    20 C    1.280    63 H    0.967
                            14 C    0.116
    22   6 C    3.989 --    21 C    1.557    13 C    1.300    64 H    0.967
    23   7 N    3.452 --    24 C    1.196    34 C    0.974    12 C    0.957
                            33 O    0.193
    24   6 C    3.960 --    33 O    1.690    23 N    1.196    25 C    0.990
    25   6 C    3.909 --    26 C    1.506    32 O    1.130    24 C    0.990
                            28 C    0.120
    26   6 C    3.980 --    25 C    1.506    27 C    1.348    65 H    0.969
    27   6 C    3.980 --    28 C    1.482    26 C    1.348    66 H    0.966
    28   6 C    3.896 --    27 C    1.482    32 O    1.110    29 N    1.004
                            25 C    0.120
    29   7 N    3.921 --    31 O    1.440    30 O    1.427    28 C    1.004
    30   8 O    1.921 --    29 N    1.427    31 O    0.362
    31   8 O    1.939 --    29 N    1.440    30 O    0.362
    32   8 O    2.468 --    25 C    1.130    28 C    1.110
    33   8 O    2.035 --    24 C    1.690    23 N    0.193
    34   6 C    3.937 --    23 N    0.974    38 N    0.954    67 H    0.928
                            35 C    0.898
    35   6 C    3.940 --    37 O    1.727    36 O    1.265    34 C    0.898
    36   8 O    2.267 --    35 C    1.265    68 H    0.707    37 O    0.190
    37   8 O    2.043 --    35 C    1.727    36 O    0.190
    38   7 N    3.520 --    39 C    1.286    11 C    0.962    34 C    0.954
                            48 O    0.201
    39   6 C    3.958 --    48 O    1.605    38 N    1.286    40 C    0.973
    40   6 C    3.908 --    41 C    1.495    47 O    1.154    39 C    0.973
                            43 C    0.122
    41   6 C    3.981 --    40 C    1.495    42 C    1.354    69 H    0.967
    42   6 C    3.980 --    43 C    1.480    41 C    1.354    70 H    0.966
    43   6 C    3.898 --    42 C    1.480    47 O    1.132    44 N    0.991
                            40 C    0.122
    44   7 N    3.921 --    46 O    1.455    45 O    1.427    43 C    0.991
    45   8 O    1.923 --    44 N    1.427    46 O    0.371
    46   8 O    1.959 --    44 N    1.455    45 O    0.371
    47   8 O    2.505 --    40 C    1.154    43 C    1.132
    48   8 O    2.098 --    39 C    1.605    38 N    0.201    68 H    0.121
    49   1 H    0.999 --     1 C    0.966
    50   1 H    0.997 --     2 C    0.967
    51   1 H    0.998 --     4 C    0.968
    52   1 H    0.998 --     5 C    0.970
    53   1 H    0.998 --     6 C    0.970
    54   1 H    0.998 --     7 C    0.968
    55   1 H    0.998 --     9 C    0.965
    56   1 H    0.995 --    11 C    0.948
    57   1 H    0.994 --    12 C    0.954
    58   1 H    0.999 --    14 C    0.966
    59   1 H    0.998 --    16 C    0.968
    60   1 H    0.998 --    17 C    0.970
    61   1 H    0.998 --    18 C    0.971
    62   1 H    0.998 --    19 C    0.968
    63   1 H    0.997 --    21 C    0.967
    64   1 H    0.998 --    22 C    0.967
    65   1 H    0.992 --    26 C    0.969
    66   1 H    0.990 --    27 C    0.966
    67   1 H    0.993 --    34 C    0.928
    68   1 H    0.851 --    36 O    0.707    48 O    0.121
    69   1 H    0.994 --    41 C    0.967
    70   1 H    0.990 --    42 C    0.966
 ---------------------------------------------------------------------------

Topologies differ in total number of bonds
Writing topology from bond orders to xtbtopo.mol

molecular dipole:
                 x           y           z       tot (Debye)
 q only:        1.337      -3.733      -2.020
   full:        1.194      -3.968      -2.003      11.700
molecular quadrupole (traceless):
                xx          xy          yy          xz          yz          zz
 q only:       13.292      26.456       2.044      25.428       8.369     -15.336
  q+dip:       17.754      24.757      -2.702      31.684      16.749     -15.052
   full:       18.446      28.396      -3.291      30.458      12.540     -15.154

           -------------------------------------------------
          |                Geometry Summary                 |
           -------------------------------------------------

      molecular mass/u    :      646.5605791
   center of mass at/Å    :       -0.2892251       0.4716600       0.1915998
  moments of inertia/u·Å² :        0.7273739E+04   0.9864708E+04   0.1097513E+05
rotational constants/cm⁻¹ :        0.2317602E-02   0.1708883E-02   0.1535985E-02

 * 69 selected distances

     #   Z          #   Z                                           value/Å
     1   6 C        2   6 C                                       1.3670439
     2   6 C        3   6 C                                       1.4091941
     3   6 C        4   6 C                                       1.4104130
     4   6 C        5   6 C                                       1.3664705
     5   6 C        6   6 C                                       1.4046237
     6   6 C        7   6 C                                       1.3663228
     3   6 C        8   6 C                                       1.4199207
     7   6 C        8   6 C                                       1.4110096
     8   6 C        9   6 C                                       1.4082161
     1   6 C       10   6 C                                       1.4082363
     9   6 C       10   6 C                                       1.3719991
    13   6 C       14   6 C                                       1.3718234
    14   6 C       15   6 C                                       1.4079740
    15   6 C       16   6 C                                       1.4109087
    16   6 C       17   6 C                                       1.3664834
    17   6 C       18   6 C                                       1.4043172
    18   6 C       19   6 C                                       1.3668035
    15   6 C       20   6 C                                       1.4198323
    19   6 C       20   6 C                                       1.4103510
    20   6 C       21   6 C                                       1.4100907
    13   6 C       22   6 C                                       1.4057143
    21   6 C       22   6 C                                       1.3657509
    12   6 C       23   7 N                                       1.4608862
    23   7 N       24   6 C                                       1.3620149
    25   6 C       26   6 C                                       1.3743883
    26   6 C       27   6 C                                       1.4053719
    27   6 C       28   6 C                                       1.3738319
    28   6 C       29   7 N                                       1.4176380
    29   7 N       30   8 O                                       1.2132529
    29   7 N       31   8 O                                       1.2107384
    25   6 C       32   8 O                                       1.3418119
    28   6 C       32   8 O                                       1.3446082
    24   6 C       33   8 O                                       1.2117459
    23   7 N       34   6 C                                       1.4524436
    35   6 C       36   8 O                                       1.2936166
    35   6 C       37   8 O                                       1.2038977
    11   6 C       38   7 N                                       1.4585657
    34   6 C       38   7 N                                       1.4671827 (max)
    38   7 N       39   6 C                                       1.3396842
    40   6 C       41   6 C                                       1.3789757
    41   6 C       42   6 C                                       1.4044631
    42   6 C       43   6 C                                       1.3751181
    43   6 C       44   7 N                                       1.4238630
    44   7 N       45   8 O                                       1.2133896
    44   7 N       46   8 O                                       1.2069592
    40   6 C       47   8 O                                       1.3372820
    43   6 C       47   8 O                                       1.3390547
    39   6 C       48   8 O                                       1.2231207
     1   6 C       49   1 H                                       1.0804607
     2   6 C       50   1 H                                       1.0800231
     4   6 C       51   1 H                                       1.0802486
     5   6 C       52   1 H                                       1.0796653
     6   6 C       53   1 H                                       1.0797030
     7   6 C       54   1 H                                       1.0802628
     9   6 C       55   1 H                                       1.0809163
    11   6 C       56   1 H                                       1.0943985
    12   6 C       57   1 H                                       1.0967579
    14   6 C       58   1 H                                       1.0822822
    16   6 C       59   1 H                                       1.0804997
    17   6 C       60   1 H                                       1.0797278
    18   6 C       61   1 H                                       1.0799773
    19   6 C       62   1 H                                       1.0805324
    21   6 C       63   1 H                                       1.0802546
    22   6 C       64   1 H                                       1.0798658
    26   6 C       65   1 H                                       1.0696819 (min)
    27   6 C       66   1 H                                       1.0703881
    34   6 C       67   1 H                                       1.1106120
    41   6 C       69   1 H                                       1.0706815
    42   6 C       70   1 H                                       1.0702766

 * 5 distinct bonds (by element types)

   Z      Z             #   av. dist./Å        max./Å        min./Å
   1 H    6 C          21     1.0812960     1.1106120     1.0696819
   6 C    6 C          28     1.3927017     1.4199207     1.3657509
   6 C    7 N           8     1.4227848     1.4671827     1.3396842
   6 C    8 O           8     1.2868922     1.3446082     1.2038977
   7 N    8 O           4     1.2110850     1.2133896     1.2069592


optimized geometry written to: xtbopt.xyz


           -------------------------------------------------
          | TOTAL ENERGY             -136.213134600384 Eh   |
          | GRADIENT NORM               0.000951837336 Eh/α |
          | HOMO-LUMO GAP               1.266358180165 eV   |
           -------------------------------------------------

------------------------------------------------------------------------
 * finished run on 2022/03/17 at 02:18:35.369     
------------------------------------------------------------------------
 total:
 * wall-time:     0 d,  0 h,  0 min, 22.980 sec
 *  cpu-time:     0 d,  0 h,  7 min, 54.016 sec
 * ratio c/w:    20.627 speedup
 SCF:
 * wall-time:     0 d,  0 h,  0 min,  0.559 sec
 *  cpu-time:     0 d,  0 h,  0 min,  9.114 sec
 * ratio c/w:    16.292 speedup
 ANC optimizer:
 * wall-time:     0 d,  0 h,  0 min, 22.307 sec
 *  cpu-time:     0 d,  0 h,  7 min, 41.066 sec
 * ratio c/w:    20.669 speedup

