      -----------------------------------------------------------      
     |                   =====================                   |     
     |                           x T B                           |     
     |                   =====================                   |     
     |                         S. Grimme                         |     
     |          Mulliken Center for Theoretical Chemistry        |     
     |                    University of Bonn                     |     
      -----------------------------------------------------------      

   * xtb version 6.3.3 (4ae9cef) compiled by 'conda@95abc7406d43' on 2020-10-14

   xtb is free software: you can redistribute it and/or modify it under
   the terms of the GNU Lesser General Public License as published by
   the Free Software Foundation, either version 3 of the License, or
   (at your option) any later version.
   
   xtb is distributed in the hope that it will be useful,
   but WITHOUT ANY WARRANTY; without even the implied warranty of
   MERCHANTABILITY or FITNESS FOR A PARTICULAR PURPOSE.  See the
   GNU Lesser General Public License for more details.
   
   Cite this work as:
   * C. Bannwarth, E. Caldeweyher, S. Ehlert, A. Hansen, P. Pracht,
     J. Seibert, S. Spicher, S. Grimme, WIREs Comput. Mol. Sci., 2020,
     e01493. DOI: 10.1002/wcms.1493
   
   for GFN2-xTB:
   * S. Grimme, C. Bannwarth, P. Shushkov, J. Chem. Theory Comput., 2017,
     13, 1989-2009. DOI: 10.1021/acs.jctc.7b00118
   for GFN1-xTB:
   * C. Bannwarth, S. Ehlert and S. Grimme., J. Chem. Theory Comput., 2019,
     15, 1652-1671. DOI: 10.1021/acs.jctc.8b01176
   for GFN0-xTB:
   * P. Pracht, E. Caldeweyher, S. Ehlert, S. Grimme, ChemRxiv, 2019, preprint.
     DOI: 10.26434/chemrxiv.8326202.v1
   for GFN-FF:
   * S. Spicher and S. Grimme, Angew. Chem. Int. Ed., 2020, 59, 15665-15673.
     DOI: 10.1002/anie.202004239
   
   for DFT-D4:
   * E. Caldeweyher, C. Bannwarth and S. Grimme, J. Chem. Phys., 2017,
     147, 034112. DOI: 10.1063/1.4993215
   * E. Caldeweyher, S. Ehlert, A. Hansen, H. Neugebauer, S. Spicher,
     C. Bannwarth and S. Grimme, J. Chem. Phys., 2019, 150, 154122.
     DOI: 10.1063/1.5090222
   * E. Caldeweyher, J.-M. Mewes, S. Ehlert and S. Grimme, Phys. Chem. Chem. Phys.
     2020, 22, 8499-8512. DOI: 10.1039/D0CP00502A
   
   for sTDA-xTB:
   * S. Grimme and C. Bannwarth, J. Chem. Phys., 2016, 145, 054103.
     DOI: 10.1063/1.4959605
   
   in the mass-spec context:
   * V. Asgeirsson, C. Bauer and S. Grimme, Chem. Sci., 2017, 8, 4879.
     DOI: 10.1039/c7sc00601b
   * J. Koopman and S. Grimme, ACS Omega 2019, 4, 12, 15120-15133.
     DOI: 10.1021/acsomega.9b02011
   
   for metadynamics refer to:
   * S. Grimme, J. Chem. Theory Comput., 2019, 155, 2847-2862
     DOI: 10.1021/acs.jctc.9b00143
   
   with help from (in alphabetical order)
   C. Bannwarth, F. Bohle, G. Brandenburg, E. Caldeweyher, M. Checinski,
   S. Dohm, S. Ehlert, S. Ehrlich, F. März, H. Neugebauer, J. Pisarek,
   P. Pracht, P. Shushkov, and S. Spicher.
   
 * started run on 2022/03/16 at 23:38:05.925     

           -------------------------------------------------
          |                Calculation Setup                |
           -------------------------------------------------

          program call               : xtb acid_307.xyz --opt --chrg 0 --uhf 0 --gfn 2
          coordinate file            : acid_307.xyz
          omp threads                :                    64
          number of atoms            :                    66
          number of electrons        :                   190
          charge                     :                     0
          spin                       :                   0.0
          first test random number   :      0.28325194453319

   ID    Z sym.   atoms
    1    8 O      1, 13, 14, 24
    2    6 C      2-9, 11, 12, 16-23, 25-38
    3    7 N      10, 15
    4    1 H      39-66

           -------------------------------------------------
          |                 G F N 2 - x T B                 |
           -------------------------------------------------

        Reference                      10.1021/acs.jctc.8b01176
      * Hamiltonian:
        H0-scaling (s, p, d)           1.850000    2.230000    2.230000
        zeta-weighting                 0.500000
      * Dispersion:
        s8                             2.700000
        a1                             0.520000
        a2                             5.000000
        s9                             5.000000
      * Repulsion:
        kExp                           1.500000    1.000000
        rExp                           1.000000
      * Coulomb:
        alpha                          2.000000
        third order                    shell-resolved
        anisotropic                    true
        a3                             3.000000
        a5                             4.000000
        cn-shift                       1.200000
        cn-exp                         4.000000
        max-rad                        5.000000


          ...................................................
          :                      SETUP                      :
          :.................................................:
          :  # basis functions                 180          :
          :  # atomic orbitals                 180          :
          :  # shells                          104          :
          :  # electrons                       190          :
          :  max. iterations                   250          :
          :  Hamiltonian                  GFN2-xTB          :
          :  restarted?                      false          :
          :  GBSA solvation                  false          :
          :  PC potential                    false          :
          :  electronic temp.          300.0000000     K    :
          :  accuracy                    1.0000000          :
          :  -> integral cutoff          0.2500000E+02      :
          :  -> integral neglect         0.1000000E-07      :
          :  -> SCF convergence          0.1000000E-05 Eh   :
          :  -> wf. convergence          0.1000000E-03 e    :
          :  Broyden damping             0.4000000          :
          ...................................................

 iter      E             dE          RMSdq      gap      omega  full diag
   1   -106.3062013 -0.106306E+03  0.447E+00    3.34       0.0  T
   2   -106.4544149 -0.148214E+00  0.257E+00    2.99       1.0  T
   3   -106.4510842  0.333067E-02  0.129E+00    3.52       1.0  T
   4   -106.4742325 -0.231483E-01  0.262E-01    2.92       1.0  T
   5   -106.4777808 -0.354826E-02  0.971E-02    2.97       1.0  T
   6   -106.4781454 -0.364634E-03  0.430E-02    2.99       1.0  T
   7   -106.4781811 -0.356250E-04  0.193E-02    2.99       1.0  T
   8   -106.4781825 -0.139979E-05  0.646E-03    3.00       1.9  T
   9   -106.4781842 -0.174294E-05  0.283E-03    3.00       4.4  T
  10   -106.4781844 -0.165073E-06  0.109E-03    3.00      11.3  T
  11   -106.4781844 -0.274025E-07  0.602E-04    3.00      20.4  T
  12   -106.4781844 -0.511646E-08  0.204E-04    3.00      60.5  T

   *** convergence criteria satisfied after 12 iterations ***

         #    Occupation            Energy/Eh            Energy/eV
      -------------------------------------------------------------
         1        2.0000           -0.7708299             -20.9754
       ...           ...                  ...                  ...
        89        2.0000           -0.4062906             -11.0557
        90        2.0000           -0.4041848             -10.9984
        91        2.0000           -0.4030190             -10.9667
        92        2.0000           -0.3999898             -10.8843
        93        2.0000           -0.3964118             -10.7869
        94        2.0000           -0.3911008             -10.6424
        95        2.0000           -0.3866774             -10.5220 (HOMO)
        96                         -0.2765396              -7.5250 (LUMO)
        97                         -0.2469325              -6.7194
        98                         -0.2385445              -6.4911
        99                         -0.2374280              -6.4607
       100                         -0.2357420              -6.4149
       ...                                ...                  ...
       180                          0.6250051              17.0073
      -------------------------------------------------------------
                  HL-Gap            0.1101377 Eh            2.9970 eV
             Fermi-level           -0.3316085 Eh           -9.0235 eV

 SCC (total)                   0 d,  0 h,  0 min,  0.464 sec
 SCC setup                      ...        0 min,  0.017 sec (  3.602%)
 Dispersion                     ...        0 min,  0.023 sec (  5.029%)
 classical contributions        ...        0 min,  0.014 sec (  2.986%)
 integral evaluation            ...        0 min,  0.082 sec ( 17.706%)
 iterations                     ...        0 min,  0.179 sec ( 38.658%)
 molecular gradient             ...        0 min,  0.147 sec ( 31.644%)
 printout                       ...        0 min,  0.002 sec (  0.356%)

         :::::::::::::::::::::::::::::::::::::::::::::::::::::
         ::                     SUMMARY                     ::
         :::::::::::::::::::::::::::::::::::::::::::::::::::::
         :: total energy            -104.934464570209 Eh    ::
         :: gradient norm              0.088441942408 Eh/a0 ::
         :: HOMO-LUMO gap              2.996999707809 eV    ::
         ::.................................................::
         :: SCC energy              -106.478184404464 Eh    ::
         :: -> isotropic ES            0.122008883440 Eh    ::
         :: -> anisotropic ES          0.007772195909 Eh    ::
         :: -> anisotropic XC          0.049237468157 Eh    ::
         :: -> dispersion             -0.085959293001 Eh    ::
         :: repulsion energy           1.540793684954 Eh    ::
         :: add. restraining           0.000000000000 Eh    ::
         :: total charge              -0.000000000000 e     ::
         :::::::::::::::::::::::::::::::::::::::::::::::::::::

      ----------------------------------------------------------- 
     |                   =====================                   |
     |                        A N C O P T                        |
     |                   =====================                   |
     |               Approximate Normal Coordinate               |
     |                Rational Function Optimizer                |
      ----------------------------------------------------------- 

          ...................................................
          :                      SETUP                      :
          :.................................................:
          :   optimization level            normal          :
          :   max. optcycles                   200          :
          :   ANC micro-cycles                  20          :
          :   degrees of freedom               192          :
          :.................................................:
          :   RF solver                   davidson          :
          :   write xtbopt.log                true          :
          :   linear?                        false          :
          :   energy convergence         0.5000000E-05 Eh   :
          :   grad. convergence          0.1000000E-02 Eh/α :
          :   maximium RF displ.         1.0000000          :
          :   Hlow (freq-cutoff)         0.1000000E-01      :
          :   Hmax (freq-cutoff)         5.0000000          :
          :   S6 in model hess.         20.0000000          :
          ...................................................

generating ANC from model Hessian ...
Using Lindh-Hessian (1995)
 Shifting diagonal of input Hessian by    9.8390228405697468E-003
 Lowest  eigenvalues of input Hessian
    0.000000    0.000000    0.000000    0.000000    0.000000    0.000000
    0.010000    0.010034    0.010117    0.010328    0.010459    0.010701
    0.010751    0.010932    0.010995    0.011082    0.011424    0.011910
 Highest eigenvalues
    1.938025    1.985660    1.991629    2.197400    2.246253    2.262096


........................................................................
.............................. CYCLE    1 ..............................
........................................................................
   1   -106.4781844 -0.106478E+03  0.891E-05    3.00       0.0  T
   2   -106.4781844 -0.120352E-09  0.564E-05    3.00     218.2  T
   3   -106.4781844 -0.864162E-10  0.351E-05    3.00     350.6  T
     SCC iter.                  ...        0 min,  0.050 sec
     gradient                   ...        0 min,  0.118 sec
 * total energy  :  -104.9344646 Eh     change       -0.1546283E-08 Eh
   gradient norm :     0.0884393 Eh/α   predicted     0.0000000E+00 (-100.00%)
   displ. norm   :     0.3513724 α      lambda       -0.1792103E-01
   maximum displ.:     0.1189401 α      in ANC's #30, #65, #105, ...

........................................................................
.............................. CYCLE    2 ..............................
........................................................................
   1   -106.5674663 -0.106567E+03  0.162E-01    3.29       0.0  T
   2   -106.5675750 -0.108747E-03  0.994E-02    3.23       1.0  T
   3   -106.5675174  0.576334E-04  0.464E-02    3.24       1.0  T
   4   -106.5676126 -0.952436E-04  0.825E-03    3.23       1.5  T
   5   -106.5676162 -0.353589E-05  0.287E-03    3.22       4.3  T
   6   -106.5676164 -0.198685E-06  0.140E-03    3.23       8.8  T
   7   -106.5676164 -0.124246E-07  0.427E-04    3.23      28.8  T
   8   -106.5676164 -0.272409E-08  0.200E-04    3.23      61.4  T
     SCC iter.                  ...        0 min,  0.118 sec
     gradient                   ...        0 min,  0.136 sec
 * total energy  :  -104.9467615 Eh     change       -0.1229695E-01 Eh
   gradient norm :     0.0312199 Eh/α   predicted    -0.1006680E-01 ( -18.14%)
   displ. norm   :     0.3549572 α      lambda       -0.5683197E-02
   maximum displ.:     0.1516262 α      in ANC's #30, #22, #28, ...

........................................................................
.............................. CYCLE    3 ..............................
........................................................................
   1   -106.6080556 -0.106608E+03  0.110E-01    3.38       0.0  T
   2   -106.6081061 -0.504697E-04  0.681E-02    3.34       1.0  T
   3   -106.6080806  0.255527E-04  0.311E-02    3.35       1.0  T
   4   -106.6081246 -0.440689E-04  0.588E-03    3.33       2.1  T
   5   -106.6081267 -0.205836E-05  0.182E-03    3.33       6.8  T
   6   -106.6081267 -0.369857E-07  0.894E-04    3.33      13.8  T
   7   -106.6081267 -0.688669E-08  0.330E-04    3.34      37.3  T
     SCC iter.                  ...        0 min,  0.103 sec
     gradient                   ...        0 min,  0.113 sec
 * total energy  :  -104.9502737 Eh     change       -0.3512214E-02 Eh
   gradient norm :     0.0123215 Eh/α   predicted    -0.3199629E-02 (  -8.90%)
   displ. norm   :     0.2531403 α      lambda       -0.1246123E-02
   maximum displ.:     0.1037347 α      in ANC's #22, #30, #11, ...

........................................................................
.............................. CYCLE    4 ..............................
........................................................................
   1   -106.6115677 -0.106612E+03  0.673E-02    3.36       0.0  T
   2   -106.6115771 -0.945644E-05  0.405E-02    3.35       1.0  T
   3   -106.6115657  0.114171E-04  0.149E-02    3.35       1.0  T
   4   -106.6115803 -0.145538E-04  0.300E-03    3.35       4.1  T
   5   -106.6115808 -0.524806E-06  0.110E-03    3.35      11.2  T
   6   -106.6115808 -0.597976E-08  0.521E-04    3.35      23.6  T
   7   -106.6115808 -0.414764E-08  0.185E-04    3.35      66.6  T
     SCC iter.                  ...        0 min,  0.103 sec
     gradient                   ...        0 min,  0.125 sec
 * total energy  :  -104.9511270 Eh     change       -0.8533109E-03 Eh
   gradient norm :     0.0077921 Eh/α   predicted    -0.6630134E-03 ( -22.30%)
   displ. norm   :     0.2737181 α      lambda       -0.7006515E-03
   maximum displ.:     0.1115885 α      in ANC's #11, #22, #13, ...

........................................................................
.............................. CYCLE    5 ..............................
........................................................................
   1   -106.6094531 -0.106609E+03  0.687E-02    3.37       0.0  T
   2   -106.6094561 -0.295227E-05  0.405E-02    3.36       1.0  T
   3   -106.6094522  0.389330E-05  0.869E-03    3.36       1.4  T
   4   -106.6094573 -0.509006E-05  0.200E-03    3.36       6.2  T
   5   -106.6094574 -0.983326E-07  0.108E-03    3.36      11.4  T
   6   -106.6094574 -0.101912E-07  0.361E-04    3.36      34.1  T
   7   -106.6094574 -0.327991E-08  0.150E-04    3.36      82.3  T
     SCC iter.                  ...        0 min,  0.105 sec
     gradient                   ...        0 min,  0.135 sec
 * total energy  :  -104.9515906 Eh     change       -0.4636018E-03 Eh
   gradient norm :     0.0050932 Eh/α   predicted    -0.3766399E-03 ( -18.76%)
   displ. norm   :     0.2589468 α      lambda       -0.3854863E-03
   maximum displ.:     0.1295460 α      in ANC's #11, #4, #8, ...

........................................................................
.............................. CYCLE    6 ..............................
........................................................................
   1   -106.6070315 -0.106607E+03  0.660E-02    3.36       0.0  T
   2   -106.6070331 -0.159838E-05  0.388E-02    3.36       1.0  T
   3   -106.6070321  0.968852E-06  0.497E-03    3.36       2.5  T
   4   -106.6070338 -0.163592E-05  0.155E-03    3.36       8.0  T
   5   -106.6070338 -0.302027E-07  0.849E-04    3.36      14.5  T
   6   -106.6070338 -0.892955E-08  0.261E-04    3.36      47.1  T
     SCC iter.                  ...        0 min,  0.089 sec
     gradient                   ...        0 min,  0.124 sec
 * total energy  :  -104.9518636 Eh     change       -0.2729614E-03 Eh
   gradient norm :     0.0065107 Eh/α   predicted    -0.2056743E-03 ( -24.65%)
   displ. norm   :     0.2934191 α      lambda       -0.3323251E-03
   maximum displ.:     0.1456109 α      in ANC's #11, #4, #8, ...

........................................................................
.............................. CYCLE    7 ..............................
........................................................................
   1   -106.6062357 -0.106606E+03  0.704E-02    3.37       0.0  T
   2   -106.6062388 -0.310440E-05  0.413E-02    3.37       1.0  T
   3   -106.6062360  0.282276E-05  0.670E-03    3.37       1.8  T
   4   -106.6062396 -0.361662E-05  0.195E-03    3.37       6.3  T
   5   -106.6062398 -0.194358E-06  0.947E-04    3.37      13.0  T
   6   -106.6062398 -0.788243E-08  0.438E-04    3.37      28.1  T
     SCC iter.                  ...        0 min,  0.089 sec
     gradient                   ...        0 min,  0.131 sec
 * total energy  :  -104.9521118 Eh     change       -0.2481627E-03 Eh
   gradient norm :     0.0055605 Eh/α   predicted    -0.1804761E-03 ( -27.28%)
   displ. norm   :     0.3219237 α      lambda       -0.3100936E-03
   maximum displ.:     0.1495785 α      in ANC's #11, #8, #4, ...

........................................................................
.............................. CYCLE    8 ..............................
........................................................................
   1   -106.6068041 -0.106607E+03  0.807E-02    3.37       0.0  T
   2   -106.6068067 -0.260151E-05  0.473E-02    3.37       1.0  T
   3   -106.6068024  0.428488E-05  0.791E-03    3.37       1.6  T
   4   -106.6068078 -0.535428E-05  0.178E-03    3.37       6.9  T
   5   -106.6068079 -0.110573E-06  0.949E-04    3.37      13.0  T
   6   -106.6068079 -0.570380E-08  0.422E-04    3.37      29.2  T
     SCC iter.                  ...        0 min,  0.089 sec
     gradient                   ...        0 min,  0.157 sec
 * total energy  :  -104.9523451 Eh     change       -0.2333528E-03 Eh
   gradient norm :     0.0054292 Eh/α   predicted    -0.1711165E-03 ( -26.67%)
   displ. norm   :     0.3226773 α      lambda       -0.2741361E-03
   maximum displ.:     0.1297573 α      in ANC's #8, #11, #4, ...

........................................................................
.............................. CYCLE    9 ..............................
........................................................................
   1   -106.6086895 -0.106609E+03  0.840E-02    3.39       0.0  T
   2   -106.6086926 -0.305498E-05  0.493E-02    3.38       1.0  T
   3   -106.6086881  0.440835E-05  0.808E-03    3.38       1.5  T
   4   -106.6086935 -0.538205E-05  0.168E-03    3.38       7.3  T
   5   -106.6086936 -0.114743E-06  0.816E-04    3.38      15.1  T
   6   -106.6086936 -0.236940E-08  0.445E-04    3.38      27.7  T
     SCC iter.                  ...        0 min,  0.094 sec
     gradient                   ...        0 min,  0.133 sec
 * total energy  :  -104.9525411 Eh     change       -0.1959755E-03 Eh
   gradient norm :     0.0036523 Eh/α   predicted    -0.1513590E-03 ( -22.77%)
   displ. norm   :     0.2919834 α      lambda       -0.1797818E-03
   maximum displ.:     0.1242700 α      in ANC's #8, #4, #9, ...

........................................................................
.............................. CYCLE   10 ..............................
........................................................................
   1   -106.6089846 -0.106609E+03  0.799E-02    3.37       0.0  T
   2   -106.6089866 -0.192661E-05  0.470E-02    3.37       1.0  T
   3   -106.6089832  0.337432E-05  0.709E-03    3.37       1.7  T
   4   -106.6089874 -0.423512E-05  0.132E-03    3.37       9.3  T
   5   -106.6089875 -0.337404E-07  0.749E-04    3.37      16.4  T
   6   -106.6089875 -0.382587E-08  0.297E-04    3.37      41.4  T
     SCC iter.                  ...        0 min,  0.093 sec
     gradient                   ...        0 min,  0.123 sec
 * total energy  :  -104.9526665 Eh     change       -0.1253802E-03 Eh
   gradient norm :     0.0041072 Eh/α   predicted    -0.9755563E-04 ( -22.19%)
   displ. norm   :     0.2518243 α      lambda       -0.1659368E-03
   maximum displ.:     0.1075128 α      in ANC's #8, #9, #4, ...

........................................................................
.............................. CYCLE   11 ..............................
........................................................................
   1   -106.6113679 -0.106611E+03  0.680E-02    3.42       0.0  T
   2   -106.6113707 -0.279955E-05  0.400E-02    3.41       1.0  T
   3   -106.6113675  0.319262E-05  0.793E-03    3.41       1.6  T
   4   -106.6113715 -0.402381E-05  0.123E-03    3.41      10.0  T
   5   -106.6113716 -0.451441E-07  0.681E-04    3.41      18.1  T
   6   -106.6113716 -0.833568E-08  0.298E-04    3.41      41.4  T
     SCC iter.                  ...        0 min,  0.089 sec
     gradient                   ...        0 min,  0.112 sec
 * total energy  :  -104.9527549 Eh     change       -0.8838700E-04 Eh
   gradient norm :     0.0063232 Eh/α   predicted    -0.8825468E-04 (  -0.15%)
   displ. norm   :     0.2146704 α      lambda       -0.1093318E-03
   maximum displ.:     0.0939940 α      in ANC's #8, #9, #4, ...

........................................................................
.............................. CYCLE   12 ..............................
........................................................................
   1   -106.6097560 -0.106610E+03  0.555E-02    3.38       0.0  T
   2   -106.6097572 -0.119541E-05  0.325E-02    3.38       1.0  T
   3   -106.6097559  0.125884E-05  0.488E-03    3.38       2.5  T
   4   -106.6097576 -0.163966E-05  0.981E-04    3.38      12.5  T
   5   -106.6097576 -0.239736E-07  0.550E-04    3.38      22.4  T
   6   -106.6097576 -0.382830E-08  0.259E-04    3.38      47.6  T
     SCC iter.                  ...        0 min,  0.090 sec
     gradient                   ...        0 min,  0.128 sec
 * total energy  :  -104.9528325 Eh     change       -0.7766354E-04 Eh
   gradient norm :     0.0028147 Eh/α   predicted    -0.5718811E-04 ( -26.36%)
   displ. norm   :     0.2097525 α      lambda       -0.1027417E-03
   maximum displ.:     0.0859227 α      in ANC's #9, #8, #1, ...

........................................................................
.............................. CYCLE   13 ..............................
........................................................................
   1   -106.6093749 -0.106609E+03  0.474E-02    3.38       0.0  T
   2   -106.6093759 -0.104009E-05  0.278E-02    3.37       1.0  T
   3   -106.6093741  0.189866E-05  0.528E-03    3.37       2.3  T
   4   -106.6093763 -0.224948E-05  0.884E-04    3.37      13.9  T
   5   -106.6093763 -0.384330E-07  0.395E-04    3.37      31.1  T
   6   -106.6093763 -0.118655E-08  0.199E-04    3.37      61.9  T
     SCC iter.                  ...        0 min,  0.091 sec
     gradient                   ...        0 min,  0.120 sec
 * total energy  :  -104.9529136 Eh     change       -0.8106138E-04 Eh
   gradient norm :     0.0027753 Eh/α   predicted    -0.5365616E-04 ( -33.81%)
   displ. norm   :     0.2752340 α      lambda       -0.1137152E-03
   maximum displ.:     0.1130131 α      in ANC's #9, #8, #1, ...

........................................................................
.............................. CYCLE   14 ..............................
........................................................................
   1   -106.6089420 -0.106609E+03  0.597E-02    3.38       0.0  T
   2   -106.6089434 -0.141571E-05  0.351E-02    3.38       1.0  T
   3   -106.6089403  0.312080E-05  0.662E-03    3.38       1.9  T
   4   -106.6089440 -0.370154E-05  0.963E-04    3.38      12.8  T
   5   -106.6089440 -0.416789E-07  0.460E-04    3.38      26.7  T
   6   -106.6089441 -0.136305E-08  0.189E-04    3.38      65.0  T
     SCC iter.                  ...        0 min,  0.091 sec
     gradient                   ...        0 min,  0.138 sec
 * total energy  :  -104.9530016 Eh     change       -0.8801593E-04 Eh
   gradient norm :     0.0029062 Eh/α   predicted    -0.6116823E-04 ( -30.50%)
   displ. norm   :     0.3008088 α      lambda       -0.1017248E-03
   maximum displ.:     0.1196636 α      in ANC's #9, #1, #3, ...

........................................................................
.............................. CYCLE   15 ..............................
........................................................................
   1   -106.6092341 -0.106609E+03  0.630E-02    3.39       0.0  T
   2   -106.6092352 -0.107250E-05  0.370E-02    3.39       1.0  T
   3   -106.6092322  0.297827E-05  0.636E-03    3.39       1.9  T
   4   -106.6092357 -0.353870E-05  0.789E-04    3.39      15.6  T
   5   -106.6092358 -0.160861E-07  0.431E-04    3.39      28.6  T
   6   -106.6092358 -0.139640E-08  0.158E-04    3.39      77.9  T
     SCC iter.                  ...        0 min,  0.089 sec
     gradient                   ...        0 min,  0.157 sec
 * total energy  :  -104.9530832 Eh     change       -0.8156551E-04 Eh
   gradient norm :     0.0031806 Eh/α   predicted    -0.5547117E-04 ( -31.99%)
   displ. norm   :     0.3504403 α      lambda       -0.1101582E-03
   maximum displ.:     0.1443135 α      in ANC's #1, #3, #9, ...

........................................................................
.............................. CYCLE   16 ..............................
........................................................................
   1   -106.6099158 -0.106610E+03  0.706E-02    3.39       0.0  T
   2   -106.6099170 -0.118745E-05  0.414E-02    3.39       1.0  T
   3   -106.6099135  0.348632E-05  0.691E-03    3.39       1.8  T
   4   -106.6099177 -0.414799E-05  0.797E-04    3.39      15.4  T
   5   -106.6099177 -0.106384E-07  0.442E-04    3.39      27.9  T
   6   -106.6099177 -0.204967E-08  0.173E-04    3.39      71.1  T
     SCC iter.                  ...        0 min,  0.091 sec
     gradient                   ...        0 min,  0.139 sec
 * total energy  :  -104.9531714 Eh     change       -0.8824346E-04 Eh
   gradient norm :     0.0029841 Eh/α   predicted    -0.6184398E-04 ( -29.92%)
   displ. norm   :     0.3894718 α      lambda       -0.1121117E-03
   maximum displ.:     0.1673699 α      in ANC's #1, #3, #9, ...

........................................................................
.............................. CYCLE   17 ..............................
........................................................................
   1   -106.6106373 -0.106611E+03  0.755E-02    3.40       0.0  T
   2   -106.6106386 -0.134047E-05  0.443E-02    3.40       1.0  T
   3   -106.6106344  0.424178E-05  0.770E-03    3.40       1.6  T
   4   -106.6106394 -0.504721E-05  0.840E-04    3.40      14.6  T
   5   -106.6106394 -0.822165E-08  0.471E-04    3.40      26.1  T
   6   -106.6106394 -0.282770E-08  0.159E-04    3.40      77.3  T
     SCC iter.                  ...        0 min,  0.092 sec
     gradient                   ...        0 min,  0.120 sec
 * total energy  :  -104.9532579 Eh     change       -0.8652966E-04 Eh
   gradient norm :     0.0024457 Eh/α   predicted    -0.6456447E-04 ( -25.38%)
   displ. norm   :     0.3597749 α      lambda       -0.8727617E-04
   maximum displ.:     0.1610612 α      in ANC's #1, #3, #2, ...

........................................................................
.............................. CYCLE   18 ..............................
........................................................................
   1   -106.6106709 -0.106611E+03  0.678E-02    3.40       0.0  T
   2   -106.6106724 -0.143838E-05  0.398E-02    3.39       1.0  T
   3   -106.6106687  0.366292E-05  0.736E-03    3.40       1.7  T
   4   -106.6106731 -0.438699E-05  0.870E-04    3.40      14.2  T
   5   -106.6106731 -0.180785E-07  0.471E-04    3.40      26.1  T
   6   -106.6106731 -0.168485E-08  0.178E-04    3.40      69.3  T
     SCC iter.                  ...        0 min,  0.090 sec
     gradient                   ...        0 min,  0.139 sec
 * total energy  :  -104.9533248 Eh     change       -0.6681798E-04 Eh
   gradient norm :     0.0021952 Eh/α   predicted    -0.4929327E-04 ( -26.23%)
   displ. norm   :     0.2974613 α      lambda       -0.6856731E-04
   maximum displ.:     0.1414267 α      in ANC's #1, #3, #2, ...

........................................................................
.............................. CYCLE   19 ..............................
........................................................................
   1   -106.6113202 -0.106611E+03  0.545E-02    3.40       0.0  T
   2   -106.6113214 -0.124348E-05  0.320E-02    3.39       1.0  T
   3   -106.6113187  0.270247E-05  0.648E-03    3.40       1.9  T
   4   -106.6113220 -0.326541E-05  0.822E-04    3.39      15.0  T
   5   -106.6113220 -0.198185E-07  0.442E-04    3.39      27.9  T
   6   -106.6113220 -0.110354E-08  0.171E-04    3.39      72.1  T
     SCC iter.                  ...        0 min,  0.095 sec
     gradient                   ...        0 min,  0.137 sec
 * total energy  :  -104.9533770 Eh     change       -0.5223469E-04 Eh
   gradient norm :     0.0022511 Eh/α   predicted    -0.3731852E-04 ( -28.56%)
   displ. norm   :     0.2937553 α      lambda       -0.5995769E-04
   maximum displ.:     0.1419231 α      in ANC's #1, #3, #2, ...

........................................................................
.............................. CYCLE   20 ..............................
........................................................................
   1   -106.6104289 -0.106610E+03  0.552E-02    3.39       0.0  T
   2   -106.6104303 -0.133835E-05  0.324E-02    3.39       1.0  T
   3   -106.6104280  0.230104E-05  0.617E-03    3.39       2.0  T
   4   -106.6104308 -0.282761E-05  0.915E-04    3.39      13.5  T
   5   -106.6104308 -0.269299E-07  0.481E-04    3.39      25.6  T
   6   -106.6104308 -0.121105E-08  0.184E-04    3.39      66.9  T
     SCC iter.                  ...        0 min,  0.095 sec
     gradient                   ...        0 min,  0.132 sec
 * total energy  :  -104.9534237 Eh     change       -0.4666344E-04 Eh
   gradient norm :     0.0022984 Eh/α   predicted    -0.3257001E-04 ( -30.20%)
   displ. norm   :     0.2651185 α      lambda       -0.6921979E-04
   maximum displ.:     0.1367971 α      in ANC's #1, #3, #2, ...
 * RMSD in coord.:     0.5420973 α      energy gain  -0.1895909E-01 Eh

generating ANC from model Hessian ...
Using Lindh-Hessian (1995)
 Shifting diagonal of input Hessian by    9.8367519663353619E-003
 Lowest  eigenvalues of input Hessian
    0.000000    0.000000    0.000000    0.000000    0.000000    0.000000
    0.010000    0.010072    0.010140    0.010408    0.010512    0.010767
    0.010816    0.011072    0.011141    0.011227    0.011761    0.012051
 Highest eigenvalues
    2.029797    2.054373    2.057109    2.335474    2.342247    2.398731


........................................................................
.............................. CYCLE   21 ..............................
........................................................................
   1   -106.6122789 -0.106612E+03  0.504E-02    3.40       0.0  T
   2   -106.6122807 -0.180919E-05  0.295E-02    3.39       1.0  T
   3   -106.6122787  0.199424E-05  0.622E-03    3.39       2.0  T
   4   -106.6122812 -0.253707E-05  0.113E-03    3.39      10.9  T
   5   -106.6122813 -0.487874E-07  0.571E-04    3.39      21.6  T
   6   -106.6122813 -0.248369E-08  0.247E-04    3.39      49.7  T
     SCC iter.                  ...        0 min,  0.091 sec
     gradient                   ...        0 min,  0.132 sec
 * total energy  :  -104.9534714 Eh     change       -0.4777301E-04 Eh
   gradient norm :     0.0023323 Eh/α   predicted     0.0000000E+00 (-100.00%)
   displ. norm   :     0.0394931 α      lambda       -0.3113939E-04
   maximum displ.:     0.0188578 α      in ANC's #11, #14, #9, ...

........................................................................
.............................. CYCLE   22 ..............................
........................................................................
   1   -106.6115973 -0.106612E+03  0.941E-03    3.39       0.0  T
   2   -106.6115974 -0.168604E-06  0.562E-03    3.39       2.2  T
   3   -106.6115973  0.108110E-06  0.155E-03    3.39       8.0  T
   4   -106.6115975 -0.136039E-06  0.325E-04    3.39      37.9  T
   5   -106.6115975 -0.644116E-08  0.107E-04    3.39     115.5  T
     SCC iter.                  ...        0 min,  0.076 sec
     gradient                   ...        0 min,  0.124 sec
 * total energy  :  -104.9534975 Eh     change       -0.2607750E-04 Eh
   gradient norm :     0.0010781 Eh/α   predicted    -0.1560814E-04 ( -40.15%)
   displ. norm   :     0.1995878 α      lambda       -0.6763243E-04
   maximum displ.:     0.0999748 α      in ANC's #11, #14, #9, ...

........................................................................
.............................. CYCLE   23 ..............................
........................................................................
   1   -106.6099253 -0.106610E+03  0.438E-02    3.39       0.0  T
   2   -106.6099266 -0.130759E-05  0.258E-02    3.39       1.0  T
   3   -106.6099249  0.170916E-05  0.536E-03    3.39       2.3  T
   4   -106.6099269 -0.203752E-05  0.958E-04    3.39      12.9  T
   5   -106.6099270 -0.489951E-07  0.388E-04    3.39      31.7  T
   6   -106.6099270 -0.215630E-08  0.208E-04    3.39      59.2  T
     SCC iter.                  ...        0 min,  0.091 sec
     gradient                   ...        0 min,  0.135 sec
 * total energy  :  -104.9535439 Eh     change       -0.4637960E-04 Eh
   gradient norm :     0.0030227 Eh/α   predicted    -0.3445114E-04 ( -25.72%)
   displ. norm   :     0.0363586 α      lambda       -0.1854437E-04
   maximum displ.:     0.0175588 α      in ANC's #11, #1, #9, ...

........................................................................
.............................. CYCLE   24 ..............................
........................................................................
   1   -106.6106487 -0.106611E+03  0.828E-03    3.39       0.0  T
   2   -106.6106488 -0.111607E-06  0.491E-03    3.39       2.5  T
   3   -106.6106487  0.127500E-06  0.153E-03    3.39       8.0  T
   4   -106.6106488 -0.155308E-06  0.276E-04    3.39      44.6  T
   5   -106.6106488 -0.578352E-08  0.864E-05    3.39     142.4  T
     SCC iter.                  ...        0 min,  0.079 sec
     gradient                   ...        0 min,  0.129 sec
 * total energy  :  -104.9535603 Eh     change       -0.1644986E-04 Eh
   gradient norm :     0.0020699 Eh/α   predicted    -0.9296920E-05 ( -43.48%)
   displ. norm   :     0.1599574 α      lambda       -0.5827881E-04
   maximum displ.:     0.0717958 α      in ANC's #11, #1, #9, ...

........................................................................
.............................. CYCLE   25 ..............................
........................................................................
   1   -106.6124192 -0.106612E+03  0.359E-02    3.39       0.0  T
   2   -106.6124206 -0.141890E-05  0.212E-02    3.39       1.0  T
   3   -106.6124187  0.195225E-05  0.571E-03    3.39       2.2  T
   4   -106.6124210 -0.233419E-05  0.963E-04    3.39      12.8  T
   5   -106.6124211 -0.662539E-07  0.341E-04    3.39      36.1  T
   6   -106.6124211 -0.239267E-08  0.175E-04    3.39      70.2  T
     SCC iter.                  ...        0 min,  0.095 sec
     gradient                   ...        0 min,  0.145 sec
 * total energy  :  -104.9535972 Eh     change       -0.3690442E-04 Eh
   gradient norm :     0.0012997 Eh/α   predicted    -0.2988589E-04 ( -19.02%)
   displ. norm   :     0.1704691 α      lambda       -0.1838307E-04
   maximum displ.:     0.0723302 α      in ANC's #1, #11, #9, ...

........................................................................
.............................. CYCLE   26 ..............................
........................................................................
   1   -106.6125966 -0.106613E+03  0.375E-02    3.39       0.0  T
   2   -106.6125971 -0.529378E-06  0.220E-02    3.39       1.0  T
   3   -106.6125960  0.111215E-05  0.396E-03    3.39       3.1  T
   4   -106.6125973 -0.132185E-05  0.611E-04    3.39      20.2  T
   5   -106.6125973 -0.157595E-07  0.302E-04    3.39      40.8  T
   6   -106.6125973 -0.955040E-09  0.137E-04    3.39      90.1  T
     SCC iter.                  ...        0 min,  0.091 sec
     gradient                   ...        0 min,  0.128 sec
 * total energy  :  -104.9536165 Eh     change       -0.1926729E-04 Eh
   gradient norm :     0.0020689 Eh/α   predicted    -0.9357988E-05 ( -51.43%)
   displ. norm   :     0.1060793 α      lambda       -0.1916222E-04
   maximum displ.:     0.0485049 α      in ANC's #1, #7, #12, ...

........................................................................
.............................. CYCLE   27 ..............................
........................................................................
   1   -106.6121591 -0.106612E+03  0.243E-02    3.39       0.0  T
   2   -106.6121592 -0.119816E-06  0.143E-02    3.39       1.0  T
   3   -106.6121590  0.196891E-06  0.175E-03    3.39       7.0  T
   4   -106.6121592 -0.251742E-06  0.334E-04    3.39      36.9  T
   5   -106.6121592 -0.164279E-08  0.175E-04    3.39      70.3  T
     SCC iter.                  ...        0 min,  0.081 sec
     gradient                   ...        0 min,  0.111 sec
 * total energy  :  -104.9536327 Eh     change       -0.1614398E-04 Eh
   gradient norm :     0.0014514 Eh/α   predicted    -0.9702665E-05 ( -39.90%)
   displ. norm   :     0.2749027 α      lambda       -0.3029863E-04
   maximum displ.:     0.1312959 α      in ANC's #1, #7, #12, ...

........................................................................
.............................. CYCLE   28 ..............................
........................................................................
   1   -106.6105390 -0.106611E+03  0.643E-02    3.39       0.0  T
   2   -106.6105399 -0.907033E-06  0.378E-02    3.39       1.0  T
   3   -106.6105385  0.144080E-05  0.477E-03    3.39       2.6  T
   4   -106.6105403 -0.183463E-05  0.901E-04    3.39      13.7  T
   5   -106.6105403 -0.150587E-07  0.482E-04    3.39      25.5  T
   6   -106.6105403 -0.200137E-08  0.201E-04    3.39      61.2  T
     SCC iter.                  ...        0 min,  0.096 sec
     gradient                   ...        0 min,  0.148 sec
 * total energy  :  -104.9536557 Eh     change       -0.2305161E-04 Eh
   gradient norm :     0.0011826 Eh/α   predicted    -0.1566311E-04 ( -32.05%)
   displ. norm   :     0.2753949 α      lambda        0.3167716E-04
   maximum displ.:     0.1323042 α      in ANC's #1, #7, #12, ...

........................................................................
.............................. CYCLE   29 ..............................
........................................................................
   1   -106.6080938 -0.106608E+03  0.644E-02    3.39       0.0  T
   2   -106.6080948 -0.959588E-06  0.378E-02    3.39       1.0  T
   3   -106.6080932  0.153995E-05  0.491E-03    3.39       2.5  T
   4   -106.6080952 -0.194296E-05  0.917E-04    3.39      13.4  T
   5   -106.6080952 -0.179688E-07  0.493E-04    3.39      24.9  T
   6   -106.6080952 -0.228029E-08  0.216E-04    3.39      57.1  T
     SCC iter.                  ...        0 min,  0.091 sec
     gradient                   ...        0 min,  0.129 sec
 * total energy  :  -104.9536306 Eh     change        0.2513169E-04 Eh
   gradient norm :     0.0033223 Eh/α   predicted     0.1637025E-04 ( -34.86%)
   displ. norm   :     0.1508671 α      lambda       -0.4054978E-04
   maximum displ.:     0.0662338 α      in ANC's #1, #7, #9, ...

........................................................................
.............................. CYCLE   30 ..............................
........................................................................
   1   -106.6101963 -0.106610E+03  0.350E-02    3.39       0.0  T
   2   -106.6101966 -0.372879E-06  0.206E-02    3.39       1.0  T
   3   -106.6101961  0.507478E-06  0.284E-03    3.39       4.3  T
   4   -106.6101968 -0.631525E-06  0.546E-04    3.39      22.5  T
   5   -106.6101968 -0.100250E-07  0.277E-04    3.39      44.4  T
     SCC iter.                  ...        0 min,  0.076 sec
     gradient                   ...        0 min,  0.127 sec
 * total energy  :  -104.9536593 Eh     change       -0.2873643E-04 Eh
   gradient norm :     0.0015658 Eh/α   predicted    -0.2073764E-04 ( -27.84%)
   displ. norm   :     0.1145498 α      lambda       -0.1637100E-04
   maximum displ.:     0.0536081 α      in ANC's #11, #9, #1, ...

........................................................................
.............................. CYCLE   31 ..............................
........................................................................
   1   -106.6120318 -0.106612E+03  0.259E-02    3.39       0.0  T
   2   -106.6120322 -0.344010E-06  0.152E-02    3.39       1.0  T
   3   -106.6120317  0.432350E-06  0.261E-03    3.39       4.7  T
   4   -106.6120323 -0.525021E-06  0.554E-04    3.39      22.2  T
   5   -106.6120323 -0.148675E-07  0.250E-04    3.39      49.2  T
     SCC iter.                  ...        0 min,  0.076 sec
     gradient                   ...        0 min,  0.135 sec
 * total energy  :  -104.9536727 Eh     change       -0.1339426E-04 Eh
   gradient norm :     0.0004939 Eh/α   predicted    -0.8238805E-05 ( -38.49%)
   displ. norm   :     0.0539219 α      lambda       -0.5575941E-05
   maximum displ.:     0.0273833 α      in ANC's #1, #6, #3, ...

........................................................................
.............................. CYCLE   32 ..............................
........................................................................
   1   -106.6122064 -0.106612E+03  0.110E-02    3.39       0.0  T
   2   -106.6122064 -0.334829E-07  0.642E-03    3.39       1.9  T
   3   -106.6122063  0.785373E-07  0.109E-03    3.39      11.3  T
   4   -106.6122064 -0.957028E-07  0.162E-04    3.39      76.1  T
   5   -106.6122064 -0.513708E-09  0.906E-05    3.39     135.8  T
     SCC iter.                  ...        0 min,  0.078 sec
     gradient                   ...        0 min,  0.132 sec
 * total energy  :  -104.9536806 Eh     change       -0.7866291E-05 Eh
   gradient norm :     0.0005773 Eh/α   predicted    -0.2796145E-05 ( -64.45%)
   displ. norm   :     0.2098826 α      lambda       -0.2003884E-04
   maximum displ.:     0.1064246 α      in ANC's #1, #3, #6, ...

........................................................................
.............................. CYCLE   33 ..............................
........................................................................
   1   -106.6116502 -0.106612E+03  0.432E-02    3.39       0.0  T
   2   -106.6116507 -0.524995E-06  0.253E-02    3.39       1.0  T
   3   -106.6116495  0.121747E-05  0.426E-03    3.39       2.9  T
   4   -106.6116510 -0.148276E-05  0.644E-04    3.39      19.1  T
   5   -106.6116510 -0.802545E-08  0.360E-04    3.39      34.2  T
   6   -106.6116510 -0.129509E-08  0.136E-04    3.39      90.5  T
     SCC iter.                  ...        0 min,  0.095 sec
     gradient                   ...        0 min,  0.130 sec
 * total energy  :  -104.9537038 Eh     change       -0.2326575E-04 Eh
   gradient norm :     0.0005534 Eh/α   predicted    -0.1021850E-04 ( -56.08%)
   displ. norm   :     0.2690227 α      lambda       -0.1592174E-04
   maximum displ.:     0.1407897 α      in ANC's #1, #3, #6, ...

........................................................................
.............................. CYCLE   34 ..............................
........................................................................
   1   -106.6112875 -0.106611E+03  0.560E-02    3.39       0.0  T
   2   -106.6112882 -0.726520E-06  0.329E-02    3.39       1.0  T
   3   -106.6112865  0.169903E-05  0.507E-03    3.39       2.4  T
   4   -106.6112886 -0.208648E-05  0.751E-04    3.39      16.4  T
   5   -106.6112886 -0.752598E-08  0.428E-04    3.39      28.8  T
   6   -106.6112886 -0.218718E-08  0.154E-04    3.39      79.9  T
     SCC iter.                  ...        0 min,  0.094 sec
     gradient                   ...        0 min,  0.036 sec
 * total energy  :  -104.9537198 Eh     change       -0.1594908E-04 Eh
   gradient norm :     0.0007019 Eh/α   predicted    -0.8218035E-05 ( -48.47%)
   displ. norm   :     0.1506065 α      lambda       -0.6359761E-05
   maximum displ.:     0.0816442 α      in ANC's #1, #3, #7, ...

........................................................................
.............................. CYCLE   35 ..............................
........................................................................
   1   -106.6115329 -0.106612E+03  0.322E-02    3.39       0.0  T
   2   -106.6115331 -0.225208E-06  0.189E-02    3.39       1.0  T
   3   -106.6115326  0.466197E-06  0.268E-03    3.39       4.6  T
   4   -106.6115332 -0.579038E-06  0.407E-04    3.39      30.3  T
   5   -106.6115332 -0.205551E-08  0.231E-04    3.39      53.2  T
     SCC iter.                  ...        0 min,  0.078 sec
     gradient                   ...        0 min,  0.146 sec
 * total energy  :  -104.9537272 Eh     change       -0.7436207E-05 Eh
   gradient norm :     0.0004920 Eh/α   predicted    -0.3214222E-05 ( -56.78%)
   displ. norm   :     0.1587745 α      lambda       -0.7932409E-05
   maximum displ.:     0.0866942 α      in ANC's #1, #3, #7, ...

........................................................................
.............................. CYCLE   36 ..............................
........................................................................
   1   -106.6118833 -0.106612E+03  0.352E-02    3.39       0.0  T
   2   -106.6118836 -0.229279E-06  0.206E-02    3.39       1.0  T
   3   -106.6118831  0.464739E-06  0.268E-03    3.39       4.6  T
   4   -106.6118837 -0.584322E-06  0.405E-04    3.39      30.4  T
   5   -106.6118837 -0.120023E-08  0.230E-04    3.39      53.6  T
     SCC iter.                  ...        0 min,  0.083 sec
     gradient                   ...        0 min,  0.128 sec
 * total energy  :  -104.9537365 Eh     change       -0.9319682E-05 Eh
   gradient norm :     0.0004142 Eh/α   predicted    -0.4012292E-05 ( -56.95%)
   displ. norm   :     0.1939983 α      lambda       -0.9112785E-05
   maximum displ.:     0.1056101 α      in ANC's #1, #3, #7, ...

........................................................................
.............................. CYCLE   37 ..............................
........................................................................
   1   -106.6119877 -0.106612E+03  0.438E-02    3.39       0.0  T
   2   -106.6119881 -0.389322E-06  0.257E-02    3.39       1.0  T
   3   -106.6119873  0.739748E-06  0.339E-03    3.39       3.6  T
   4   -106.6119882 -0.930257E-06  0.525E-04    3.39      23.4  T
   5   -106.6119883 -0.289880E-08  0.302E-04    3.39      40.8  T
     SCC iter.                  ...        0 min,  0.075 sec
     gradient                   ...        0 min,  0.113 sec
 * total energy  :  -104.9537464 Eh     change       -0.9854784E-05 Eh
   gradient norm :     0.0005571 Eh/α   predicted    -0.4634450E-05 ( -52.97%)
   displ. norm   :     0.1379712 α      lambda       -0.5259043E-05
   maximum displ.:     0.0751124 α      in ANC's #1, #3, #7, ...

........................................................................
.............................. CYCLE   38 ..............................
........................................................................
   1   -106.6119879 -0.106612E+03  0.311E-02    3.39       0.0  T
   2   -106.6119881 -0.187004E-06  0.182E-02    3.39       1.0  T
   3   -106.6119878  0.375703E-06  0.240E-03    3.39       5.1  T
   4   -106.6119882 -0.473803E-06  0.376E-04    3.39      32.7  T
   5   -106.6119882 -0.956319E-09  0.209E-04    3.39      58.9  T
     SCC iter.                  ...        0 min,  0.079 sec
     gradient                   ...        0 min,  0.148 sec
 * total energy  :  -104.9537522 Eh     change       -0.5765325E-05 Eh
   gradient norm :     0.0005278 Eh/α   predicted    -0.2655808E-05 ( -53.93%)
   displ. norm   :     0.0878700 α      lambda       -0.3593261E-05
   maximum displ.:     0.0463322 α      in ANC's #1, #4, #3, ...

........................................................................
.............................. CYCLE   39 ..............................
........................................................................
   1   -106.6121230 -0.106612E+03  0.194E-02    3.39       0.0  T
   2   -106.6121231 -0.776089E-07  0.114E-02    3.39       1.1  T
   3   -106.6121229  0.168261E-06  0.159E-03    3.39       7.7  T
   4   -106.6121231 -0.211621E-06  0.259E-04    3.39      47.6  T
   5   -106.6121231 -0.284984E-09  0.138E-04    3.39      89.5  T
     SCC iter.                  ...        0 min,  0.076 sec
     gradient                   ...        0 min,  0.147 sec
 * total energy  :  -104.9537561 Eh     change       -0.3930128E-05 Eh
   gradient norm :     0.0004175 Eh/α   predicted    -0.1807623E-05 ( -54.01%)
   displ. norm   :     0.0635200 α      lambda       -0.2667787E-05
   maximum displ.:     0.0307184 α      in ANC's #1, #4, #8, ...

   *** GEOMETRY OPTIMIZATION CONVERGED AFTER 39 ITERATIONS ***

------------------------------------------------------------------------
 total energy gain   :        -0.0192915 Eh      -12.1056 kcal/mol
 total RMSD          :         0.7046202 a0        0.3729 Å
 total power (kW/mol):        -1.2987154 (step)   -3.6266 (real)
------------------------------------------------------------------------

 ANCopt (total)                0 d,  0 h,  0 min, 13.966 sec
 optimizer setup                ...        0 min,  0.000 sec (  0.002%)
 model hessian                  ...        0 min,  0.065 sec (  0.467%)
 ANC generation                 ...        0 min,  0.022 sec (  0.159%)
 coordinate transformation      ...        0 min,  0.004 sec (  0.025%)
 single point calculation       ...        0 min, 13.257 sec ( 94.922%)
 optimization log               ...        0 min,  0.042 sec (  0.298%)
 hessian update                 ...        0 min,  0.533 sec (  3.819%)
 rational function              ...        0 min,  0.015 sec (  0.104%)

================
 final structure:
================
66
 xtb: 6.3.3 (4ae9cef)
O        -3.56716300853709    0.30208952786859   -0.18181253525332
C        -2.45416700168701   -0.10424107091816    0.07559467930190
C        -2.16017882153858   -1.51815357374717    0.46530325911832
C        -1.53173831742770   -2.38439797472158   -0.42164707118789
C        -1.28010655329775   -3.69397055570718   -0.05532437603162
C        -1.64833843557450   -4.16524741882294    1.19800918520470
C        -1.38704356097985   -5.58512162825914    1.59655563727273
C        -2.29018369999165   -3.29550931206391    2.07272948942314
C        -2.55039443810620   -1.98697260812182    1.71235218937725
N        -1.36335076274886    0.70160053207762    0.01801386772714
C        -0.00234528045291    0.36712712051417    0.31531616324610
C         0.36707379930143    0.69408936070266    1.77971492703434
O        -0.61888528314634    0.36507301145576    2.60947505015170
O         1.42057700197662    1.14166177208598    2.13101644799926
N         0.75166983485262    1.17581297062999   -0.60879557215624
C         2.09292931615513    1.11872538667882   -0.83728298542825
C         2.75229334603132   -0.12685320716447   -0.34602179752501
C         3.78769429089013   -0.06458808845416    0.57564274164801
C         4.40178835236186   -1.22615595913304    1.00533637631984
C         4.01184616791864   -2.46622390567661    0.51355679836764
C         4.69774880541748   -3.71860871997851    0.96694426438888
C         2.99432451008043   -2.51681834574197   -0.43165277053094
C         2.36837292543235   -1.36128824767633   -0.85905992636919
O         2.67281036085121    1.99472511298168   -1.44215708678439
C        -0.07161597266221    2.24975172848972   -1.16731253232439
C        -0.20615850549181    2.06986651945685   -2.66047405077467
C        -0.74280099936265    0.90011322461724   -3.18453553059299
C        -0.85042521508123    0.72969566870167   -4.55247697128121
C        -0.41887274334754    1.72584111231918   -5.41185262379330
C         0.11944472951832    2.89197031378920   -4.89644731803565
C         0.22598859420239    3.06277754232485   -3.52737750184810
C        -1.40963134095931    2.09476084676281   -0.42502125969647
C        -1.61035663828453    2.99637922973911    0.77244729945042
C        -2.91125092087048    3.18463720482834    1.22915455969861
C        -3.15720421690252    3.94014196971456    2.36040923283910
C        -2.10488933794370    4.51734071872223    3.05196618062839
C        -0.80878553297604    4.33213729315554    2.60526908604264
C        -0.55909646038390    3.57373648477107    1.47292844841892
H        -1.25140339039095   -2.04129127080003   -1.40804640637429
H        -0.79273006310559   -4.35816472090542   -0.75456110930542
H        -1.01054953941919   -5.63580046385477    2.61629628769690
H        -2.31245484027711   -6.15968710980683    1.55448661456679
H        -0.66595774346373   -6.05168421657297    0.93023202110799
H        -2.59258887633232   -3.65166915911027    3.04698873637600
H        -3.05156639445778   -1.31840857463061    2.39519832149078
H         0.18879483944178   -0.70786407264154    0.19081554455131
H        -0.37834967083356    0.56577669650312    3.52901454685032
H         4.09373778512374    0.89477471974779    0.96133094495110
H         5.19971192230589   -1.17067128225628    1.73149426906088
H         5.59168246217693   -3.88937004036046    0.36636168159885
H         4.04632677685361   -4.58215416745427    0.85483767797517
H         5.00430122664059   -3.63792294205562    2.00728199122949
H         2.69071047468160   -3.47106812404703   -0.83836487820723
H         1.59490674513178   -1.41311828531294   -1.61322508527584
H         0.39856336966590    3.21827929142554   -0.97329504694501
H        -1.08595325129322    0.12093275278230   -2.51952976636997
H        -1.27171758146417   -0.18269121502931   -4.94888122784254
H        -0.50007076041381    1.59102792288098   -6.48024924580797
H         0.46216456084317    3.66997770387605   -5.56216443466364
H         0.65752975946218    3.96799006710692   -3.12777205760932
H        -2.26230016245781    2.19941888973752   -1.10336492292832
H        -3.72777802711304    2.72131600898912    0.69608577885087
H        -4.17184362278850    4.07910825594868    2.70272758687340
H        -2.29442231246985    5.10901503096975    3.93542995841946
H         0.01828616103370    4.77625692507078    3.13921935890725
H         0.46339216569042    3.44178734359646    1.15316888678290

 Bond Distances (Angstroems)
 ---------------------------
O1-C2=1.2125         C2-O1=1.2125         C2-C3=1.4958         C2-N10=1.3574        C3-C2=1.4958         C3-C4=1.3900         
C3-C9=1.3882         C4-C3=1.3900         C4-C5=1.3829         C4-H39=1.0813        C5-C4=1.3829         C5-C6=1.3887         
C5-H40=1.0806        C6-C5=1.3887         C6-C7=1.4977         C6-C8=1.3905         C7-C6=1.4977         C7-H41=1.0882        
C7-H42=1.0901        C7-H43=1.0870        C8-C6=1.3905         C8-C9=1.3820         C8-H44=1.0805        C9-C3=1.3882         
C9-C8=1.3820         C9-H45=1.0791        N10-C2=1.3574        N10-C11=1.4327       N10-C32=1.4626       C11-N10=1.4327       
C11-C12=1.5453       C11-N15=1.4410       C11-H46=1.0989       C12-C11=1.5453       C12-O13=1.3300       C12-O14=1.1973       
O13-C12=1.3300       O13-H47=0.9714       O14-C12=1.1973       N15-C11=1.4410       N15-C16=1.3618       N15-C25=1.4639       
C16-N15=1.3618       C16-C17=1.4925       C16-O24=1.2122       C17-C16=1.4925       C17-C18=1.3876       C17-C23=1.3908       
C18-C17=1.3876       C18-C19=1.3824       C18-H48=1.0783       C19-C18=1.3824       C19-C20=1.3898       C19-H49=1.0803       
C20-C19=1.3898       C20-C21=1.4982       C20-C22=1.3897       C21-C20=1.4982       C21-H50=1.0904       C21-H51=1.0875       
C21-H52=1.0876       C22-C20=1.3897       C22-C23=1.3819       C22-H53=1.0808       C23-C17=1.3908       C23-C22=1.3819       
C23-H54=1.0815       O24-C16=1.2122       C25-N15=1.4639       C25-C26=1.5100       C25-C32=1.5380       C25-H55=1.0940       
C26-C25=1.5100       C26-C27=1.3896       C26-C31=1.3871       C27-C26=1.3896       C27-C28=1.3827       C27-H56=1.0803       
C28-C27=1.3827       C28-C29=1.3846       C28-H57=1.0803       C29-C28=1.3846       C29-C30=1.3839       C29-H58=1.0799       
C30-C29=1.3839       C30-C31=1.3838       C30-H59=1.0798       C31-C26=1.3871       C31-C30=1.3838       C31-H60=1.0795       
C32-N10=1.4626       C32-C25=1.5380       C32-C33=1.5123       C32-H61=1.0946       C33-C32=1.5123       C33-C34=1.3915       
C33-C38=1.3889       C34-C33=1.3915       C34-C35=1.3824       C34-H62=1.0796       C35-C34=1.3824       C35-C36=1.3852       
C35-H63=1.0798       C36-C35=1.3852       C36-C37=1.3834       C36-H64=1.0801       C37-C36=1.3834       C37-C38=1.3855       
C37-H65=1.0800       C38-C33=1.3889       C38-C37=1.3855       C38-H66=1.0794       H39-C4=1.0813        H40-C5=1.0806        
H41-C7=1.0882        H42-C7=1.0901        H43-C7=1.0870        H44-C8=1.0805        H45-C9=1.0791        H46-C11=1.0989       
H47-O13=0.9714       H48-C18=1.0783       H49-C19=1.0803       H50-C21=1.0904       H51-C21=1.0875       H52-C21=1.0876       
H53-C22=1.0808       H54-C23=1.0815       H55-C25=1.0940       H56-C27=1.0803       H57-C28=1.0803       H58-C29=1.0799       
H59-C30=1.0798       H60-C31=1.0795       H61-C32=1.0946       H62-C34=1.0796       H63-C35=1.0798       H64-C36=1.0801       
H65-C37=1.0800       H66-C38=1.0794       
 C  H  Rav=1.0837 sigma=0.0056  Rmin=1.0783  Rmax=1.0989    27
 C  C  Rav=1.4176 sigma=0.0549  Rmin=1.3819  Rmax=1.5453    32
 N  C  Rav=1.4199 sigma=0.0441  Rmin=1.3574  Rmax=1.4639     6
 O  H  Rav=0.9714 sigma=0.0000  Rmin=0.9714  Rmax=0.9714     1
 O  C  Rav=1.2380 sigma=0.0535  Rmin=1.1973  Rmax=1.3300     4

 selected bond angles (degree)
 --------------------
C3-C2-O1=123.54                N10-C2-O1=121.99               N10-C2-C3=114.47               C4-C3-C2=120.78                
C9-C3-C2=119.87                C9-C3-C4=119.33                C5-C4-C3=120.22                H39-C4-C3=120.10               
H39-C4-C5=119.67               C6-C5-C4=120.81                H40-C5-C4=119.52               H40-C5-C6=119.67               
C7-C6-C5=121.04                C8-C6-C5=118.55                C8-C6-C7=120.40                H41-C7-C6=110.72               
H42-C7-C6=109.96               H42-C7-H41=107.78              H43-C7-C6=111.07               H43-C7-H41=108.96              
H43-C7-H42=108.26              C9-C8-C6=121.00                H44-C8-C6=119.36               H44-C8-C9=119.64               
C8-C9-C3=120.07                H45-C9-C3=119.32               H45-C9-C8=120.60               C11-N10-C2=128.02              
C32-N10-C2=123.56              C32-N10-C11=108.38             

 selected dihedral angles (degree)
 ---------------------------------
C4-C3-C2-O1=106.69            C4-C3-C2-N10=287.29           C9-C3-C2-O1=288.50            C9-C3-C2-N10=109.09           
C5-C4-C3-C2=180.79            C5-C4-C3-C9=359.00            H39-C4-C3-C2=359.81           H39-C4-C3-C9=178.02           
C6-C5-C4-C3=  0.00            C6-C5-C4-H39=180.98           H40-C5-C4-C3=179.87           H40-C5-C4-H39=  0.85          
C7-C6-C5-C4=179.56            C7-C6-C5-H40=359.69           C8-C6-C5-C4=  0.73            C8-C6-C5-H40=180.85           
H41-C7-C6-C5=137.13           H41-C7-C6-C8=315.95           H42-C7-C6-C5=256.12           H42-C7-C6-C8= 74.94           
H43-C7-C6-C5= 15.93           H43-C7-C6-C8=194.75           C9-C8-C6-C5=359.55            C9-C8-C6-C7=180.70            
H44-C8-C6-C5=179.31           H44-C8-C6-C7=  0.46           C8-C9-C3-C2=179.50            C8-C9-C3-C4=  1.27            
H45-C9-C3-C2=359.14           H45-C9-C3-C4=180.91           C3-C9-C8-C6=359.45            C3-C9-C8-H44=179.70           
H45-C9-C8-C6=179.81           H45-C9-C8-H44=  0.06          C11-N10-C2-O1=178.81          C11-N10-C2-C3=358.23          
C32-N10-C2-O1=356.47          C32-N10-C2-C3=175.88          
           -------------------------------------------------
          |                Final Singlepoint                |
           -------------------------------------------------

          ...................................................
          :                      SETUP                      :
          :.................................................:
          :  # basis functions                 180          :
          :  # atomic orbitals                 180          :
          :  # shells                          104          :
          :  # electrons                       190          :
          :  max. iterations                   250          :
          :  Hamiltonian                  GFN2-xTB          :
          :  restarted?                      false          :
          :  GBSA solvation                  false          :
          :  PC potential                    false          :
          :  electronic temp.          300.0000000     K    :
          :  accuracy                    1.0000000          :
          :  -> integral cutoff          0.2500000E+02      :
          :  -> integral neglect         0.1000000E-07      :
          :  -> SCF convergence          0.1000000E-05 Eh   :
          :  -> wf. convergence          0.1000000E-03 e    :
          :  Broyden damping             0.4000000          :
          ...................................................

 iter      E             dE          RMSdq      gap      omega  full diag
   1   -106.6121231 -0.106612E+03  0.448E-05    3.39       0.0  T
   2   -106.6121231 -0.291323E-10  0.285E-05    3.39     432.6  T
   3   -106.6121231 -0.165841E-10  0.182E-05    3.39     677.5  T

   *** convergence criteria satisfied after 3 iterations ***

         #    Occupation            Energy/Eh            Energy/eV
      -------------------------------------------------------------
         1        2.0000           -0.7747359             -21.0816
       ...           ...                  ...                  ...
        89        2.0000           -0.4065042             -11.0615
        90        2.0000           -0.4062197             -11.0538
        91        2.0000           -0.4012291             -10.9180
        92        2.0000           -0.4011178             -10.9150
        93        2.0000           -0.3958733             -10.7723
        94        2.0000           -0.3908585             -10.6358
        95        2.0000           -0.3879063             -10.5555 (HOMO)
        96                         -0.2633845              -7.1671 (LUMO)
        97                         -0.2427958              -6.6068
        98                         -0.2400974              -6.5334
        99                         -0.2358411              -6.4176
       100                         -0.2347847              -6.3888
       ...                                ...                  ...
       180                          0.6681767              18.1820
      -------------------------------------------------------------
                  HL-Gap            0.1245218 Eh            3.3884 eV
             Fermi-level           -0.3256454 Eh           -8.8613 eV

 SCC (total)                   0 d,  0 h,  0 min,  0.304 sec
 SCC setup                      ...        0 min,  0.015 sec (  4.822%)
 Dispersion                     ...        0 min,  0.017 sec (  5.511%)
 classical contributions        ...        0 min,  0.020 sec (  6.555%)
 integral evaluation            ...        0 min,  0.074 sec ( 24.220%)
 iterations                     ...        0 min,  0.047 sec ( 15.300%)
 molecular gradient             ...        0 min,  0.131 sec ( 43.018%)
 printout                       ...        0 min,  0.002 sec (  0.549%)

         :::::::::::::::::::::::::::::::::::::::::::::::::::::
         ::                     SUMMARY                     ::
         :::::::::::::::::::::::::::::::::::::::::::::::::::::
         :: total energy            -104.953756098524 Eh    ::
         :: gradient norm              0.000418126062 Eh/a0 ::
         :: HOMO-LUMO gap              3.388410599345 eV    ::
         ::.................................................::
         :: SCC energy              -106.612123114288 Eh    ::
         :: -> isotropic ES            0.120863087655 Eh    ::
         :: -> anisotropic ES          0.008012122519 Eh    ::
         :: -> anisotropic XC          0.045677800407 Eh    ::
         :: -> dispersion             -0.089713617847 Eh    ::
         :: repulsion energy           1.655258499477 Eh    ::
         :: add. restraining           0.000000000000 Eh    ::
         :: total charge               0.000000000000 e     ::
         :::::::::::::::::::::::::::::::::::::::::::::::::::::

           -------------------------------------------------
          |                Property Printout                |
           -------------------------------------------------

    * Orbital Energies and Occupations

         #    Occupation            Energy/Eh            Energy/eV
      -------------------------------------------------------------
         1        2.0000           -0.7747359             -21.0816
       ...           ...                  ...                  ...
        83        2.0000           -0.4234704             -11.5232
        84        2.0000           -0.4181340             -11.3780
        85        2.0000           -0.4138064             -11.2602
        86        2.0000           -0.4106951             -11.1756
        87        2.0000           -0.4101477             -11.1607
        88        2.0000           -0.4085882             -11.1183
        89        2.0000           -0.4065042             -11.0615
        90        2.0000           -0.4062197             -11.0538
        91        2.0000           -0.4012291             -10.9180
        92        2.0000           -0.4011178             -10.9150
        93        2.0000           -0.3958733             -10.7723
        94        2.0000           -0.3908585             -10.6358
        95        2.0000           -0.3879063             -10.5555 (HOMO)
        96                         -0.2633845              -7.1671 (LUMO)
        97                         -0.2427958              -6.6068
        98                         -0.2400974              -6.5334
        99                         -0.2358411              -6.4176
       100                         -0.2347847              -6.3888
       101                         -0.2282445              -6.2108
       102                         -0.2277438              -6.1972
       103                         -0.2271005              -6.1797
       104                         -0.2241392              -6.0991
       105                         -0.2113694              -5.7517
       106                         -0.1981682              -5.3924
       ...                                ...                  ...
       180                          0.6681767              18.1820
      -------------------------------------------------------------
                  HL-Gap            0.1245218 Eh            3.3884 eV
             Fermi-level           -0.3256454 Eh           -8.8613 eV

     #   Z          covCN         q      C6AA      α(0)
     1   8 O        0.859    -0.421    22.107     6.304
     2   6 C        2.758     0.274    22.375     7.746
     3   6 C        2.977    -0.022    28.538     8.763
     4   6 C        2.921    -0.032    28.805     8.801
     5   6 C        2.924    -0.039    28.959     8.825
     6   6 C        2.966     0.021    27.536     8.607
     7   6 C        3.758    -0.112    22.685     6.791
     8   6 C        2.926    -0.038    28.934     8.821
     9   6 C        2.922    -0.024    28.593     8.769
    10   7 N        2.775    -0.108    23.358     7.178
    11   6 C        3.770     0.089    19.135     6.234
    12   6 C        2.687     0.349    21.071     7.512
    13   8 O        1.659    -0.364    20.167     6.062
    14   8 O        0.856    -0.382    21.334     6.193
    15   7 N        2.771    -0.120    23.601     7.215
    16   6 C        2.761     0.275    22.344     7.741
    17   6 C        2.977    -0.021    28.536     8.763
    18   6 C        2.921    -0.018    28.461     8.749
    19   6 C        2.925    -0.037    28.925     8.820
    20   6 C        2.966     0.020    27.563     8.611
    21   6 C        3.758    -0.111    22.675     6.789
    22   6 C        2.924    -0.040    29.002     8.832
    23   6 C        2.922    -0.036    28.899     8.816
    24   8 O        0.859    -0.418    22.048     6.295
    25   6 C        3.827     0.039    19.904     6.348
    26   6 C        2.973     0.005    27.897     8.664
    27   6 C        2.924    -0.032    28.788     8.799
    28   6 C        2.919    -0.028    28.703     8.786
    29   6 C        2.920    -0.029    28.714     8.787
    30   6 C        2.920    -0.025    28.638     8.776
    31   6 C        2.924    -0.027    28.687     8.783
    32   6 C        3.838     0.036    19.951     6.354
    33   6 C        2.972    -0.002    28.064     8.690
    34   6 C        2.926    -0.033    28.828     8.805
    35   6 C        2.919    -0.028    28.694     8.784
    36   6 C        2.919    -0.031    28.767     8.795
    37   6 C        2.920    -0.030    28.747     8.792
    38   6 C        2.921    -0.039    28.961     8.825
    39   1 H        0.925     0.030     2.592     2.518
    40   1 H        0.926     0.037     2.487     2.466
    41   1 H        0.925     0.048     2.350     2.397
    42   1 H        0.925     0.054     2.275     2.359
    43   1 H        0.925     0.045     2.385     2.415
    44   1 H        0.926     0.039     2.464     2.455
    45   1 H        0.926     0.044     2.396     2.421
    46   1 H        0.923     0.075     2.030     2.228
    47   1 H        0.804     0.343     0.604     1.221
    48   1 H        0.926     0.055     2.257     2.349
    49   1 H        0.926     0.040     2.452     2.449
    50   1 H        0.924     0.053     2.286     2.365
    51   1 H        0.925     0.044     2.401     2.423
    52   1 H        0.925     0.046     2.369     2.407
    53   1 H        0.926     0.034     2.537     2.491
    54   1 H        0.925     0.027     2.634     2.538
    55   1 H        0.924     0.069     2.099     2.266
    56   1 H        0.926     0.025     2.652     2.547
    57   1 H        0.926     0.034     2.531     2.488
    58   1 H        0.926     0.036     2.509     2.477
    59   1 H        0.926     0.039     2.467     2.456
    60   1 H        0.926     0.043     2.409     2.427
    61   1 H        0.924     0.077     2.011     2.217
    62   1 H        0.926     0.056     2.242     2.342
    63   1 H        0.926     0.038     2.478     2.462
    64   1 H        0.926     0.034     2.526     2.485
    65   1 H        0.926     0.037     2.494     2.470
    66   1 H        0.926     0.039     2.456     2.451

 Mol. C6AA /au·bohr⁶  :      55493.876644
 Mol. C8AA /au·bohr⁸  :    1353178.585150
 Mol. α(0) /au        :        371.814882


Wiberg/Mayer (AO) data.
largest (>0.10) Wiberg bond orders for each atom

 ---------------------------------------------------------------------------
     #   Z sym  total        # sym  WBO       # sym  WBO       # sym  WBO
 ---------------------------------------------------------------------------
     1   8 O    2.017 --     2 C    1.693    10 N    0.190
     2   6 C    3.944 --     1 O    1.693    10 N    1.207     3 C    0.959
     3   6 C    3.987 --     9 C    1.402     4 C    1.401     2 C    0.959
                             6 C    0.107
     4   6 C    3.991 --     5 C    1.445     3 C    1.401    39 H    0.967
                             8 C    0.109
     5   6 C    3.991 --     4 C    1.445     6 C    1.411    40 H    0.968
                             9 C    0.107
     6   6 C    3.988 --     5 C    1.411     8 C    1.406     7 C    1.027
                             3 C    0.107
     7   6 C    3.996 --     6 C    1.027    43 H    0.984    41 H    0.977
                            42 H    0.967
     8   6 C    3.991 --     9 C    1.452     6 C    1.406    44 H    0.969
                             4 C    0.109
     9   6 C    3.991 --     8 C    1.452     3 C    1.402    45 H    0.969
                             5 C    0.107
    10   7 N    3.474 --     2 C    1.207    11 C    0.998    32 C    0.946
                             1 O    0.190
    11   6 C    3.976 --    10 N    0.998    15 N    0.991    46 H    0.919
                            12 C    0.907
    12   6 C    3.917 --    14 O    1.783    13 O    1.152    11 C    0.907
    13   8 O    2.216 --    12 C    1.152    47 H    0.856    14 O    0.181
    14   8 O    2.066 --    12 C    1.783    13 O    0.181
    15   7 N    3.449 --    16 C    1.194    11 C    0.991    25 C    0.951
                            24 O    0.186
    16   6 C    3.944 --    24 O    1.699    15 N    1.194    17 C    0.967
    17   6 C    3.988 --    18 C    1.405    23 C    1.395    16 C    0.967
                            20 C    0.106
    18   6 C    3.989 --    19 C    1.449    17 C    1.405    48 H    0.968
                            22 C    0.107
    19   6 C    3.991 --    18 C    1.449    20 C    1.410    49 H    0.968
                            23 C    0.109
    20   6 C    3.988 --    19 C    1.410    22 C    1.406    21 C    1.027
                            17 C    0.106
    21   6 C    3.996 --    20 C    1.027    51 H    0.983    52 H    0.981
                            50 H    0.966
    22   6 C    3.991 --    23 C    1.451    20 C    1.406    53 H    0.968
                            18 C    0.107
    23   6 C    3.991 --    22 C    1.451    17 C    1.395    54 H    0.968
                            19 C    0.109
    24   8 O    2.020 --    16 C    1.699    15 N    0.186
    25   6 C    3.962 --    26 C    0.986    32 C    0.968    55 H    0.951
                            15 N    0.951
    26   6 C    3.986 --    31 C    1.417    27 C    1.411    25 C    0.986
                            29 C    0.110
    27   6 C    3.992 --    28 C    1.448    26 C    1.411    56 H    0.966
                            30 C    0.112
    28   6 C    3.992 --    27 C    1.448    29 C    1.436    57 H    0.971
                            31 C    0.111
    29   6 C    3.991 --    30 C    1.442    28 C    1.436    58 H    0.971
                            26 C    0.110
    30   6 C    3.992 --    29 C    1.442    31 C    1.441    59 H    0.971
                            27 C    0.112
    31   6 C    3.990 --    30 C    1.441    26 C    1.417    60 H    0.968
                            28 C    0.111
    32   6 C    3.960 --    33 C    0.984    25 C    0.968    61 H    0.953
                            10 N    0.946
    33   6 C    3.985 --    38 C    1.419    34 C    1.407    32 C    0.984
                            36 C    0.109
    34   6 C    3.989 --    35 C    1.450    33 C    1.407    62 H    0.966
                            37 C    0.113
    35   6 C    3.991 --    34 C    1.450    36 C    1.434    63 H    0.970
                            38 C    0.110
    36   6 C    3.991 --    37 C    1.444    35 C    1.434    64 H    0.971
                            33 C    0.109
    37   6 C    3.992 --    36 C    1.444    38 C    1.436    65 H    0.971
                            34 C    0.113
    38   6 C    3.991 --    37 C    1.436    33 C    1.419    66 H    0.964
                            35 C    0.110
    39   1 H    0.999 --     4 C    0.967
    40   1 H    0.998 --     5 C    0.968
    41   1 H    0.997 --     7 C    0.977
    42   1 H    0.997 --     7 C    0.967
    43   1 H    0.998 --     7 C    0.984
    44   1 H    0.998 --     8 C    0.969
    45   1 H    0.998 --     9 C    0.969
    46   1 H    0.994 --    11 C    0.919
    47   1 H    0.881 --    13 O    0.856
    48   1 H    0.997 --    18 C    0.968
    49   1 H    0.998 --    19 C    0.968
    50   1 H    0.997 --    21 C    0.966
    51   1 H    0.998 --    21 C    0.983
    52   1 H    0.998 --    21 C    0.981
    53   1 H    0.998 --    22 C    0.968
    54   1 H    0.999 --    23 C    0.968
    55   1 H    0.994 --    25 C    0.951
    56   1 H    0.999 --    27 C    0.966
    57   1 H    0.998 --    28 C    0.971
    58   1 H    0.998 --    29 C    0.971
    59   1 H    0.998 --    30 C    0.971
    60   1 H    0.998 --    31 C    0.968
    61   1 H    0.993 --    32 C    0.953
    62   1 H    0.997 --    34 C    0.966
    63   1 H    0.998 --    35 C    0.970
    64   1 H    0.998 --    36 C    0.971
    65   1 H    0.998 --    37 C    0.971
    66   1 H    0.998 --    38 C    0.964
 ---------------------------------------------------------------------------

Topologies differ in total number of bonds
Writing topology from bond orders to xtbtopo.mol

molecular dipole:
                 x           y           z       tot (Debye)
 q only:       -0.089      -1.333       1.070
   full:       -0.030      -1.628       1.379       5.425
molecular quadrupole (traceless):
                xx          xy          yy          xz          yz          zz
 q only:      -24.312     -13.901      14.513       1.254      -2.279       9.799
  q+dip:      -31.709     -12.692      16.263       2.434       3.415      15.446
   full:      -29.708     -14.081      15.106       1.663       1.542      14.603

           -------------------------------------------------
          |                Geometry Summary                 |
           -------------------------------------------------

      molecular mass/u    :      504.5769159
   center of mass at/Å    :       -0.0694515       0.2973315      -0.0318128
  moments of inertia/u·Å² :        0.4405299E+04   0.5387726E+04   0.6241767E+04
rotational constants/cm⁻¹ :        0.3826672E-02   0.3128896E-02   0.2700779E-02

 * 63 selected distances

     #   Z          #   Z                                           value/Å
     1   8 O        2   6 C                                       1.2124863
     3   6 C        4   6 C                                       1.3899632
     4   6 C        5   6 C                                       1.3829285
     5   6 C        6   6 C                                       1.3887194
     6   6 C        8   6 C                                       1.3905198
     3   6 C        9   6 C                                       1.3882329
     8   6 C        9   6 C                                       1.3819731
     2   6 C       10   7 N                                       1.3574153
    10   7 N       11   6 C                                       1.4326887
    12   6 C       13   8 O                                       1.3299883
    12   6 C       14   8 O                                       1.1973315
    11   6 C       15   7 N                                       1.4410045
    15   7 N       16   6 C                                       1.3617792
    17   6 C       18   6 C                                       1.3875870
    18   6 C       19   6 C                                       1.3823849
    19   6 C       20   6 C                                       1.3898455
    20   6 C       22   6 C                                       1.3897234
    17   6 C       23   6 C                                       1.3908389
    22   6 C       23   6 C                                       1.3819342
    16   6 C       24   8 O                                       1.2122336
    15   7 N       25   6 C                                       1.4639280
    26   6 C       27   6 C                                       1.3895857
    27   6 C       28   6 C                                       1.3827107
    28   6 C       29   6 C                                       1.3845829
    29   6 C       30   6 C                                       1.3839385
    26   6 C       31   6 C                                       1.3871355
    30   6 C       31   6 C                                       1.3837915
    10   7 N       32   6 C                                       1.4626407
    25   6 C       32   6 C                                       1.5379544 (max)
    33   6 C       34   6 C                                       1.3915274
    34   6 C       35   6 C                                       1.3823956
    35   6 C       36   6 C                                       1.3851989
    36   6 C       37   6 C                                       1.3833740
    33   6 C       38   6 C                                       1.3889432
    37   6 C       38   6 C                                       1.3855366
     4   6 C       39   1 H                                       1.0813388
     5   6 C       40   1 H                                       1.0805655
     7   6 C       41   1 H                                       1.0882036
     7   6 C       42   1 H                                       1.0900832
     7   6 C       43   1 H                                       1.0870292
     8   6 C       44   1 H                                       1.0804998
     9   6 C       45   1 H                                       1.0790876
    11   6 C       46   1 H                                       1.0989272
    13   8 O       47   1 H                                       0.9714382 (min)
    18   6 C       48   1 H                                       1.0783297
    19   6 C       49   1 H                                       1.0803082
    21   6 C       50   1 H                                       1.0904019
    21   6 C       51   1 H                                       1.0874876
    21   6 C       52   1 H                                       1.0875602
    22   6 C       53   1 H                                       1.0808279
    23   6 C       54   1 H                                       1.0815273
    25   6 C       55   1 H                                       1.0939639
    27   6 C       56   1 H                                       1.0803279
    28   6 C       57   1 H                                       1.0803117
    29   6 C       58   1 H                                       1.0799255
    30   6 C       59   1 H                                       1.0797832
    31   6 C       60   1 H                                       1.0795008
    32   6 C       61   1 H                                       1.0945993
    34   6 C       62   1 H                                       1.0796043
    35   6 C       63   1 H                                       1.0798086
    36   6 C       64   1 H                                       1.0800507
    37   6 C       65   1 H                                       1.0799966
    38   6 C       66   1 H                                       1.0794164

 * 5 distinct bonds (by element types)

   Z      Z             #   av. dist./Å        max./Å        min./Å
   1 H    6 C          27     1.0836839     1.0989272     1.0783297
   6 C    6 C          25     1.3924530     1.5379544     1.3819342
   6 C    7 N           6     1.4199094     1.4639280     1.3574153
   1 H    8 O           1     0.9714382     0.9714382     0.9714382
   6 C    8 O           4     1.2380099     1.3299883     1.1973315


optimized geometry written to: xtbopt.xyz


           -------------------------------------------------
          | TOTAL ENERGY             -104.953756098524 Eh   |
          | GRADIENT NORM               0.000418126062 Eh/α |
          | HOMO-LUMO GAP               3.388410599345 eV   |
           -------------------------------------------------

------------------------------------------------------------------------
 * finished run on 2022/03/16 at 23:38:20.789     
------------------------------------------------------------------------
 total:
 * wall-time:     0 d,  0 h,  0 min, 14.863 sec
 *  cpu-time:     0 d,  0 h,  6 min,  4.930 sec
 * ratio c/w:    24.552 speedup
 SCF:
 * wall-time:     0 d,  0 h,  0 min,  0.465 sec
 *  cpu-time:     0 d,  0 h,  0 min,  9.159 sec
 * ratio c/w:    19.706 speedup
 ANC optimizer:
 * wall-time:     0 d,  0 h,  0 min, 14.272 sec
 *  cpu-time:     0 d,  0 h,  5 min, 52.002 sec
 * ratio c/w:    24.664 speedup

