54
 energy: -94.490833166421 gnorm: 0.000412736223 xtb: 6.3.3 (4ae9cef)
C         1.61335391943241    3.35927216447606   -1.46057717190589
C         1.91870109751836    3.88618447769797   -2.70218016974993
C         1.84858181771295    3.08783666828157   -3.83128145340266
C         1.47195716838890    1.76167186989465   -3.71167324082620
C         1.16420133154344    1.23383376215252   -2.47005215980511
C         1.23435459861255    2.02920899787836   -1.33432595895213
C         0.86668981180727    1.48893906430954    0.02742179897059
C        -0.65341400296002    1.52368927130496    0.23799557586432
C        -1.11881861067087    1.63157344641657    1.67343740189005
C        -2.45221097825577    1.96194359687161    1.89790531546081
C        -2.95620143274341    2.01301423251587    3.18411268920890
C        -2.13358351620697    1.73526025399900    4.26364819414361
C        -0.80705174371470    1.40757912813976    4.04751617996262
C        -0.29910199808313    1.35277804253644    2.75960395693399
N        -1.03290542666731    0.22410626598912   -0.31176754886397
C        -2.19678948896084    0.03092518601091   -0.97962502316409
C        -2.43180223174181   -1.29958442707482   -1.58046777241698
C        -3.60718128871697   -1.98871412835370   -1.51667025380519
C        -3.59321251210379   -3.18164604956594   -2.27002396065884
C        -2.41932505198117   -3.37114250306376   -2.92323051644830
S        -1.29922959729099   -2.10505859490053   -2.62164763737486
O        -3.02021878242572    0.91814387628812   -1.08947127591187
C        -0.02309168662532   -0.72582069332824    0.06229183986968
C        -0.35885179881984   -1.39132605751619    1.41745026174334
O        -1.64828777222239   -1.70869770079708    1.47992521144915
O         0.43654978453065   -1.62819166470922    2.28034035584921
N         1.17929274519989    0.06652906885212    0.14176674681779
C         2.42419755561254   -0.31291247830057    0.54666223936717
C         2.76380798860270   -1.74251650272184    0.59130830822465
C         3.80083899956110   -2.23469617033765    1.33504563438248
C         4.00003806219766   -3.61897286661005    1.17377540012393
C         3.12774541095494   -4.16868046157658    0.29066961232063
S         2.03440769606115   -3.00880249831001   -0.34571119907959
O         3.25928409096730    0.52400453125205    0.83855136701568
H         1.67247743285757    3.98142857977345   -0.57940707343747
H         2.21563763196440    4.92087841237931   -2.78825835129364
H         2.08979838111371    3.49764971672433   -4.80079122748215
H         1.41645199522297    1.13244906185898   -4.58761143012053
H         0.87666363866508    0.19558514666113   -2.39203669396268
H         1.41073994902862    2.04776530421805    0.79342562104421
H        -1.13513924682191    2.29801418980163   -0.36598359221723
H        -3.09207767835553    2.16612929580653    1.05275745236800
H        -3.99245711204407    2.27130419158604    3.34426913568350
H        -2.52499652606590    1.77548831012955    5.26952584700319
H        -0.15855064102931    1.18815141820921    4.88241769134829
H         0.73808551199471    1.08743847246604    2.62419836154506
H        -4.44497271530941   -1.64797388692104   -0.93641569113647
H        -4.42460197741491   -3.86047515026913   -2.32845849540458
H        -2.13444479932534   -4.17355631884481   -3.57411093213111
H         0.05617443097085   -1.53370315571666   -0.67649964761865
H        -1.86207539949813   -2.12528623630476    2.33091997689518
H         4.38795340573265   -1.60475214577381    1.97778526671696
H         4.76049746300051   -4.17869353162772    1.68748134655650
H         3.05210909680011   -5.18757178187029   -0.03393231159083
