54
 energy: -94.468131943019 gnorm: 0.112829739393 xtb: 6.3.3 (4ae9cef)
C         1.70883700000000    3.40498600000000   -1.33912300000000
C         2.12537200000000    3.94237500000000   -2.56001300000000
C         2.13318300000000    3.14986700000000   -3.70588900000000
C         1.71260700000000    1.82598500000000   -3.63447800000000
C         1.29060000000000    1.28898500000000   -2.41577900000000
C         1.29714200000000    2.06504400000000   -1.24507700000000
C         0.85356100000000    1.51948200000000    0.11496300000000
C        -0.69684300000000    1.51508200000000    0.23325800000000
C        -1.24604500000000    1.78293400000000    1.64081600000000
C        -2.61407300000000    2.07816100000000    1.79421300000000
C        -3.17990400000000    2.26272500000000    3.05824700000000
C        -2.38527400000000    2.17161700000000    4.19833100000000
C        -1.02770900000000    1.88968300000000    4.07210100000000
C        -0.46485400000000    1.69117700000000    2.80786300000000
N        -1.01954000000000    0.14475400000000   -0.19583500000000
C        -2.16663900000000   -0.16671700000000   -0.89851000000000
C        -2.33343000000000   -1.53003100000000   -1.37377300000000
C        -3.30611000000000   -2.43728100000000   -1.00256600000000
C        -3.19183400000000   -3.67066400000000   -1.70587100000000
C        -2.14578700000000   -3.65831600000000   -2.59955500000000
S        -1.36020800000000   -2.14106100000000   -2.63711700000000
O        -3.02849600000000    0.68729700000000   -1.11045800000000
C         0.04477000000000   -0.75535500000000    0.22971400000000
C        -0.31287600000000   -1.37824600000000    1.61941800000000
O        -1.63555100000000   -1.58643000000000    1.81102000000000
O         0.47356200000000   -1.74234700000000    2.48193300000000
N         1.21983200000000    0.10776900000000    0.30335400000000
C         2.53888000000000   -0.29346300000000    0.42839000000000
C         2.82246900000000   -1.69498100000000    0.19311200000000
C         3.01187400000000   -2.71280000000000    1.10604300000000
C         3.23439800000000   -3.96924200000000    0.47061600000000
C         3.27708100000000   -3.85331200000000   -0.90620200000000
S         3.01222300000000   -2.24448900000000   -1.42416200000000
O         3.42431500000000    0.51545500000000    0.70171900000000
H         1.71853400000000    4.04483200000000   -0.45745800000000
H         2.44890100000000    4.97861500000000   -2.61468200000000
H         2.46698100000000    3.56416800000000   -4.65319100000000
H         1.71800000000000    1.20589300000000   -4.52645300000000
H         0.96965600000000    0.25394100000000   -2.39748100000000
H         1.35477100000000    2.11989100000000    0.88180900000000
H        -1.15031800000000    2.24667700000000   -0.44739400000000
H        -3.26543400000000    2.14886700000000    0.91921900000000
H        -4.24671600000000    2.47312700000000    3.15005400000000
H        -2.82468300000000    2.30870900000000    5.18350000000000
H        -0.40098000000000    1.80958700000000    4.96072900000000
H         0.59697900000000    1.44222900000000    2.77669500000000
H        -4.06204500000000   -2.22066900000000   -0.25586200000000
H        -3.84236400000000   -4.52324500000000   -1.56345800000000
H        -1.84241800000000   -4.45370800000000   -3.26774100000000
H         0.20653700000000   -1.57637100000000   -0.46485400000000
H        -1.69867100000000   -1.92003900000000    2.72952900000000
H         2.95525800000000   -2.56901800000000    2.18042200000000
H         3.38028100000000   -4.90506800000000    0.99161500000000
H         3.45219500000000   -4.63706000000000   -1.63570300000000
54
 energy: -94.481203936179 gnorm: 0.043261867874 xtb: 6.3.3 (4ae9cef)
C         1.70702590001925    3.39243892681036   -1.33805353744336
C         2.11757961226079    3.92789733032487   -2.54993865582144
C         2.12552774581537    3.14166895925963   -3.69066596923285
C         1.70850435861227    1.82338789558567   -3.61400064655019
C         1.29128488061097    1.28931795370085   -2.40224542034376
C         1.29435284465258    2.06407606663267   -1.24479410346663
C         0.84751164994893    1.52331159544679    0.10879938093953
C        -0.69256321652283    1.50907539044514    0.25031812947116
C        -1.24388370420751    1.76612927843619    1.65052897557564
C        -2.60034037290050    2.06630035136744    1.79229139053732
C        -3.16399377662181    2.25642585951207    3.04576926895847
C        -2.37893272803415    2.16560392767296    4.18409084197337
C        -1.02965052738702    1.87987271890786    4.05822020455835
C        -0.46874647842969    1.67280710242844    2.80483716410422
N        -1.01824024943178    0.15036727123194   -0.19301825514910
C        -2.16201779249265   -0.15296206243205   -0.88089712693264
C        -2.32164332363352   -1.53322985404154   -1.36293304170318
C        -3.29034527812564   -2.43392596807808   -1.00454379042877
C        -3.18326816193570   -3.65615519992591   -1.70686513551245
C        -2.15947488439188   -3.65040002920060   -2.60652100609622
S        -1.30638827390570   -2.16440192761513   -2.59925520474233
O        -3.00665448229535    0.69743079588009   -1.09758898879867
C         0.03747359804395   -0.74334487409672    0.22856918805440
C        -0.29760549765948   -1.36906562044548    1.60806917168274
O        -1.61280600132103   -1.56026832262373    1.79654126921450
O         0.49842202530395   -1.70085018166508    2.44694234369767
N         1.20666706841001    0.11515512626456    0.29389602947254
C         2.51464525251347   -0.27991367757527    0.43540163196464
C         2.79397402731994   -1.70324323012212    0.19799338267201
C         2.99123788557988   -2.71648029730569    1.09522903255040
C         3.24931001472075   -3.95671317169007    0.46471245134306
C         3.27171069854191   -3.85440698039557   -0.89514657352107
S         2.96892327150603   -2.25454750741463   -1.42688245533294
O         3.38993667744640    0.52780512003886    0.68281776119554
H         1.71567073840227    4.02276824959737   -0.45759517709140
H         2.44034603609032    4.95943886016422   -2.60273329293502
H         2.45817281430360    3.55451206162369   -4.63451088675794
H         1.71004654643154    1.20506738021949   -4.50174775634433
H         0.97146337351881    0.25632042957133   -2.37647856955083
H         1.33514441697788    2.12363075745358    0.88172001647391
H        -1.15457812819968    2.22067469454817   -0.44207211892259
H        -3.23413633427755    2.13867341502092    0.91618597177581
H        -4.22167015289637    2.47382159766960    3.13370808705166
H        -2.81622950871670    2.31198650826253    5.16392589965508
H        -0.40579250861535    1.80919374176969    4.94042906775369
H         0.58706507510362    1.43603969863023    2.76164053616297
H        -4.03763858010541   -2.22370398621820   -0.25828388360212
H        -3.83280436124433   -4.50155885743110   -1.55637886483922
H        -1.85813373193657   -4.44191653806252   -3.26744349040534
H         0.18792462252008   -1.57688450627943   -0.46679408792604
H        -1.70930847447431   -1.91600157924188    2.70059083893738
H         2.94034893160874   -2.57511040733863    2.16113189636842
H         3.39691262487888   -4.88452951587159    0.98935193147024
H         3.44966083862036   -4.63158376940620   -1.61632582416433
54
 energy: -94.485046882708 gnorm: 0.014041783375 xtb: 6.3.3 (4ae9cef)
C         1.70026243670851    3.38553940603619   -1.32693615591633
C         2.11048688901483    3.91609447712493   -2.53544639703145
C         2.11560383288315    3.12952742066686   -3.67327318440997
C         1.69933277241036    1.81318362134272   -3.59111135228157
C         1.28322232223749    1.28345013881008   -2.38166355377172
C         1.28429189253613    2.06381582294805   -1.23429775838084
C         0.83960119110215    1.52747055433021    0.11307211012087
C        -0.69282483239323    1.51013030257233    0.25367041656146
C        -1.23606198352996    1.75438053350001    1.65035147207099
C        -2.58780911354988    2.05475546468083    1.78182680101112
C        -3.15069243821040    2.24831374995013    3.02974509752221
C        -2.36986691057716    2.15764857947819    4.16878280335794
C        -1.02439867915078    1.86421352815822    4.04573735762326
C        -0.46199505376746    1.65411647757079    2.79758854886881
N        -1.01495942693432    0.15769635563338   -0.19832249416675
C        -2.15536658360737   -0.13740586149268   -0.87365753507741
C        -2.30216129044204   -1.53502074103195   -1.34794354693356
C        -3.27079712423966   -2.42758821968304   -0.99923444821011
C        -3.17504771732140   -3.64360028402279   -1.70691507063497
C        -2.14954384370396   -3.65304312318560   -2.59350557060942
S        -1.26662362218998   -2.17968753490024   -2.57627848889264
O        -3.00074144865105    0.70371014943799   -1.08705896627716
C         0.03214780835351   -0.73068522755108    0.22330345121682
C        -0.27929932532344   -1.34126364359740    1.60662386393021
O        -1.58747584741622   -1.54212481895958    1.77682479025862
O         0.53579402982936   -1.65013874078358    2.42523769264691
N         1.19674732284068    0.12152579934066    0.27867333305363
C         2.49565928381497   -0.26509379891209    0.42786528197083
C         2.76065647799704   -1.70878056076100    0.20035336373567
C         2.97530167739197   -2.71450215634673    1.09009028266326
C         3.24810881809134   -3.94924746731689    0.46261082558382
C         3.25703389689231   -3.85734126899561   -0.88894624080234
S         2.91601446558121   -2.26388640287692   -1.43271730175738
O         3.36917331615858    0.53851717136390    0.66114938006540
H         1.71062811690668    4.00751457438393   -0.44458284383233
H         2.43357878904495    4.94490359834261   -2.58857521398123
H         2.44507140390532    3.53980933919639   -4.61651225102602
H         1.70006145050359    1.19274951465326   -4.47464580346398
H         0.96799258564760    0.25020671123313   -2.34521502452024
H         1.31914546123445    2.12616404139030    0.89172176502496
H        -1.16639030365060    2.20990730704634   -0.44252328950800
H        -3.20604237433968    2.12756518023280    0.90092005575325
H        -4.20231423506993    2.47638231462329    3.11396354550236
H        -2.80577681604271    2.31507647076454    5.14449899264509
H        -0.40336111618924    1.79673341132885    4.92561308569009
H         0.58789656781147    1.41242308910705    2.74391278989368
H        -4.02058481366144   -2.21503603072112   -0.26108126082889
H        -3.84060091392536   -4.47537139208985   -1.56428487618568
H        -1.85834485734950   -4.43512219013978   -3.26413807110549
H         0.17118167195999   -1.57432296987216   -0.47193650960571
H        -1.72828092621423   -1.91684757226654    2.66633011400343
H         2.93022921854774   -2.57290607773824    2.15227405930269
H         3.42409742938116   -4.86636073090391    0.99503299223696
H         3.44803746866444   -4.62814729109920   -1.60697306310314
54
 energy: -94.485940851704 gnorm: 0.008473320938 xtb: 6.3.3 (4ae9cef)
C         1.69787571207647    3.38797443673595   -1.31797626952902
C         2.10574662791149    3.91338920955627   -2.52906761089615
C         2.10670753840211    3.12110734614670   -3.66399429027435
C         1.69098490262687    1.80427136582343   -3.57740609585639
C         1.27776848269019    1.27886550016320   -2.36586214017201
C         1.28206853681885    2.06708493286795   -1.22417997485590
C         0.83723161162385    1.53179641939612    0.11790529127587
C        -0.69262012117127    1.51299981325002    0.25129469477481
C        -1.23233121137967    1.74515826038247    1.64700168847187
C        -2.58332182715215    2.05032258293984    1.77391592646367
C        -3.14574183398120    2.24634945790874    3.02092290053696
C        -2.36429660626818    2.15158432779392    4.16011791993895
C        -1.02061519915998    1.84596117739215    4.04020718252893
C        -0.45744077288784    1.63248491266339    2.79294737699272
N        -1.01260457804451    0.16250461140931   -0.20565665662048
C        -2.15270722692074   -0.12959456892046   -0.87517660084951
C        -2.29068514621530   -1.53328195185562   -1.34335086632398
C        -3.26509032522081   -2.41948127409054   -1.00246910475459
C        -3.16941107589713   -3.63879374769656   -1.70679514652773
C        -2.13863319657916   -3.65538570468000   -2.58654179348248
S        -1.24338355601810   -2.18716550114631   -2.56411650634282
O        -3.00246622912653    0.70675766045127   -1.09169932041068
C         0.03145106590920   -0.72339453164692    0.21818079335457
C        -0.27170099167070   -1.32926876388089    1.60497668759109
O        -1.57623829513579   -1.53898319584235    1.76805111289613
O         0.55533869442948   -1.59826246153757    2.42843306499725
N         1.19445340683223    0.12618374741203    0.26816666560597
C         2.48917028183261   -0.25811109840993    0.41979277248719
C         2.74033222778419   -1.71001807244128    0.20062736412884
C         2.97365566233651   -2.70956907065004    1.09061464050044
C         3.25353871100702   -3.94507587689750    0.46462884382730
C         3.23689135078925   -3.86179630384544   -0.88798986152876
S         2.87107859742718   -2.27201459255265   -1.43655075033171
O         3.36941592980338    0.54233860163571    0.63986272879665
H         1.70867124019476    4.00721182587104   -0.43366680485121
H         2.43205428133590    4.94080253042342   -2.58488096709853
H         2.43487431306927    3.52721065294225   -4.60875740615190
H         1.69116563282859    1.17929536628146   -4.45759147515282
H         0.96269585822706    0.24583530661681   -2.32019317874352
H         1.31369632021280    2.12673279085376    0.90126716693132
H        -1.17014072454492    2.21323906946456   -0.44134798428846
H        -3.19382316323006    2.12410248377777    0.88794910735751
H        -4.19596120708381    2.48046918050504    3.10373802047798
H        -2.79930238805464    2.31522152829688    5.13454072960984
H        -0.40106438971676    1.77409802473495    4.92077747466344
H         0.59052901106589    1.38314463528004    2.73491666335904
H        -4.01654873560307   -2.20415513548330   -0.26634067382263
H        -3.84512290171513   -4.46331698920942   -1.56814960708300
H        -1.84671539074332   -4.43542215201970   -3.25942486628523
H         0.16650942800132   -1.57095892292662   -0.47406817587533
H        -1.74291682470441   -1.90829184197975    2.65328139700220
H         2.93474632812163   -2.56577481205570    2.15316018330616
H         3.45369828161013   -4.85473050319128    1.00304792599510
H         3.42853088325689   -4.63164968601674   -1.60707419576260
54
 energy: -94.486374320431 gnorm: 0.007076490802 xtb: 6.3.3 (4ae9cef)
C         1.69797801306786    3.39447388838906   -1.31384083454686
C         2.10331778960732    3.91364611746965   -2.52905141397537
C         2.09938619784393    3.11440859358160   -3.66003424854704
C         1.68330137758247    1.79749863063102   -3.56880847136609
C         1.27304186251011    1.27773101108660   -2.35402586328773
C         1.28258298953465    2.07362125199248   -1.21696954876181
C         0.83842273313800    1.53684254331166    0.12147434139572
C        -0.69086293413418    1.51725701412193    0.24916086837208
C        -1.23085452426294    1.73947415497768    1.64440958694958
C        -2.58144479896342    2.05060289471239    1.76948125234931
C        -3.14378682991669    2.24604438005627    3.01671108052688
C        -2.36147365294563    2.14272731197596    4.15537165895680
C        -1.02016432549441    1.82330740334719    4.03786457423571
C        -0.45637810641850    1.61099141787450    2.79034715764673
N        -1.00863191552791    0.16794561284090   -0.21394996768312
C        -2.14897213032829   -0.12484399231364   -0.88056555815922
C        -2.28175571258318   -1.53046480914231   -1.34379515255035
C        -3.26286135681550   -2.41154356994535   -1.00990600640197
C        -3.16514232478517   -3.63566100928580   -1.70902328841351
C        -2.12495935842864   -3.65925325777752   -2.57832458165978
S        -1.22782692204793   -2.19196237716825   -2.55805271241462
O        -3.00441947283968    0.70669349400240   -1.09844787160344
C         0.03294919307233   -0.71661112668557    0.21600062532203
C        -0.26986670096644   -1.30396698505407    1.61322507409001
O        -1.56928243670023   -1.54474379238850    1.76019347054792
O         0.56244382098717   -1.54514213334864    2.44041728580186
N         1.19587234905490    0.13064516716839    0.26008967683851
C         2.48775068284548   -0.25510602170407    0.41162990889957
C         2.72715061174789   -1.71053778605516    0.20090383792404
C         2.98466532542386   -2.70294521765268    1.09239283924239
C         3.25622155530923   -3.94235179616217    0.46787622031799
C         3.21262864337840   -3.86835181268618   -0.88594894726284
S         2.82852666141717   -2.28238010922004   -1.43782113567927
O         3.37589091283233    0.54065775107425    0.62088173654429
H         1.70947112189535    4.01334107354173   -0.42864106022786
H         2.43067868795082    4.94063836544304   -2.59013658109905
H         2.42414309836931    3.51615019532590   -4.60777092606509
H         1.68083340381135    1.16770702913051   -4.44585973449914
H         0.95729135736688    0.24534138140612   -2.29894565750587
H         1.31289030319753    2.12713935490252    0.90959922775555
H        -1.16826852162805    2.22131239351494   -0.43929215841150
H        -3.18633779419762    2.12897284601239    0.87923462599443
H        -4.19287880886388    2.48765616891765    3.09917454632712
H        -2.79518896433645    2.31118500771726    5.12954493101622
H        -0.40268503367954    1.74014977936007    4.91967450104934
H         0.58882201719705    1.34771675827402    2.73060744426503
H        -4.01871199261547   -2.19165487769582   -0.27847508965175
H        -3.84817277874903   -4.45485958795445   -1.57300761025203
H        -1.82668394165886   -4.44104687506528   -3.24732036143658
H         0.16513585868625   -1.56880548962878   -0.46999709954681
H        -1.75716981005222   -1.91043985646223    2.64128498583953
H         2.95895393464572   -2.55457434148173    2.15581806496591
H         3.47880841555903   -4.84457729472917    1.01090485558520
H         3.39561923090736   -4.64005387255286   -1.60626449775110
54
 energy: -94.486660369494 gnorm: 0.007937083183 xtb: 6.3.3 (4ae9cef)
C         1.69975417930182    3.40206781066134   -1.31486657346002
C         2.10155298211096    3.91565763108996   -2.53444334370333
C         2.09278665285631    3.11081906996423   -3.66167739146741
C         1.67623487780421    1.79425241059695   -3.56585060748185
C         1.26967868945217    1.27994482272138   -2.34750955848278
C         1.28469498996986    2.08121008133568   -1.21341163673133
C         0.84165179684184    1.54233700409485    0.12408112108789
C        -0.68862387355534    1.52160466849680    0.24785687566529
C        -1.23114914470369    1.73555248220232    1.64322827359181
C        -2.58045664427175    2.05521210324526    1.76838203793254
C        -3.14292643427918    2.24773889237745    3.01636437355062
C        -2.36123309756003    2.13117295200862    4.15460903156099
C        -1.02303880918789    1.79761522441413    4.03818789259614
C        -0.45895172245463    1.58968401826503    2.78974063047672
N        -1.00443084489463    0.17337090526031   -0.22160108139779
C        -2.14492254377459   -0.12219242010879   -0.88766957867574
C        -2.27561635830987   -1.52699309689832   -1.34846884093095
C        -3.26308191785508   -2.40424042125967   -1.02111894547044
C        -3.16067225183416   -3.63354262182524   -1.71243182472090
C        -2.11098735887997   -3.66312159278923   -2.57090086083806
S        -1.21292961078672   -2.19666727823511   -2.55132593177176
O        -3.00448095404307    0.70602319586106   -1.10565325623388
C         0.03555398008141   -0.71051180990933    0.21639869270625
C        -0.27021644380467   -1.28969038067614    1.61906976031587
O        -1.56564214679191   -1.55245915952641    1.75484003373382
O         0.56077184904150   -1.49720381435134    2.45784145359720
N         1.19946684985539    0.13524038405560    0.25563922022822
C         2.49001803186428   -0.25434527495672    0.40439694070470
C         2.72063762178950   -1.71038082185967    0.20143547177144
C         3.00070450058546   -2.69569470637048    1.09452831425155
C         3.25907697799992   -3.94029073676850    0.47258396984979
C         3.18661507466853   -3.87641660685993   -0.88136022772828
S         2.78937177939922   -2.29471008393612   -1.43609427536760
O         3.38457274852210    0.53576370523630    0.60929379675797
H         1.71303084926747    4.02257942555924   -0.43034895842017
H         2.42922048770586    4.94245158118507   -2.60161622635343
H         2.41432825650573    3.50856513802650   -4.61249251219446
H         1.67001193633147    1.16055551676251   -4.44032717358985
H         0.95240767140983    0.24865899983312   -2.28495684230081
H         1.31498757441551    2.12866105270330    0.91598571036156
H        -1.16361816890838    2.23052366974886   -0.43718754688801
H        -3.18198606335261    2.14182366132958    0.87583240576598
H        -4.19074310275875    2.49655920044426    3.09929589910105
H        -2.79410529237124    2.29987599284604    5.12932349276186
H        -0.40817424747581    1.69950312613208    4.92106953094510
H         0.58382871691763    1.31504494514272    2.72981272145151
H        -4.02546605181709   -2.17893873707845   -0.29728962538492
H        -3.84770086174415   -4.44955335772731   -1.57780070756029
H        -1.80392350768867   -4.44933092878912   -3.23171576463872
H         0.16649820805894   -1.56684367049403   -0.46195107585904
H        -1.76743701997567   -1.90767871672684    2.63555665153187
H         2.99546137250878   -2.54016250406993    2.15831032394966
H         3.49745376505553   -4.83633523701560    1.01830720846434
H         3.35213905275816   -4.65276469336859   -1.60190346706000
54
 energy: -94.486931613252 gnorm: 0.006585718686 xtb: 6.3.3 (4ae9cef)
C         1.70276983807349    3.40925593741916   -1.32039401344117
C         2.09951371657270    3.91843631452512   -2.54414843971069
C         2.08554196153761    3.11000302373844   -3.66842780003490
C         1.66854475749186    1.79401284182977   -3.56785912881199
C         1.26705811799798    1.28439882947274   -2.34591365154085
C         1.28788891269629    2.08860638323434   -1.21338125892683
C         0.84652412140020    1.54830511317947    0.12535901772049
C        -0.68546918097366    1.52682905301939    0.24720343683523
C        -1.23146440161395    1.73471642247406    1.64283503006944
C        -2.57861403060142    2.06435768554828    1.76906322069782
C        -3.14195034988922    2.25024039210881    3.01803557251256
C        -2.36333491445655    2.11465777037034    4.15650512256241
C        -1.02853904622206    1.76868642229529    4.03988896201244
C        -0.46342701798954    1.57054454095111    2.79008988295418
N        -0.99946634536994    0.17967025501986   -0.22730909561697
C        -2.14049430468642   -0.12021491338006   -0.89315823314080
C        -2.27035833169311   -1.52276535234441   -1.35453410194404
C        -3.26364489830373   -2.39717898869736   -1.03430444658507
C        -3.15454843392761   -3.63126643052398   -1.71635809447022
C        -2.09500804275377   -3.66639556450203   -2.56285732637901
S        -1.19610610762464   -2.20097910106754   -2.54128681420259
O        -3.00229756541896    0.70634742256249   -1.11022811923436
C         0.03898330131225   -0.70397034556180    0.21876128352137
C        -0.27194935199482   -1.27297518675701    1.62665704177151
O        -1.56311182876165   -1.56205211768425    1.74825308110383
O         0.55249843975079   -1.46114332265131    2.47331667149768
N         1.20439663870192    0.14035611050344    0.25471696749432
C         2.49433642317139   -0.25482720454665    0.40080998081493
C         2.71810380124048   -1.71002423746074    0.20357674409303
C         3.02013472936160   -2.68805481146385    1.09766256628983
C         3.26086121849076   -3.93893010266678    0.47986525327637
C         3.15630108346748   -3.88624460758275   -0.87264520269123
S         2.74736351200995   -2.30964870695506   -1.43040026047216
O         3.39414468618649    0.52991581574168    0.60390102345573
H         1.71944081676063    4.03299580798680   -0.43797917049433
H         2.42693039257756    4.94508103847980   -2.61744053918286
H         2.40340767969144    3.50455279927809   -4.62219956695550
H         1.65741995519964    1.15754514337024   -4.44032336986885
H         0.94810893748430    0.25431209994009   -2.27795333125743
H         1.31897248455413    2.13244345683660    0.91945545995938
H        -1.15744194823715    2.23990672601508   -0.43573840545783
H        -3.17823544397305    2.16350137959191    0.87602025359981
H        -4.18788072677833    2.50748058291853    3.10171630463199
H        -2.79634792840548    2.27824179230183    5.13228504268648
H        -0.41718036511602    1.65230314107082    4.92348646450901
H         0.57706299291750    1.28721919087123    2.73082267086702
H        -4.03462465384388   -2.16601238614420   -0.32110869858705
H        -3.84356587935892   -4.44564854524644   -1.58338395576977
H        -1.77908556833402   -4.45806928368501   -3.21368916410067
H         0.16799311434904   -1.56496980569452   -0.45171187234564
H        -1.77375075547601   -1.91148089552159    2.62852440732873
H         3.04228875106327   -2.52292862985367    2.16063643460176
H         3.51157750443365   -4.82982137188218    1.02692766322445
H         3.29972653330928   -4.66932058078211   -1.59164349886910
54
 energy: -94.487192136987 gnorm: 0.006643766141 xtb: 6.3.3 (4ae9cef)
C         1.70598151802040    3.41423357208282   -1.32875336226204
C         2.09714132066522    3.92072728867391   -2.55561973435010
C         2.07756124992851    3.11135127407653   -3.67846034417641
C         1.65999598820422    1.79606162261657   -3.57340599777073
C         1.26421026319961    1.28960327618722   -2.34849366150247
C         1.29036168359772    2.09432718191982   -1.21638013952641
C         0.85124025818143    1.55429420045290    0.12509994452370
C        -0.68230968985047    1.53208473296464    0.24704052690603
C        -1.23081482381494    1.73652915285843    1.64296876997809
C        -2.57482225162792    2.07744099912888    1.77064567801139
C        -3.13982100357914    2.25272251084962    3.02055043748997
C        -2.36709279359891    2.09240879088067    4.15992276946806
C        -1.03545651662366    1.73712520110745    4.04179867985890
C        -0.46814969555298    1.55405985326534    2.79055805322826
N        -0.99467956201663    0.18600938739980   -0.23076214483684
C        -2.13598636154412   -0.11755448699899   -0.89685697820463
C        -2.26519352949537   -1.51782761798047   -1.36105553669965
C        -3.26430005697699   -2.38952372274649   -1.04940121265017
C        -3.14769651740416   -3.62718657756317   -1.72218869343944
C        -2.07585761443815   -3.66905708045112   -2.55292836614420
S        -1.17607008742174   -2.20492335620412   -2.52723262463884
O        -2.99865876009017    0.70885001376635   -1.11051158826550
C         0.04227828607909   -0.69773283119941    0.22131317967426
C        -0.27253041830138   -1.26445211636531    1.62980710205897
O        -1.55966617974231   -1.57550086117222    1.74038750113383
O         0.54433109879111   -1.42913182189664    2.48879384526162
N         1.20873422665698    0.14594293638314    0.25668676089405
C         2.49834924277233   -0.25503380134134    0.40058210471453
C         2.71696258881118   -1.70962806229353    0.20719231913576
C         3.04232601382039   -2.67964844411532    1.10176175944053
C         3.26132952885893   -3.93770241930821    0.49047968606082
C         3.11954008190289   -3.89793424906230   -0.85881057343114
S         2.69918995612085   -2.32731233959179   -1.42074207410288
O         3.40139705914796    0.52552750557369    0.60424459850387
H         1.72797480297701    4.04185523450156   -0.44931606184844
H         2.42394279529244    4.94719538456350   -2.63373441699036
H         2.39084916494339    3.50418656523187   -4.63467432633440
H         1.64323023051490    1.15835896721431   -4.44467435162794
H         0.94446275241884    0.26022866201752   -2.27768090968416
H         1.32306473164209    2.13896259665426    0.91910305416759
H        -1.15199965831439    2.24748854787306   -0.43514254382840
H        -3.17324685354348    2.19360736774520    0.87876347323195
H        -4.18307071907580    2.51991547294481    3.10498855608278
H        -2.80181840768293    2.24443498215305    5.13703506918116
H        -0.42832161476786    1.60087743553983    4.92538658398452
H         0.57075288359073    1.26680488825520    2.73179188032342
H        -4.04618515133671   -2.15184844502017   -0.35045183857185
H        -3.83847939482209   -4.44058213631338   -1.59313548986472
H        -1.75210419491326   -4.46626049561918   -3.19301141220246
H         0.17052940872164   -1.56200861568366   -0.44347686610357
H        -1.77303010045123   -1.91618217393350    2.62299223805210
H         3.09792284639567   -2.50282817611957    2.16198888053485
H         3.52419660388326   -4.82410622249646    1.03839423868101
H         3.23950237184764   -4.68924855140630   -1.57337844152436
54
 energy: -94.487431728549 gnorm: 0.007950267917 xtb: 6.3.3 (4ae9cef)
C         1.70857827244788    3.41620469310838   -1.33793515343131
C         2.09355393871579    3.92198797716469   -2.56687504352006
C         2.06760941315317    3.11366831083216   -3.68997962637739
C         1.64983446625274    1.79878588194425   -3.58093633534027
C         1.26048179847392    1.29337928425125   -2.35369312595783
C         1.29170217927527    2.09725551893048   -1.22134923516247