      -----------------------------------------------------------      
     |                   =====================                   |     
     |                           x T B                           |     
     |                   =====================                   |     
     |                         S. Grimme                         |     
     |          Mulliken Center for Theoretical Chemistry        |     
     |                    University of Bonn                     |     
      -----------------------------------------------------------      

   * xtb version 6.3.3 (4ae9cef) compiled by 'conda@95abc7406d43' on 2020-10-14

   xtb is free software: you can redistribute it and/or modify it under
   the terms of the GNU Lesser General Public License as published by
   the Free Software Foundation, either version 3 of the License, or
   (at your option) any later version.
   
   xtb is distributed in the hope that it will be useful,
   but WITHOUT ANY WARRANTY; without even the implied warranty of
   MERCHANTABILITY or FITNESS FOR A PARTICULAR PURPOSE.  See the
   GNU Lesser General Public License for more details.
   
   Cite this work as:
   * C. Bannwarth, E. Caldeweyher, S. Ehlert, A. Hansen, P. Pracht,
     J. Seibert, S. Spicher, S. Grimme, WIREs Comput. Mol. Sci., 2020,
     e01493. DOI: 10.1002/wcms.1493
   
   for GFN2-xTB:
   * S. Grimme, C. Bannwarth, P. Shushkov, J. Chem. Theory Comput., 2017,
     13, 1989-2009. DOI: 10.1021/acs.jctc.7b00118
   for GFN1-xTB:
   * C. Bannwarth, S. Ehlert and S. Grimme., J. Chem. Theory Comput., 2019,
     15, 1652-1671. DOI: 10.1021/acs.jctc.8b01176
   for GFN0-xTB:
   * P. Pracht, E. Caldeweyher, S. Ehlert, S. Grimme, ChemRxiv, 2019, preprint.
     DOI: 10.26434/chemrxiv.8326202.v1
   for GFN-FF:
   * S. Spicher and S. Grimme, Angew. Chem. Int. Ed., 2020, 59, 15665-15673.
     DOI: 10.1002/anie.202004239
   
   for DFT-D4:
   * E. Caldeweyher, C. Bannwarth and S. Grimme, J. Chem. Phys., 2017,
     147, 034112. DOI: 10.1063/1.4993215
   * E. Caldeweyher, S. Ehlert, A. Hansen, H. Neugebauer, S. Spicher,
     C. Bannwarth and S. Grimme, J. Chem. Phys., 2019, 150, 154122.
     DOI: 10.1063/1.5090222
   * E. Caldeweyher, J.-M. Mewes, S. Ehlert and S. Grimme, Phys. Chem. Chem. Phys.
     2020, 22, 8499-8512. DOI: 10.1039/D0CP00502A
   
   for sTDA-xTB:
   * S. Grimme and C. Bannwarth, J. Chem. Phys., 2016, 145, 054103.
     DOI: 10.1063/1.4959605
   
   in the mass-spec context:
   * V. Asgeirsson, C. Bauer and S. Grimme, Chem. Sci., 2017, 8, 4879.
     DOI: 10.1039/c7sc00601b
   * J. Koopman and S. Grimme, ACS Omega 2019, 4, 12, 15120-15133.
     DOI: 10.1021/acsomega.9b02011
   
   for metadynamics refer to:
   * S. Grimme, J. Chem. Theory Comput., 2019, 155, 2847-2862
     DOI: 10.1021/acs.jctc.9b00143
   
   with help from (in alphabetical order)
   C. Bannwarth, F. Bohle, G. Brandenburg, E. Caldeweyher, M. Checinski,
   S. Dohm, S. Ehlert, S. Ehrlich, F. März, H. Neugebauer, J. Pisarek,
   P. Pracht, P. Shushkov, and S. Spicher.
   
 * started run on 2022/03/16 at 22:20:10.781     

           -------------------------------------------------
          |                Calculation Setup                |
           -------------------------------------------------

          program call               : xtb acid_192.xyz --opt --chrg 0 --uhf 0 --gfn 2
          coordinate file            : acid_192.xyz
          omp threads                :                    64
          number of atoms            :                    60
          number of electrons        :                   190
          charge                     :                     0
          spin                       :                   0.0
          first test random number   :      0.90303425575406

   ID    Z sym.   atoms
    1    6 C      1-14, 16-21, 23, 25, 26, 30-33, 35-37
    2    7 N      15, 29
    3   35 Br     22, 34
    4    8 O      24, 27, 28, 38
    5    1 H      39-60

           -------------------------------------------------
          |                 G F N 2 - x T B                 |
           -------------------------------------------------

        Reference                      10.1021/acs.jctc.8b01176
      * Hamiltonian:
        H0-scaling (s, p, d)           1.850000    2.230000    2.230000
        zeta-weighting                 0.500000
      * Dispersion:
        s8                             2.700000
        a1                             0.520000
        a2                             5.000000
        s9                             5.000000
      * Repulsion:
        kExp                           1.500000    1.000000
        rExp                           1.000000
      * Coulomb:
        alpha                          2.000000
        third order                    shell-resolved
        anisotropic                    true
        a3                             3.000000
        a5                             4.000000
        cn-shift                       1.200000
        cn-exp                         4.000000
        max-rad                        5.000000


          ...................................................
          :                      SETUP                      :
          :.................................................:
          :  # basis functions                 186          :
          :  # atomic orbitals                 184          :
          :  # shells                          100          :
          :  # electrons                       190          :
          :  max. iterations                   250          :
          :  Hamiltonian                  GFN2-xTB          :
          :  restarted?                      false          :
          :  GBSA solvation                  false          :
          :  PC potential                    false          :
          :  electronic temp.          300.0000000     K    :
          :  accuracy                    1.0000000          :
          :  -> integral cutoff          0.2500000E+02      :
          :  -> integral neglect         0.1000000E-07      :
          :  -> SCF convergence          0.1000000E-05 Eh   :
          :  -> wf. convergence          0.1000000E-03 e    :
          :  Broyden damping             0.4000000          :
          ...................................................

 iter      E             dE          RMSdq      gap      omega  full diag
   1   -106.9999222 -0.107000E+03  0.502E+00    3.10       0.0  T
   2   -107.1542491 -0.154327E+00  0.301E+00    3.01       1.0  T
   3   -107.1450568  0.919226E-02  0.144E+00    3.32       1.0  T
   4   -107.1821291 -0.370722E-01  0.412E-01    2.95       1.0  T
   5   -107.1854452 -0.331612E-02  0.252E-01    2.96       1.0  T
   6   -107.1860464 -0.601228E-03  0.146E-01    3.00       1.0  T
   7   -107.1862757 -0.229347E-03  0.105E-01    2.98       1.0  T
   8   -107.1863472 -0.714047E-04  0.620E-02    2.99       1.0  T
   9   -107.1863987 -0.515532E-04  0.242E-02    3.00       1.0  T
  10   -107.1864168 -0.181170E-04  0.107E-02    3.00       1.2  T
  11   -107.1864175 -0.633881E-06  0.500E-03    3.00       2.6  T
  12   -107.1864181 -0.603191E-06  0.161E-03    3.00       8.0  T
  13   -107.1864181 -0.440207E-07  0.845E-04    3.00      15.3  T
  14   -107.1864181 -0.937531E-08  0.509E-04    3.00      25.4  T

   *** convergence criteria satisfied after 14 iterations ***

         #    Occupation            Energy/Eh            Energy/eV
      -------------------------------------------------------------
         1        2.0000           -0.8510751             -23.1589
       ...           ...                  ...                  ...
        89        2.0000           -0.4168307             -11.3425
        90        2.0000           -0.4157641             -11.3135
        91        2.0000           -0.4155747             -11.3084
        92        2.0000           -0.4133648             -11.2482
        93        2.0000           -0.4103559             -11.1664
        94        2.0000           -0.4077855             -11.0964
        95        2.0000           -0.4051604             -11.0250 (HOMO)
        96                         -0.2949953              -8.0272 (LUMO)
        97                         -0.2783758              -7.5750
        98                         -0.2741257              -7.4593
        99                         -0.2693570              -7.3296
       100                         -0.2594072              -7.0588
       ...                                ...                  ...
       184                          0.6191128              16.8469
      -------------------------------------------------------------
                  HL-Gap            0.1101651 Eh            2.9977 eV
             Fermi-level           -0.3500778 Eh           -9.5261 eV

 SCC (total)                   0 d,  0 h,  0 min,  0.482 sec
 SCC setup                      ...        0 min,  0.012 sec (  2.448%)
 Dispersion                     ...        0 min,  0.016 sec (  3.258%)
 classical contributions        ...        0 min,  0.011 sec (  2.312%)
 integral evaluation            ...        0 min,  0.080 sec ( 16.514%)
 iterations                     ...        0 min,  0.218 sec ( 45.248%)
 molecular gradient             ...        0 min,  0.138 sec ( 28.703%)
 printout                       ...        0 min,  0.002 sec (  0.390%)

         :::::::::::::::::::::::::::::::::::::::::::::::::::::
         ::                     SUMMARY                     ::
         :::::::::::::::::::::::::::::::::::::::::::::::::::::
         :: total energy            -105.749045870507 Eh    ::
         :: gradient norm              0.098319910841 Eh/a0 ::
         :: HOMO-LUMO gap              2.997744440609 eV    ::
         ::.................................................::
         :: SCC energy              -107.186418115018 Eh    ::
         :: -> isotropic ES            0.124660575813 Eh    ::
         :: -> anisotropic ES          0.001824043141 Eh    ::
         :: -> anisotropic XC          0.038949333742 Eh    ::
         :: -> dispersion             -0.086274493841 Eh    ::
         :: repulsion energy           1.434153961055 Eh    ::
         :: add. restraining           0.000000000000 Eh    ::
         :: total charge               0.000000000000 e     ::
         :::::::::::::::::::::::::::::::::::::::::::::::::::::

      ----------------------------------------------------------- 
     |                   =====================                   |
     |                        A N C O P T                        |
     |                   =====================                   |
     |               Approximate Normal Coordinate               |
     |                Rational Function Optimizer                |
      ----------------------------------------------------------- 

          ...................................................
          :                      SETUP                      :
          :.................................................:
          :   optimization level            normal          :
          :   max. optcycles                   200          :
          :   ANC micro-cycles                  20          :
          :   degrees of freedom               174          :
          :.................................................:
          :   RF solver                   davidson          :
          :   write xtbopt.log                true          :
          :   linear?                        false          :
          :   energy convergence         0.5000000E-05 Eh   :
          :   grad. convergence          0.1000000E-02 Eh/α :
          :   maximium RF displ.         1.0000000          :
          :   Hlow (freq-cutoff)         0.1000000E-01      :
          :   Hmax (freq-cutoff)         5.0000000          :
          :   S6 in model hess.         20.0000000          :
          ...................................................

generating ANC from model Hessian ...
Using Lindh-Hessian (1995)
 Shifting diagonal of input Hessian by    9.7800533053540271E-003
 Lowest  eigenvalues of input Hessian
    0.000000    0.000000    0.000000    0.000000    0.000000    0.000000
    0.010000    0.010070    0.010161    0.010358    0.010613    0.010672
    0.010755    0.010888    0.010980    0.011234    0.011545    0.012179
 Highest eigenvalues
    1.949818    1.971571    1.979491    2.160477    2.236131    2.248530


........................................................................
.............................. CYCLE    1 ..............................
........................................................................
   1   -107.1864181 -0.107186E+03  0.272E-04    3.00       0.0  T
   2   -107.1864181 -0.431953E-09  0.212E-04    3.00      61.0  T
   3   -107.1864181 -0.172989E-09  0.168E-04    3.00      76.7  T
     SCC iter.                  ...        0 min,  0.053 sec
     gradient                   ...        0 min,  0.132 sec
 * total energy  :  -105.7490459 Eh     change       -0.3601286E-08 Eh
   gradient norm :     0.0983187 Eh/α   predicted     0.0000000E+00 (-100.00%)
   displ. norm   :     0.3751253 α      lambda       -0.1915351E-01
   maximum displ.:     0.1080779 α      in ANC's #28, #56, #24, ...

........................................................................
.............................. CYCLE    2 ..............................
........................................................................
   1   -107.2653623 -0.107265E+03  0.187E-01    3.34       0.0  T
   2   -107.2655142 -0.151873E-03  0.114E-01    3.26       1.0  T
   3   -107.2654671  0.471449E-04  0.543E-02    3.27       1.0  T
   4   -107.2655643 -0.972448E-04  0.118E-02    3.24       1.1  T
   5   -107.2655696 -0.530668E-05  0.517E-03    3.24       2.5  T
   6   -107.2655701 -0.490534E-06  0.258E-03    3.24       5.0  T
   7   -107.2655702 -0.527305E-07  0.166E-03    3.24       7.8  T
   8   -107.2655702 -0.208842E-07  0.121E-03    3.24      10.6  T
   9   -107.2655702 -0.157727E-07  0.681E-04    3.24      19.0  T
  10   -107.2655702 -0.556359E-08  0.315E-04    3.24      41.0  T
     SCC iter.                  ...        0 min,  0.157 sec
     gradient                   ...        0 min,  0.118 sec
 * total energy  :  -105.7623989 Eh     change       -0.1335307E-01 Eh
   gradient norm :     0.0363548 Eh/α   predicted    -0.1092440E-01 ( -18.19%)
   displ. norm   :     0.3932186 α      lambda       -0.6737640E-02
   maximum displ.:     0.1503654 α      in ANC's #24, #21, #28, ...

........................................................................
.............................. CYCLE    3 ..............................
........................................................................
   1   -107.3038512 -0.107304E+03  0.151E-01    3.41       0.0  T
   2   -107.3039258 -0.746776E-04  0.900E-02    3.36       1.0  T
   3   -107.3038864  0.394382E-04  0.398E-02    3.36       1.0  T
   4   -107.3039521 -0.657426E-04  0.109E-02    3.34       1.2  T
   5   -107.3039554 -0.326603E-05  0.560E-03    3.34       2.3  T
   6   -107.3039557 -0.332520E-06  0.316E-03    3.35       4.1  T
   7   -107.3039558 -0.711549E-07  0.232E-03    3.35       5.6  T
   8   -107.3039559 -0.389627E-07  0.147E-03    3.35       8.8  T
   9   -107.3039559 -0.305659E-07  0.606E-04    3.35      21.3  T
  10   -107.3039559 -0.655373E-08  0.271E-04    3.35      47.6  T
     SCC iter.                  ...        0 min,  0.158 sec
     gradient                   ...        0 min,  0.128 sec
 * total energy  :  -105.7665695 Eh     change       -0.4170515E-02 Eh
   gradient norm :     0.0134765 Eh/α   predicted    -0.3889709E-02 (  -6.73%)
   displ. norm   :     0.2591974 α      lambda       -0.1308077E-02
   maximum displ.:     0.1035394 α      in ANC's #24, #21, #15, ...

........................................................................
.............................. CYCLE    4 ..............................
........................................................................
   1   -107.3073437 -0.107307E+03  0.894E-02    3.36       0.0  T
   2   -107.3073563 -0.125927E-04  0.513E-02    3.35       1.0  T
   3   -107.3073444  0.119405E-04  0.171E-02    3.35       1.0  T
   4   -107.3073599 -0.154988E-04  0.537E-03    3.34       2.4  T
   5   -107.3073607 -0.767262E-06  0.270E-03    3.35       4.8  T
   6   -107.3073607 -0.740969E-07  0.142E-03    3.35       9.1  T
   7   -107.3073607 -0.184954E-07  0.106E-03    3.35      12.2  T
   8   -107.3073607 -0.604545E-08  0.644E-04    3.35      20.1  T
   9   -107.3073608 -0.662580E-08  0.262E-04    3.35      49.2  T
     SCC iter.                  ...        0 min,  0.146 sec
     gradient                   ...        0 min,  0.123 sec
 * total energy  :  -105.7674573 Eh     change       -0.8878386E-03 Eh
   gradient norm :     0.0079959 Eh/α   predicted    -0.6979787E-03 ( -21.38%)
   displ. norm   :     0.2548708 α      lambda       -0.6138051E-03
   maximum displ.:     0.1172858 α      in ANC's #10, #11, #7, ...

........................................................................
.............................. CYCLE    5 ..............................
........................................................................
   1   -107.3071258 -0.107307E+03  0.743E-02    3.35       0.0  T
   2   -107.3071287 -0.290979E-05  0.434E-02    3.35       1.0  T
   3   -107.3071244  0.427215E-05  0.949E-03    3.35       1.4  T
   4   -107.3071298 -0.535564E-05  0.243E-03    3.35       5.3  T
   5   -107.3071299 -0.125828E-06  0.121E-03    3.35      10.6  T
   6   -107.3071299 -0.943756E-08  0.552E-04    3.35      23.4  T
   7   -107.3071299 -0.467949E-08  0.355E-04    3.35      36.3  T
     SCC iter.                  ...        0 min,  0.110 sec
     gradient                   ...        0 min,  0.135 sec
 * total energy  :  -105.7678931 Eh     change       -0.4357884E-03 Eh
   gradient norm :     0.0048841 Eh/α   predicted    -0.3268388E-03 ( -25.00%)
   displ. norm   :     0.3031389 α      lambda       -0.4397658E-03
   maximum displ.:     0.1679341 α      in ANC's #10, #11, #7, ...

........................................................................
.............................. CYCLE    6 ..............................
........................................................................
   1   -107.3058665 -0.107306E+03  0.766E-02    3.35       0.0  T
   2   -107.3058686 -0.211610E-05  0.447E-02    3.35       1.0  T
   3   -107.3058662  0.244131E-05  0.763E-03    3.35       1.7  T
   4   -107.3058695 -0.334093E-05  0.246E-03    3.35       5.2  T
   5   -107.3058696 -0.806153E-07  0.125E-03    3.35      10.3  T
   6   -107.3058696 -0.130399E-07  0.646E-04    3.35      20.0  T
   7   -107.3058696 -0.674264E-08  0.417E-04    3.35      31.0  T
     SCC iter.                  ...        0 min,  0.112 sec
     gradient                   ...        0 min,  0.146 sec
 * total energy  :  -105.7682236 Eh     change       -0.3305292E-03 Eh
   gradient norm :     0.0054528 Eh/α   predicted    -0.2401393E-03 ( -27.35%)
   displ. norm   :     0.3521155 α      lambda       -0.4024703E-03
   maximum displ.:     0.1936910 α      in ANC's #10, #7, #11, ...

........................................................................
.............................. CYCLE    7 ..............................
........................................................................
   1   -107.3049173 -0.107305E+03  0.843E-02    3.35       0.0  T
   2   -107.3049198 -0.249855E-05  0.493E-02    3.35       1.0  T
   3   -107.3049175  0.226930E-05  0.744E-03    3.35       1.7  T
   4   -107.3049207 -0.319303E-05  0.261E-03    3.35       4.9  T
   5   -107.3049209 -0.122696E-06  0.141E-03    3.35       9.2  T
   6   -107.3049209 -0.163932E-07  0.710E-04    3.35      18.2  T
   7   -107.3049209 -0.736233E-08  0.452E-04    3.35      28.6  T
     SCC iter.                  ...        0 min,  0.112 sec
     gradient                   ...        0 min,  0.112 sec
 * total energy  :  -105.7685451 Eh     change       -0.3214823E-03 Eh
   gradient norm :     0.0073645 Eh/α   predicted    -0.2261952E-03 ( -29.64%)
   displ. norm   :     0.4419195 α      lambda       -0.4705827E-03
   maximum displ.:     0.2312126 α      in ANC's #10, #7, #9, ...

........................................................................
.............................. CYCLE    8 ..............................
........................................................................
   1   -107.3044577 -0.107304E+03  0.104E-01    3.36       0.0  T
   2   -107.3044625 -0.476014E-05  0.607E-02    3.36       1.0  T
   3   -107.3044603  0.220034E-05  0.834E-03    3.36       1.5  T
   4   -107.3044637 -0.340448E-05  0.363E-03    3.36       3.6  T
   5   -107.3044640 -0.328417E-06  0.193E-03    3.36       6.7  T
   6   -107.3044641 -0.343840E-07  0.107E-03    3.36      12.1  T
   7   -107.3044641 -0.117703E-07  0.724E-04    3.36      17.8  T
   8   -107.3044641 -0.283809E-08  0.409E-04    3.36      31.5  T
     SCC iter.                  ...        0 min,  0.127 sec
     gradient                   ...        0 min,  0.131 sec
 * total energy  :  -105.7689149 Eh     change       -0.3697934E-03 Eh
   gradient norm :     0.0073483 Eh/α   predicted    -0.2812426E-03 ( -23.95%)
   displ. norm   :     0.4878032 α      lambda       -0.4818517E-03
   maximum displ.:     0.2434074 α      in ANC's #10, #7, #9, ...

........................................................................
.............................. CYCLE    9 ..............................
........................................................................
   1   -107.3038279 -0.107304E+03  0.127E-01    3.35       0.0  T
   2   -107.3038332 -0.525651E-05  0.738E-02    3.35       1.0  T
   3   -107.3038316  0.162674E-05  0.920E-03    3.35       1.4  T
   4   -107.3038349 -0.329783E-05  0.408E-03    3.35       3.2  T
   5   -107.3038351 -0.205640E-06  0.224E-03    3.35       5.8  T
   6   -107.3038351 -0.738518E-07  0.127E-03    3.35      10.1  T
   7   -107.3038352 -0.916643E-08  0.884E-04    3.35      14.6  T
   8   -107.3038352 -0.615685E-08  0.434E-04    3.35      29.7  T
     SCC iter.                  ...        0 min,  0.123 sec
     gradient                   ...        0 min,  0.146 sec
 * total energy  :  -105.7692716 Eh     change       -0.3567480E-03 Eh
   gradient norm :     0.0110354 Eh/α   predicted    -0.2982605E-03 ( -16.39%)
   displ. norm   :     0.4155289 α      lambda       -0.4799602E-03
   maximum displ.:     0.1736135 α      in ANC's #7, #10, #9, ...

........................................................................
.............................. CYCLE   10 ..............................
........................................................................
   1   -107.3068733 -0.107307E+03  0.112E-01    3.40       0.0  T
   2   -107.3068823 -0.907425E-05  0.646E-02    3.39       1.0  T
   3   -107.3068807  0.168692E-05  0.917E-03    3.39       1.4  T
   4   -107.3068832 -0.254231E-05  0.445E-03    3.39       2.9  T
   5   -107.3068838 -0.612889E-06  0.216E-03    3.39       6.0  T
   6   -107.3068838 -0.274820E-07  0.130E-03    3.39       9.9  T
   7   -107.3068839 -0.143092E-07  0.936E-04    3.39      13.8  T
   8   -107.3068839 -0.476862E-08  0.485E-04    3.39      26.6  T
     SCC iter.                  ...        0 min,  0.126 sec
     gradient                   ...        0 min,  0.131 sec
 * total energy  :  -105.7695949 Eh     change       -0.3232440E-03 Eh
   gradient norm :     0.0066316 Eh/α   predicted    -0.2814166E-03 ( -12.94%)
   displ. norm   :     0.4426691 α      lambda       -0.4132724E-03
   maximum displ.:     0.1845628 α      in ANC's #7, #9, #3, ...

........................................................................
.............................. CYCLE   11 ..............................
........................................................................
   1   -107.3051836 -0.107305E+03  0.134E-01    3.34       0.0  T
   2   -107.3051913 -0.766842E-05  0.775E-02    3.35       1.0  T
   3   -107.3051879  0.343000E-05  0.114E-02    3.35       1.1  T
   4   -107.3051935 -0.565329E-05  0.450E-03    3.35       2.9  T
   5   -107.3051937 -0.204396E-06  0.249E-03    3.35       5.2  T
   6   -107.3051939 -0.117936E-06  0.143E-03    3.35       9.0  T
   7   -107.3051939 -0.139720E-07  0.982E-04    3.35      13.2  T
   8   -107.3051939 -0.431383E-08  0.561E-04    3.35      23.0  T
     SCC iter.                  ...        0 min,  0.146 sec
     gradient                   ...        0 min,  0.136 sec
 * total energy  :  -105.7698546 Eh     change       -0.2597494E-03 Eh
   gradient norm :     0.0142042 Eh/α   predicted    -0.2471359E-03 (  -4.86%)
   displ. norm   :     0.2830104 α      lambda       -0.4773673E-03
   maximum displ.:     0.1246646 α      in ANC's #3, #9, #7, ...

........................................................................
.............................. CYCLE   12 ..............................
........................................................................
   1   -107.3104661 -0.107310E+03  0.866E-02    3.41       0.0  T
   2   -107.3104724 -0.637594E-05  0.501E-02    3.40       1.0  T
   3   -107.3104651  0.734100E-05  0.139E-02    3.41       1.0  T
   4   -107.3104747 -0.955294E-05  0.333E-03    3.40       3.9  T
   5   -107.3104748 -0.160849E-06  0.187E-03    3.40       6.9  T
   6   -107.3104749 -0.911004E-07  0.770E-04    3.40      16.8  T
   7   -107.3104749 -0.274542E-08  0.564E-04    3.40      22.9  T
     SCC iter.                  ...        0 min,  0.109 sec
     gradient                   ...        0 min,  0.122 sec
 * total energy  :  -105.7701570 Eh     change       -0.3024037E-03 Eh
   gradient norm :     0.0080579 Eh/α   predicted    -0.2578027E-03 ( -14.75%)
   displ. norm   :     0.3906428 α      lambda       -0.3699959E-03
   maximum displ.:     0.1794478 α      in ANC's #3, #9, #7, ...

........................................................................
.............................. CYCLE   13 ..............................
........................................................................
   1   -107.3075567 -0.107308E+03  0.111E-01    3.40       0.0  T
   2   -107.3075657 -0.895595E-05  0.642E-02    3.40       1.0  T
   3   -107.3075610  0.464751E-05  0.114E-02    3.39       1.1  T
   4   -107.3075673 -0.628742E-05  0.399E-03    3.40       3.2  T
   5   -107.3075678 -0.471699E-06  0.214E-03    3.40       6.0  T
   6   -107.3075678 -0.522078E-07  0.130E-03    3.40       9.9  T
   7   -107.3075678 -0.186430E-07  0.841E-04    3.40      15.4  T
   8   -107.3075678 -0.106586E-08  0.520E-04    3.40      24.8  T
     SCC iter.                  ...        0 min,  0.126 sec
     gradient                   ...        0 min,  0.142 sec
 * total energy  :  -105.7704085 Eh     change       -0.2514190E-03 Eh
   gradient norm :     0.0076275 Eh/α   predicted    -0.2132294E-03 ( -15.19%)
   displ. norm   :     0.2724307 α      lambda       -0.2877582E-03
   maximum displ.:     0.1432558 α      in ANC's #3, #9, #1, ...

........................................................................
.............................. CYCLE   14 ..............................
........................................................................
   1   -107.3086965 -0.107309E+03  0.692E-02    3.43       0.0  T
   2   -107.3087006 -0.415578E-05  0.403E-02    3.43       1.0  T
   3   -107.3086971  0.357132E-05  0.922E-03    3.43       1.4  T
   4   -107.3087016 -0.456474E-05  0.277E-03    3.43       4.7  T
   5   -107.3087018 -0.211995E-06  0.157E-03    3.43       8.2  T
   6   -107.3087019 -0.214511E-07  0.926E-04    3.43      13.9  T
   7   -107.3087019 -0.672674E-08  0.648E-04    3.43      19.9  T
     SCC iter.                  ...        0 min,  0.110 sec
     gradient                   ...        0 min,  0.140 sec
 * total energy  :  -105.7706126 Eh     change       -0.2041881E-03 Eh
   gradient norm :     0.0049391 Eh/α   predicted    -0.1545586E-03 ( -24.31%)
   displ. norm   :     0.3920856 α      lambda       -0.2618671E-03
   maximum displ.:     0.2153037 α      in ANC's #3, #9, #1, ...

........................................................................
.............................. CYCLE   15 ..............................
........................................................................
   1   -107.3067531 -0.107307E+03  0.104E-01    3.38       0.0  T
   2   -107.3067593 -0.621499E-05  0.607E-02    3.40       1.0  T
   3   -107.3067548  0.451640E-05  0.110E-02    3.39       1.2  T
   4   -107.3067610 -0.626587E-05  0.340E-03    3.40       3.8  T
   5   -107.3067612 -0.178154E-06  0.196E-03    3.40       6.6  T
   6   -107.3067613 -0.526834E-07  0.111E-03    3.40      11.6  T
   7   -107.3067613 -0.102469E-07  0.721E-04    3.40      17.9  T
   8   -107.3067613 -0.115912E-08  0.375E-04    3.40      34.5  T
     SCC iter.                  ...        0 min,  0.131 sec
     gradient                   ...        0 min,  0.140 sec
 * total energy  :  -105.7707704 Eh     change       -0.1577138E-03 Eh
   gradient norm :     0.0097262 Eh/α   predicted    -0.1510676E-03 (  -4.21%)
   displ. norm   :     0.2805251 α      lambda       -0.2949962E-03
   maximum displ.:     0.1588883 α      in ANC's #3, #10, #11, ...

........................................................................
.............................. CYCLE   16 ..............................
........................................................................
   1   -107.3099982 -0.107310E+03  0.621E-02    3.45       0.0  T
   2   -107.3100024 -0.423775E-05  0.362E-02    3.44       1.0  T
   3   -107.3099995  0.292079E-05  0.902E-03    3.44       1.4  T
   4   -107.3100034 -0.392467E-05  0.246E-03    3.44       5.2  T
   5   -107.3100035 -0.114134E-06  0.146E-03    3.44       8.9  T
   6   -107.3100036 -0.338978E-07  0.807E-04    3.44      16.0  T
   7   -107.3100036 -0.423758E-08  0.559E-04    3.44      23.1  T
     SCC iter.                  ...        0 min,  0.113 sec
     gradient                   ...        0 min,  0.126 sec
 * total energy  :  -105.7709471 Eh     change       -0.1767586E-03 Eh
   gradient norm :     0.0059664 Eh/α   predicted    -0.1591074E-03 (  -9.99%)
   displ. norm   :     0.3178226 α      lambda       -0.1733404E-03
   maximum displ.:     0.1902589 α      in ANC's #3, #9, #1, ...

........................................................................
.............................. CYCLE   17 ..............................
........................................................................
   1   -107.3089891 -0.107309E+03  0.790E-02    3.43       0.0  T
   2   -107.3089911 -0.206646E-05  0.457E-02    3.43       1.0  T
   3   -107.3089885  0.261234E-05  0.788E-03    3.43       1.6  T
   4   -107.3089920 -0.349315E-05  0.260E-03    3.43       5.0  T
   5   -107.3089921 -0.650887E-07  0.136E-03    3.43       9.5  T
   6   -107.3089921 -0.302760E-07  0.834E-04    3.43      15.5  T
   7   -107.3089921 -0.283266E-08  0.561E-04    3.43      23.0  T
     SCC iter.                  ...        0 min,  0.110 sec
     gradient                   ...        0 min,  0.124 sec
 * total energy  :  -105.7710887 Eh     change       -0.1416179E-03 Eh
   gradient norm :     0.0047652 Eh/α   predicted    -0.9542707E-04 ( -32.62%)
   displ. norm   :     0.3776270 α      lambda       -0.2192371E-03
   maximum displ.:     0.2334422 α      in ANC's #3, #1, #9, ...

........................................................................
.............................. CYCLE   18 ..............................
........................................................................
   1   -107.3095500 -0.107310E+03  0.944E-02    3.44       0.0  T
   2   -107.3095533 -0.337391E-05  0.546E-02    3.43       1.0  T
   3   -107.3095468  0.656406E-05  0.113E-02    3.44       1.1  T
   4   -107.3095549 -0.810859E-05  0.319E-03    3.43       4.0  T
   5   -107.3095550 -0.118759E-06  0.161E-03    3.43       8.0  T
   6   -107.3095550 -0.337100E-07  0.980E-04    3.43      13.2  T
   7   -107.3095550 -0.555691E-08  0.714E-04    3.43      18.1  T
     SCC iter.                  ...        0 min,  0.110 sec
     gradient                   ...        0 min,  0.150 sec
 * total energy  :  -105.7712425 Eh     change       -0.1537419E-03 Eh
   gradient norm :     0.0039677 Eh/α   predicted    -0.1252520E-03 ( -18.53%)
   displ. norm   :     0.3379811 α      lambda       -0.1187151E-03
   maximum displ.:     0.2087962 α      in ANC's #3, #1, #9, ...

........................................................................
.............................. CYCLE   19 ..............................
........................................................................
   1   -107.3086901 -0.107309E+03  0.856E-02    3.43       0.0  T
   2   -107.3086937 -0.352399E-05  0.493E-02    3.43       1.0  T
   3   -107.3086899  0.375879E-05  0.942E-03    3.43       1.4  T
   4   -107.3086946 -0.473412E-05  0.314E-03    3.43       4.1  T
   5   -107.3086948 -0.186523E-06  0.164E-03    3.43       7.9  T
   6   -107.3086949 -0.295816E-07  0.103E-03    3.43      12.6  T
   7   -107.3086949 -0.789409E-08  0.735E-04    3.43      17.6  T
   8   -107.3086949 -0.144986E-08  0.384E-04    3.43      33.6  T
     SCC iter.                  ...        0 min,  0.126 sec
     gradient                   ...        0 min,  0.159 sec
 * total energy  :  -105.7713285 Eh     change       -0.8605523E-04 Eh
   gradient norm :     0.0046324 Eh/α   predicted    -0.6613848E-04 ( -23.14%)
   displ. norm   :     0.3055052 α      lambda       -0.1236779E-03
   maximum displ.:     0.1917927 α      in ANC's #3, #1, #10, ...

........................................................................
.............................. CYCLE   20 ..............................
........................................................................
   1   -107.3099505 -0.107310E+03  0.782E-02    3.46       0.0  T
   2   -107.3099538 -0.326168E-05  0.451E-02    3.45       1.0  T
   3   -107.3099489  0.491622E-05  0.105E-02    3.46       1.2  T
   4   -107.3099549 -0.603435E-05  0.274E-03    3.45       4.7  T
   5   -107.3099550 -0.114843E-06  0.149E-03    3.45       8.7  T
   6   -107.3099551 -0.388545E-07  0.815E-04    3.45      15.8  T
   7   -107.3099551 -0.433623E-08  0.584E-04    3.45      22.1  T
     SCC iter.                  ...        0 min,  0.111 sec
     gradient                   ...        0 min,  0.141 sec
 * total energy  :  -105.7714131 Eh     change       -0.8460419E-04 Eh
   gradient norm :     0.0041429 Eh/α   predicted    -0.6761206E-04 ( -20.08%)
   displ. norm   :     0.3572813 α      lambda       -0.1138010E-03
   maximum displ.:     0.2245747 α      in ANC's #3, #1, #7, ...
 * RMSD in coord.:     0.6616421 α      energy gain  -0.2236726E-01 Eh

generating ANC from model Hessian ...
Using Lindh-Hessian (1995)
 Shifting diagonal of input Hessian by    9.7642163170278806E-003
 Lowest  eigenvalues of input Hessian
    0.000000    0.000000    0.000000    0.000000    0.000000    0.000000
    0.010000    0.010087    0.010210    0.010412    0.010661    0.010738
    0.010839    0.010924    0.011111    0.011373    0.011876    0.012271
 Highest eigenvalues
    2.022692    2.027139    2.027731    2.336782    2.347609    2.400435


........................................................................
.............................. CYCLE   21 ..............................
........................................................................
   1   -107.3092093 -0.107309E+03  0.946E-02    3.44       0.0  T
   2   -107.3092140 -0.470999E-05  0.544E-02    3.44       1.0  T
   3   -107.3092094  0.458667E-05  0.109E-02    3.44       1.2  T
   4   -107.3092152 -0.585093E-05  0.360E-03    3.44       3.6  T
   5   -107.3092154 -0.216614E-06  0.206E-03    3.44       6.3  T
   6   -107.3092155 -0.608417E-07  0.123E-03    3.44      10.5  T
   7   -107.3092155 -0.878212E-08  0.892E-04    3.44      14.5  T
   8   -107.3092155 -0.458766E-08  0.411E-04    3.44      31.4  T
     SCC iter.                  ...        0 min,  0.127 sec
     gradient                   ...        0 min,  0.118 sec
 * total energy  :  -105.7714921 Eh     change       -0.7895726E-04 Eh
   gradient norm :     0.0040784 Eh/α   predicted     0.0000000E+00 (-100.00%)
   displ. norm   :     0.0449371 α      lambda       -0.4998148E-04
   maximum displ.:     0.0189087 α      in ANC's #8, #3, #20, ...

........................................................................
.............................. CYCLE   22 ..............................
........................................................................
   1   -107.3108453 -0.107311E+03  0.161E-02    3.45       0.0  T
   2   -107.3108455 -0.181525E-06  0.913E-03    3.45       1.4  T
   3   -107.3108453  0.154808E-06  0.220E-03    3.45       5.9  T
   4   -107.3108455 -0.203578E-06  0.843E-04    3.45      15.3  T
   5   -107.3108455 -0.747559E-08  0.458E-04    3.45      28.2  T
     SCC iter.                  ...        0 min,  0.083 sec
     gradient                   ...        0 min,  0.138 sec
 * total energy  :  -105.7715302 Eh     change       -0.3809846E-04 Eh
   gradient norm :     0.0016280 Eh/α   predicted    -0.2507455E-04 ( -34.18%)
   displ. norm   :     0.1592310 α      lambda       -0.6249660E-04
   maximum displ.:     0.0723131 α      in ANC's #8, #3, #13, ...

........................................................................
.............................. CYCLE   23 ..............................
........................................................................
   1   -107.3130886 -0.107313E+03  0.497E-02    3.46       0.0  T
   2   -107.3130897 -0.106106E-05  0.282E-02    3.46       1.0  T
   3   -107.3130888  0.914466E-06  0.563E-03    3.46       2.3  T
   4   -107.3130900 -0.122985E-05  0.236E-03    3.46       5.5  T
   5   -107.3130900 -0.633906E-07  0.123E-03    3.46      10.5  T
   6   -107.3130901 -0.163623E-07  0.813E-04    3.46      15.9  T
   7   -107.3130901 -0.309848E-08  0.540E-04    3.46      23.9  T
     SCC iter.                  ...        0 min,  0.109 sec
     gradient                   ...        0 min,  0.137 sec
 * total energy  :  -105.7715803 Eh     change       -0.5015068E-04 Eh
   gradient norm :     0.0038714 Eh/α   predicted    -0.3164921E-04 ( -36.89%)
   displ. norm   :     0.0629974 α      lambda       -0.2669071E-04
   maximum displ.:     0.0304191 α      in ANC's #8, #3, #14, ...

........................................................................
.............................. CYCLE   24 ..............................
........................................................................
   1   -107.3123848 -0.107312E+03  0.179E-02    3.46       0.0  T
   2   -107.3123849 -0.145288E-06  0.101E-02    3.46       1.3  T
   3   -107.3123848  0.145272E-06  0.201E-03    3.46       6.4  T
   4   -107.3123850 -0.190760E-06  0.829E-04    3.46      15.6  T
   5   -107.3123850 -0.782823E-08  0.429E-04    3.46      30.1  T
     SCC iter.                  ...        0 min,  0.082 sec
     gradient                   ...        0 min,  0.151 sec
 * total energy  :  -105.7716039 Eh     change       -0.2351815E-04 Eh
   gradient norm :     0.0028089 Eh/α   predicted    -0.1341915E-04 ( -42.94%)
   displ. norm   :     0.1873246 α      lambda       -0.6857949E-04
   maximum displ.:     0.0905349 α      in ANC's #3, #8, #14, ...

........................................................................
.............................. CYCLE   25 ..............................
........................................................................
   1   -107.3106339 -0.107311E+03  0.517E-02    3.45       0.0  T
   2   -107.3106348 -0.916751E-06  0.294E-02    3.45       1.0  T
   3   -107.3106337  0.115897E-05  0.555E-03    3.45       2.3  T
   4   -107.3106352 -0.152626E-05  0.228E-03    3.45       5.7  T
   5   -107.3106352 -0.458814E-07  0.117E-03    3.45      11.1  T
   6   -107.3106353 -0.229591E-07  0.762E-04    3.45      16.9  T
   7   -107.3106353 -0.205668E-08  0.466E-04    3.45      27.7  T
     SCC iter.                  ...        0 min,  0.111 sec
     gradient                   ...        0 min,  0.121 sec
 * total energy  :  -105.7716498 Eh     change       -0.4598670E-04 Eh
   gradient norm :     0.0018839 Eh/α   predicted    -0.3549411E-04 ( -22.82%)
   displ. norm   :     0.1879004 α      lambda       -0.2517174E-04
   maximum displ.:     0.0973028 α      in ANC's #3, #8, #14, ...

........................................................................
.............................. CYCLE   26 ..............................
........................................................................
   1   -107.3100247 -0.107310E+03  0.507E-02    3.45       0.0  T
   2   -107.3100254 -0.697535E-06  0.289E-02    3.45       1.0  T
   3   -107.3100243  0.104137E-05  0.524E-03    3.45       2.5  T
   4   -107.3100257 -0.136073E-05  0.222E-03    3.45       5.8  T
   5   -107.3100257 -0.454070E-07  0.106E-03    3.45      12.1  T
   6   -107.3100257 -0.182615E-07  0.728E-04    3.45      17.7  T
   7   -107.3100257 -0.146784E-08  0.437E-04    3.45      29.5  T
     SCC iter.                  ...        0 min,  0.109 sec
     gradient                   ...        0 min,  0.123 sec
 * total energy  :  -105.7716741 Eh     change       -0.2426922E-04 Eh
   gradient norm :     0.0026516 Eh/α   predicted    -0.1279477E-04 ( -47.28%)
   displ. norm   :     0.0734981 α      lambda       -0.1930772E-04
   maximum displ.:     0.0415858 α      in ANC's #3, #8, #14, ...

........................................................................
.............................. CYCLE   27 ..............................
........................................................................
   1   -107.3106920 -0.107311E+03  0.200E-02    3.45       0.0  T
   2   -107.3106922 -0.157121E-06  0.114E-02    3.45       1.1  T
   3   -107.3106919  0.237855E-06  0.238E-03    3.45       5.4  T
   4   -107.3106922 -0.298377E-06  0.875E-04    3.45      14.7  T
   5   -107.3106923 -0.831567E-08  0.463E-04    3.45      27.9  T
     SCC iter.                  ...        0 min,  0.078 sec
     gradient                   ...        0 min,  0.132 sec
 * total energy  :  -105.7716906 Eh     change       -0.1652748E-04 Eh
   gradient norm :     0.0017583 Eh/α   predicted    -0.9706509E-05 ( -41.27%)
   displ. norm   :     0.2376086 α      lambda       -0.3591393E-04
   maximum displ.:     0.1353812 α      in ANC's #3, #8, #1, ...

........................................................................
.............................. CYCLE   28 ..............................
........................................................................
   1   -107.3121762 -0.107312E+03  0.662E-02    3.46       0.0  T
   2   -107.3121777 -0.152924E-05  0.377E-02    3.46       1.0  T
   3   -107.3121752  0.256073E-05  0.782E-03    3.46       1.7  T
   4   -107.3121784 -0.321461E-05  0.294E-03    3.46       4.4  T
   5   -107.3121785 -0.826447E-07  0.153E-03    3.46       8.4  T
   6   -107.3121785 -0.361238E-07  0.993E-04    3.46      13.0  T
   7   -107.3121785 -0.423144E-08  0.693E-04    3.46      18.6  T
     SCC iter.                  ...        0 min,  0.114 sec
     gradient                   ...        0 min,  0.138 sec
 * total energy  :  -105.7717187 Eh     change       -0.2810238E-04 Eh
   gradient norm :     0.0019356 Eh/α   predicted    -0.1841021E-04 ( -34.49%)
   displ. norm   :     0.0719761 α      lambda       -0.8593129E-05
   maximum displ.:     0.0418693 α      in ANC's #3, #8, #12, ...

........................................................................
.............................. CYCLE   29 ..............................
........................................................................
   1   -107.3119333 -0.107312E+03  0.214E-02    3.46       0.0  T
   2   -107.3119335 -0.147626E-06  0.122E-02    3.46       1.1  T
   3   -107.3119332  0.302215E-06  0.260E-03    3.46       5.0  T
   4   -107.3119335 -0.370431E-06  0.939E-04    3.46      13.7  T
   5   -107.3119335 -0.841629E-08  0.483E-04    3.46      26.7  T
     SCC iter.                  ...        0 min,  0.079 sec
     gradient                   ...        0 min,  0.138 sec
 * total energy  :  -105.7717303 Eh     change       -0.1158864E-04 Eh
   gradient norm :     0.0012589 Eh/α   predicted    -0.4312317E-05 ( -62.79%)
   displ. norm   :     0.2221416 α      lambda       -0.2982235E-04
   maximum displ.:     0.1182067 α      in ANC's #3, #12, #8, ...

........................................................................
.............................. CYCLE   30 ..............................
........................................................................
   1   -107.3113469 -0.107311E+03  0.670E-02    3.46       0.0  T
   2   -107.3113482 -0.138183E-05  0.381E-02    3.46       1.0  T
   3   -107.3113453  0.297780E-05  0.818E-03    3.46       1.6  T
   4   -107.3113489 -0.364114E-05  0.299E-03    3.46       4.3  T
   5   -107.3113490 -0.829259E-07  0.151E-03    3.46       8.6  T
   6   -107.3113490 -0.242484E-07  0.104E-03    3.46      12.5  T
   7   -107.3113490 -0.565399E-08  0.701E-04    3.46      18.4  T
   8   -107.3113490 -0.432911E-08  0.218E-04    3.46      59.3  T
     SCC iter.                  ...        0 min,  0.132 sec
     gradient                   ...        0 min,  0.132 sec
 * total energy  :  -105.7717622 Eh     change       -0.3187063E-04 Eh
   gradient norm :     0.0013106 Eh/α   predicted    -0.1524633E-04 ( -52.16%)
   displ. norm   :     0.2272991 α      lambda       -0.1905612E-04
   maximum displ.:     0.1215317 α      in ANC's #3, #12, #8, ...

........................................................................
.............................. CYCLE   31 ..............................
........................................................................
   1   -107.3106504 -0.107311E+03  0.688E-02    3.45       0.0  T
   2   -107.3106515 -0.110731E-05  0.393E-02    3.45       1.0  T
   3   -107.3106485  0.294764E-05  0.786E-03    3.45       1.6  T
   4   -107.3106521 -0.358441E-05  0.276E-03    3.45       4.7  T
   5   -107.3106522 -0.512060E-07  0.132E-03    3.45       9.8  T
   6   -107.3106522 -0.265880E-07  0.917E-04    3.45      14.1  T
   7   -107.3106522 -0.355057E-08  0.573E-04    3.45      22.5  T
     SCC iter.                  ...        0 min,  0.122 sec
     gradient                   ...        0 min,  0.149 sec
 * total energy  :  -105.7717833 Eh     change       -0.2109557E-04 Eh
   gradient norm :     0.0022527 Eh/α   predicted    -0.9748544E-05 ( -53.79%)
   displ. norm   :     0.1872012 α      lambda       -0.2154337E-04
   maximum displ.:     0.0993186 α      in ANC's #3, #12, #5, ...

........................................................................
.............................. CYCLE   32 ..............................
........................................................................
   1   -107.3106915 -0.107311E+03  0.576E-02    3.45       0.0  T
   2   -107.3106923 -0.732152E-06  0.328E-02    3.45       1.0  T
   3   -107.3106904  0.190523E-05  0.642E-03    3.45       2.0  T
   4   -107.3106927 -0.233638E-05  0.235E-03    3.45       5.5  T
   5   -107.3106927 -0.338351E-07  0.109E-03    3.45      11.8  T
   6   -107.3106927 -0.207522E-07  0.774E-04    3.45      16.7  T
   7   -107.3106927 -0.209992E-08  0.420E-04    3.45      30.8  T
     SCC iter.                  ...        0 min,  0.113 sec
     gradient                   ...        0 min,  0.125 sec
 * total energy  :  -105.7718013 Eh     change       -0.1804460E-04 Eh
   gradient norm :     0.0022251 Eh/α   predicted    -0.1116222E-04 ( -38.14%)
   displ. norm   :     0.3053017 α      lambda       -0.3395775E-04
   maximum displ.:     0.1611820 α      in ANC's #3, #12, #5, ...

........................................................................
.............................. CYCLE   33 ..............................
........................................................................
   1   -107.3106913 -0.107311E+03  0.941E-02    3.46       0.0  T
   2   -107.3106932 -0.188630E-05  0.538E-02    3.45       1.0  T
   3   -107.3106883  0.489189E-05  0.102E-02    3.45       1.3  T
   4   -107.3106943 -0.598696E-05  0.363E-03    3.45       3.6  T
   5   -107.3106943 -0.789116E-07  0.171E-03    3.45       7.5  T
   6   -107.3106944 -0.540506E-07  0.120E-03    3.45      10.8  T
   7   -107.3106944 -0.555205E-08  0.679E-04    3.45      19.0  T
   8   -107.3106944 -0.540291E-08  0.213E-04    3.45      60.7  T
     SCC iter.                  ...        0 min,  0.132 sec
     gradient                   ...        0 min,  0.128 sec
 * total energy  :  -105.7718257 Eh     change       -0.2440166E-04 Eh
   gradient norm :     0.0018687 Eh/α   predicted    -0.1856358E-04 ( -23.92%)
   displ. norm   :     0.2932969 α      lambda       -0.1991504E-04
   maximum displ.:     0.1532263 α      in ANC's #3, #5, #12, ...

........................................................................
.............................. CYCLE   34 ..............................
........................................................................
   1   -107.3115027 -0.107312E+03  0.911E-02    3.46       0.0  T
   2   -107.3115045 -0.181206E-05  0.521E-02    3.46       1.0  T
   3   -107.3115003  0.423278E-05  0.957E-03    3.46       1.3  T
   4   -107.3115055 -0.520219E-05  0.350E-03    3.46       3.7  T
   5   -107.3115056 -0.870397E-07  0.163E-03    3.46       7.9  T
   6   -107.3115056 -0.467905E-07  0.115E-03    3.46      11.2  T
   7   -107.3115057 -0.664721E-08  0.732E-04    3.46      17.6  T
   8   -107.3115057 -0.369602E-08  0.243E-04    3.46      53.1  T
     SCC iter.                  ...        0 min,  0.129 sec
     gradient                   ...        0 min,  0.145 sec
 * total energy  :  -105.7718431 Eh     change       -0.1738873E-04 Eh
   gradient norm :     0.0010621 Eh/α   predicted    -0.1034550E-04 ( -40.50%)
   displ. norm   :     0.0504196 α      lambda       -0.7649647E-05
   maximum displ.:     0.0186401 α      in ANC's #12, #2, #5, ...

........................................................................
.............................. CYCLE   35 ..............................
........................................................................
   1   -107.3127029 -0.107313E+03  0.133E-02    3.46       0.0  T
   2   -107.3127030 -0.952152E-07  0.762E-03    3.46       1.7  T
   3   -107.3127028  0.146574E-06  0.192E-03    3.46       6.7  T
   4   -107.3127030 -0.184371E-06  0.686E-04    3.46      18.8  T
   5   -107.3127030 -0.446924E-08  0.401E-04    3.46      32.2  T
     SCC iter.                  ...        0 min,  0.080 sec
     gradient                   ...        0 min,  0.040 sec
 * total energy  :  -105.7718508 Eh     change       -0.7675604E-05 Eh
   gradient norm :     0.0008733 Eh/α   predicted    -0.3841743E-05 ( -49.95%)
   displ. norm   :     0.1431029 α      lambda       -0.8155675E-05
   maximum displ.:     0.0677046 α      in ANC's #3, #8, #5, ...

........................................................................
.............................. CYCLE   36 ..............................
........................................................................
   1   -107.3120871 -0.107312E+03  0.450E-02    3.47       0.0  T
   2   -107.3120876 -0.465728E-06  0.254E-02    3.47       1.0  T
   3   -107.3120871  0.479506E-06  0.415E-03    3.47       3.1  T
   4   -107.3120877 -0.651930E-06  0.200E-03    3.47       6.4  T
   5   -107.3120878 -0.422630E-07  0.918E-04    3.47      14.1  T
   6   -107.3120878 -0.127636E-07  0.667E-04    3.47      19.3  T
     SCC iter.                  ...        0 min,  0.096 sec
     gradient                   ...        0 min,  0.041 sec
 * total energy  :  -105.7718584 Eh     change       -0.7632122E-05 Eh
   gradient norm :     0.0011971 Eh/α   predicted    -0.4119003E-05 ( -46.03%)
   displ. norm   :     0.0794031 α      lambda       -0.5628044E-05
   maximum displ.:     0.0364455 α      in ANC's #5, #2, #9, ...

........................................................................
.............................. CYCLE   37 ..............................
........................................................................
   1   -107.3123716 -0.107312E+03  0.228E-02    3.47       0.0  T
   2   -107.3123718 -0.163801E-06  0.128E-02    3.47       1.0  T
   3   -107.3123714  0.387995E-06  0.303E-03    3.47       4.3  T
   4   -107.3123719 -0.482733E-06  0.128E-03    3.47      10.1  T
   5   -107.3123719 -0.131611E-07  0.684E-04    3.47      18.9  T
   6   -107.3123719 -0.566054E-08  0.499E-04    3.47      25.9  T
     SCC iter.                  ...        0 min,  0.099 sec
     gradient                   ...        0 min,  0.130 sec
 * total energy  :  -105.7718648 Eh     change       -0.6349170E-05 Eh
   gradient norm :     0.0007555 Eh/α   predicted    -0.2823654E-05 ( -55.53%)
   displ. norm   :     0.0916775 α      lambda       -0.6061123E-05
   maximum displ.:     0.0438541 α      in ANC's #2, #5, #9, ...

........................................................................
.............................. CYCLE   38 ..............................
........................................................................
   1   -107.3122152 -0.107312E+03  0.263E-02    3.46       0.0  T
   2   -107.3122153 -0.168499E-06  0.146E-02    3.46       1.0  T
   3   -107.3122150  0.363163E-06  0.303E-03    3.46       4.3  T
   4   -107.3122154 -0.446811E-06  0.144E-03    3.46       9.0  T
   5   -107.3122154 -0.257966E-07  0.631E-04    3.46      20.5  T
   6   -107.3122154 -0.361500E-08  0.482E-04    3.46      26.8  T
     SCC iter.                  ...        0 min,  0.095 sec
     gradient                   ...        0 min,  0.151 sec
 * total energy  :  -105.7718713 Eh     change       -0.6476570E-05 Eh
   gradient norm :     0.0004519 Eh/α   predicted    -0.3045888E-05 ( -52.97%)
   displ. norm   :     0.0770155 α      lambda       -0.4209783E-05
   maximum displ.:     0.0408365 α      in ANC's #2, #5, #9, ...

........................................................................
.............................. CYCLE   39 ..............................
........................................................................
   1   -107.3122926 -0.107312E+03  0.213E-02    3.46       0.0  T
   2   -107.3122928 -0.121729E-06  0.116E-02    3.46       1.1  T
   3   -107.3122926  0.202200E-06  0.238E-03    3.46       5.4  T
   4   -107.3122928 -0.254594E-06  0.120E-03    3.46      10.8  T
   5   -107.3122928 -0.191480E-07  0.499E-04    3.46      25.9  T
   6   -107.3122928 -0.342204E-08  0.375E-04    3.46      34.5  T
     SCC iter.                  ...        0 min,  0.095 sec
     gradient                   ...        0 min,  0.132 sec
 * total energy  :  -105.7718760 Eh     change       -0.4704426E-05 Eh
   gradient norm :     0.0006076 Eh/α   predicted    -0.2113147E-05 ( -55.08%)
   displ. norm   :     0.0801245 α      lambda       -0.4167146E-05
   maximum displ.:     0.0438260 α      in ANC's #2, #5, #9, ...

   *** GEOMETRY OPTIMIZATION CONVERGED AFTER 39 ITERATIONS ***

------------------------------------------------------------------------
 total energy gain   :        -0.0228301 Eh      -14.3261 kcal/mol
 total RMSD          :         0.8972428 a0        0.4748 Å
 total power (kW/mol):        -1.5369337 (step)   -3.9869 (real)
------------------------------------------------------------------------

 ANCopt (total)                0 d,  0 h,  0 min, 15.034 sec
 optimizer setup                ...        0 min,  0.000 sec (  0.001%)
 model hessian                  ...        0 min,  0.056 sec (  0.373%)
 ANC generation                 ...        0 min,  0.017 sec (  0.113%)
 coordinate transformation      ...        0 min,  0.002 sec (  0.015%)
 single point calculation       ...        0 min, 14.434 sec ( 96.005%)
 optimization log               ...        0 min,  0.053 sec (  0.351%)
 hessian update                 ...        0 min,  0.430 sec (  2.858%)
 rational function              ...        0 min,  0.009 sec (  0.063%)

================
 final structure:
================
60
 xtb: 6.3.3 (4ae9cef)
C         2.19953292767378   -3.44664301859313    1.01909903856163
C         2.70559917476482   -3.99344795386617    2.18498320847159
C         2.18251316960428   -3.62183754228622    3.41134983990064
C         1.15293318856711   -2.69819643734725    3.46717520848013
C         0.64922200009813   -2.14812179205426    2.30212154255827
C         1.16439058838893   -2.52290109593379    1.06698681490405
C         0.65040776211179   -1.90928603057043   -0.21495893575386
C        -0.88089873415734   -1.83854843631329   -0.29990134622572
C        -1.47852260188075   -1.99548120232599   -1.68057791222892
C        -2.84108727946032   -2.26696492272247   -1.76306237122946
C        -3.46796148654113   -2.35258874582789   -2.99211322906670
C        -2.74060861718884   -2.16584834241590   -4.15625336485729
C        -1.38659053971017   -1.89211655516008   -4.08170804878071
C        -0.75607960712786   -1.80337445551152   -2.85108261156856
N        -1.15504224387703   -0.48449004091783    0.18395067825801
C        -2.17138748755372   -0.17914224991537    1.02612024741965
C        -2.17058164206602    1.24644536136608    1.49687227590733
C        -1.38820965526257    1.62946266891196    2.58109462368153
C        -1.41143468023995    2.94171880477955    3.02219068762355
C        -2.20536782915882    3.87997156502255    2.38600411334595
C        -2.98479636461968    3.48272567326735    1.31246490837972
Br       -4.07360155246980    4.76475794547043    0.42252107687441
C        -2.98407651518921    2.17384138257329    0.86311758722795
O        -2.99844640748595   -0.99206037435993    1.37255013404524
C        -0.09399060010746    0.37173858238969   -0.25509216262583
C        -0.37757611783872    0.96657343705663   -1.65607549314032
O        -1.64137425900890    1.35727626347843   -1.76490738397540
O         0.45026583481375    1.09883002275810   -2.51006606145489
N         1.05522477328497   -0.49994835818434   -0.28223243030357
C         2.33335573268707   -0.15547659483045   -0.59317117066995
C         2.62864166649027    1.30944041183403   -0.52061557655565
C         3.15678205750212    1.95062281158519   -1.63195649854744
C         3.45010204735885    3.29957168551456   -1.55052746754286
Br        4.14421147532263    4.19359515576600   -3.07679470463404
C         3.24998440988898    4.01523706689613   -0.38174478692969
C         2.75519229040422    3.35775680443230    0.73137014921326
C         2.44377061403759    2.01070969429506    0.66647630626154
O         3.17500619650882   -0.98523364303935   -0.85728622253777
H         2.61806861216007   -3.72669084854493    0.06466389273203
H         3.51180171036971   -4.70965335053828    2.13515988171650
H         2.57559681997332   -4.04889735677109    4.32184167397255
H         0.73954336896288   -2.40433506218234    4.42088060882512
H        -0.15809613005359   -1.43311310927173    2.36024676019343
H         1.08662627286929   -2.45339649409120   -1.05753715341950
H        -1.35938150582616   -2.54321728516376    0.38678633037124
H        -3.40682503186100   -2.40161787636535   -0.85322073183394
H        -4.52516084165546   -2.56590798616175   -3.04176327793916
H        -3.22724445325041   -2.23374293226287   -5.11775873575279
H        -0.81214823535490   -1.74229073774743   -4.98353158536308
H         0.29969808684721   -1.58033720291436   -2.82640539096309
H        -0.76911240376152    0.90109080485245    3.08423248158398
H        -0.80779736344324    3.23844592121902    3.86642706680781
H        -2.22401171511744    4.90519431933544    2.72177596909686
H        -3.60098330625341    1.87384756160189    0.03080727739382
H         0.03773424813486    1.22772162912648    0.42162380095165
H        -1.81769079236196    1.73492518375651   -2.64331932400663
H         3.31684568186347    1.39879125437079   -2.54432420999682
H         3.48705627316490    5.06718341870001   -0.34110462699580
H         2.61397502391619    3.90191825384242    1.65301572038207
H         2.08200499211924    1.49551234999024    1.54518690976633

 Bond Distances (Angstroems)
 ---------------------------
C1-C2=1.3836         C1-C6=1.3882         C1-H39=1.0791        C2-C1=1.3836         C2-C3=1.3841         C2-H40=1.0795        
C3-C2=1.3841         C3-C4=1.3843         C3-H41=1.0798        C4-C3=1.3843         C4-C5=1.3833         C4-H42=1.0802        
C5-C4=1.3833         C5-C6=1.3898         C5-H43=1.0800        C6-C1=1.3882         C6-C5=1.3898         C6-C7=1.5113         
C7-C6=1.5113         C7-C8=1.5353         C7-N29=1.4679        C7-H44=1.0937        C8-C7=1.5353         C8-C9=1.5126         
C8-N15=1.4638        C8-H45=1.0941        C9-C8=1.5126         C9-C10=1.3918        C9-C14=1.3889        C10-C9=1.3918        
C10-C11=1.3823       C10-H46=1.0798       C11-C10=1.3823       C11-C12=1.3853       C11-H47=1.0796       C12-C11=1.3853       
C12-C13=1.3834       C12-H48=1.0798       C13-C12=1.3834       C13-C14=1.3856       C13-H49=1.0797       C14-C9=1.3889        
C14-C13=1.3856       C14-H50=1.0794       N15-C8=1.4638        N15-C16=1.3548       N15-C25=1.4324       C16-N15=1.3548       
C16-C17=1.5013       C16-O24=1.2103       C17-C16=1.5013       C17-C18=1.3908       C17-C23=1.3869       C18-C17=1.3908       
C18-C19=1.3846       C18-H51=1.0803       C19-C18=1.3846       C19-C20=1.3840       C19-H52=1.0794       C20-C19=1.3840       
C20-C21=1.3848       C20-H53=1.0790       C21-C20=1.3848       C21-Br22=1.9029      C21-C23=1.3839       Br22-C21=1.9029      
C23-C17=1.3869       C23-C21=1.3839       C23-H54=1.0786       O24-C16=1.2103       C25-N15=1.4324       C25-C26=1.5482       
C25-N29=1.4427       C25-H55=1.0991       C26-C25=1.5482       C26-O27=1.3273       C26-O28=1.1967       O27-C26=1.3273       
O27-H56=0.9723       O28-C26=1.1967       N29-C7=1.4679        N29-C25=1.4427       N29-C30=1.3598       C30-N29=1.3598       
C30-C31=1.4961       C30-O38=1.2110       C31-C30=1.4961       C31-C32=1.3875       C31-C37=1.3911       C32-C31=1.3875       
C32-C33=1.3829       C32-H57=1.0782       C33-C32=1.3829       C33-Br34=1.9001      C33-C35=1.3850       Br34-C33=1.9001      
C35-C33=1.3850       C35-C36=1.3842       C35-H58=1.0791       C36-C35=1.3842       C36-C37=1.3841       C36-H59=1.0796       
C37-C31=1.3911       C37-C36=1.3841       C37-H60=1.0809       O38-C30=1.2110       H39-C1=1.0791        H40-C2=1.0795        
H41-C3=1.0798        H42-C4=1.0802        H43-C5=1.0800        H44-C7=1.0937        H45-C8=1.0941        H46-C10=1.0798       
H47-C11=1.0796       H48-C12=1.0798       H49-C13=1.0797       H50-C14=1.0794       H51-C18=1.0803       H52-C19=1.0794       
H53-C20=1.0790       H54-C23=1.0786       H55-C25=1.0991       H56-O27=0.9723       H57-C32=1.0782       H58-C35=1.0791       
H59-C36=1.0796       H60-C37=1.0809       
 C  H  Rav=1.0819 sigma=0.0057  Rmin=1.0782  Rmax=1.0991    21
 C  C  Rav=1.4122 sigma=0.0534  Rmin=1.3823  Rmax=1.5482    30
 N  C  Rav=1.4202 sigma=0.0461  Rmin=1.3548  Rmax=1.4679     6
 O  H  Rav=0.9723 sigma=0.0000  Rmin=0.9723  Rmax=0.9723     1
 O  C  Rav=1.2363 sigma=0.0528  Rmin=1.1967  Rmax=1.3273     4
 Br C  Rav=1.9015 sigma=0.0014  Rmin=1.9001  Rmax=1.9029     2

 selected bond angles (degree)
 --------------------
C6-C1-C2=120.44                H39-C1-C2=120.06               H39-C1-C6=119.50               C3-C2-C1=120.15                
H40-C2-C1=119.77               H40-C2-C3=120.08               C4-C3-C2=119.73                H41-C3-C2=120.22               
H41-C3-C4=120.04               C5-C4-C3=120.14                H42-C4-C3=120.12               H42-C4-C5=119.74               
C6-C5-C4=120.42                H43-C5-C4=119.35               H43-C5-C6=120.23               C5-C6-C1=119.11                
C7-C6-C1=119.64                C7-C6-C5=121.22                C8-C7-C6=113.88                N29-C7-C6=109.57               
N29-C7-C8=103.20               H44-C7-C6=108.41               H44-C7-C8=112.22               H44-C7-N29=109.41              
C9-C8-C7=116.09                N15-C8-C7=102.19               N15-C8-C9=108.89               H45-C8-C7=111.83               
H45-C8-C9=109.47               H45-C8-N15=107.84              C10-C9-C8=117.46               C14-C9-C8=123.33               
C14-C9-C10=119.10              C11-C10-C9=120.58              H46-C10-C9=119.16              H46-C10-C11=120.25             

 selected dihedral angles (degree)
 ---------------------------------
C3-C2-C1-C6=359.96            C3-C2-C1-H39=179.11           H40-C2-C1-C6=180.10           H40-C2-C1-H39=359.25          
C4-C3-C2-C1=359.84            C4-C3-C2-H40=179.70           H41-C3-C2-C1=179.91           H41-C3-C2-H40=359.77          
C5-C4-C3-C2=359.96            C5-C4-C3-H41=179.89           H42-C4-C3-C2=179.95           H42-C4-C3-H41=359.88          
C6-C5-C4-C3=  0.43            C6-C5-C4-H42=180.44           H43-C5-C4-C3=179.64           H43-C5-C4-H42=359.65          
C5-C6-C1-C2=  0.42            C5-C6-C1-H39=181.26           C7-C6-C1-C2=178.36            C7-C6-C1-H39=359.21           
C1-C6-C5-C4=359.38            C1-C6-C5-H43=180.18           C7-C6-C5-C4=181.47            C7-C6-C5-H43=  2.27           
C8-C7-C6-C1=136.06            C8-C7-C6-C5=313.96            N29-C7-C6-C1=251.04           N29-C7-C6-C5= 68.94           
H44-C7-C6-C1= 10.39           H44-C7-C6-C5=188.29           C9-C8-C7-C6=213.04            C9-C8-C7-N29= 94.35           
C9-C8-C7-H44=336.67           N15-C8-C7-C6= 94.71           N15-C8-C7-N29=336.02          N15-C8-C7-H44=218.35          
H45-C8-C7-C6=339.61           H45-C8-C7-N29=220.93          H45-C8-C7-H44=103.25          C10-C9-C8-C7=164.51           
C10-C9-C8-N15=279.09          C10-C9-C8-H45= 36.76          C14-C9-C8-C7=340.51           C14-C9-C8-N15= 95.10          
C14-C9-C8-H45=212.77          C11-C10-C9-C8=176.56          C11-C10-C9-C14=  0.38         H46-C10-C9-C8=357.11          
H46-C10-C9-C14=180.92         
           -------------------------------------------------
          |                Final Singlepoint                |
           -------------------------------------------------

          ...................................................
          :                      SETUP                      :
          :.................................................:
          :  # basis functions                 186          :
          :  # atomic orbitals                 184          :
          :  # shells                          100          :
          :  # electrons                       190          :
          :  max. iterations                   250          :
          :  Hamiltonian                  GFN2-xTB          :
          :  restarted?                      false          :
          :  GBSA solvation                  false          :
          :  PC potential                    false          :
          :  electronic temp.          300.0000000     K    :
          :  accuracy                    1.0000000          :
          :  -> integral cutoff          0.2500000E+02      :
          :  -> integral neglect         0.1000000E-07      :
          :  -> SCF convergence          0.1000000E-05 Eh   :
          :  -> wf. convergence          0.1000000E-03 e    :
          :  Broyden damping             0.4000000          :
          ...................................................

 iter      E             dE          RMSdq      gap      omega  full diag
   1   -107.3122928 -0.107312E+03  0.209E-04    3.46       0.0  T
   2   -107.3122928 -0.298826E-09  0.167E-04    3.46      77.3  T
   3   -107.3122928 -0.159829E-09  0.134E-04    3.46      96.1  T

   *** convergence criteria satisfied after 3 iterations ***

         #    Occupation            Energy/Eh            Energy/eV
      -------------------------------------------------------------
         1        2.0000           -0.8504300             -23.1414
       ...           ...                  ...                  ...
        89        2.0000           -0.4175001             -11.3608
        90        2.0000           -0.4171060             -11.3500
        91        2.0000           -0.4164984             -11.3335
        92        2.0000           -0.4130101             -11.2386
        93        2.0000           -0.4103777             -11.1669
        94        2.0000           -0.4075942             -11.0912
        95        2.0000           -0.4071373             -11.0788 (HOMO)
        96                         -0.2798384              -7.6148 (LUMO)
        97                         -0.2709937              -7.3741
        98                         -0.2697691              -7.3408
        99                         -0.2679765              -7.2920
       100                         -0.2591395              -7.0515
       ...                                ...                  ...
       184                          0.6528195              17.7641
      -------------------------------------------------------------
                  HL-Gap            0.1272989 Eh            3.4640 eV
             Fermi-level           -0.3434879 Eh           -9.3468 eV

 SCC (total)                   0 d,  0 h,  0 min,  0.330 sec
 SCC setup                      ...        0 min,  0.019 sec (  5.720%)
 Dispersion                     ...        0 min,  0.020 sec (  5.963%)
 classical contributions        ...        0 min,  0.021 sec (  6.366%)
 integral evaluation            ...        0 min,  0.074 sec ( 22.429%)
 iterations                     ...        0 min,  0.054 sec ( 16.389%)
 molecular gradient             ...        0 min,  0.140 sec ( 42.481%)
 printout                       ...        0 min,  0.002 sec (  0.624%)

         :::::::::::::::::::::::::::::::::::::::::::::::::::::
         ::                     SUMMARY                     ::
         :::::::::::::::::::::::::::::::::::::::::::::::::::::
         :: total energy            -105.771875969580 Eh    ::
         :: gradient norm              0.000607417731 Eh/a0 ::
         :: HOMO-LUMO gap              3.463978502881 eV    ::
         ::.................................................::
         :: SCC energy              -107.312292829531 Eh    ::
         :: -> isotropic ES            0.123347338228 Eh    ::
         :: -> anisotropic ES          0.002799681178 Eh    ::
         :: -> anisotropic XC          0.037098691552 Eh    ::
         :: -> dispersion             -0.089068677309 Eh    ::
         :: repulsion energy           1.537225347828 Eh    ::
         :: add. restraining           0.000000000000 Eh    ::
         :: total charge              -0.000000000000 e     ::
         :::::::::::::::::::::::::::::::::::::::::::::::::::::

           -------------------------------------------------
          |                Property Printout                |
           -------------------------------------------------

    * Orbital Energies and Occupations

         #    Occupation            Energy/Eh            Energy/eV
      -------------------------------------------------------------
         1        2.0000           -0.8504300             -23.1414
       ...           ...                  ...                  ...
        83        2.0000           -0.4338326             -11.8052
        84        2.0000           -0.4281153             -11.6496
        85        2.0000           -0.4259128             -11.5897
        86        2.0000           -0.4228641             -11.5067
        87        2.0000           -0.4208422             -11.4517
        88        2.0000           -0.4179251             -11.3723
        89        2.0000           -0.4175001             -11.3608
        90        2.0000           -0.4171060             -11.3500
        91        2.0000           -0.4164984             -11.3335
        92        2.0000           -0.4130101             -11.2386
        93        2.0000           -0.4103777             -11.1669
        94        2.0000           -0.4075942             -11.0912
        95        2.0000           -0.4071373             -11.0788 (HOMO)
        96                         -0.2798384              -7.6148 (LUMO)
        97                         -0.2709937              -7.3741
        98                         -0.2697691              -7.3408
        99                         -0.2679765              -7.2920
       100                         -0.2591395              -7.0515
       101                         -0.2469334              -6.7194
       102                         -0.2398689              -6.5272
       103                         -0.2384809              -6.4894
       104                         -0.2373200              -6.4578
       105                         -0.2353455              -6.4041
       106                         -0.2219166              -6.0387
       ...                                ...                  ...
       184                          0.6528195              17.7641
      -------------------------------------------------------------
                  HL-Gap            0.1272989 Eh            3.4640 eV
             Fermi-level           -0.3434879 Eh           -9.3468 eV

     #   Z          covCN         q      C6AA      α(0)
     1   6 C        2.925    -0.028    28.691     8.784
     2   6 C        2.920    -0.025    28.626     8.774
     3   6 C        2.920    -0.028    28.694     8.784
     4   6 C        2.919    -0.028    28.711     8.787
     5   6 C        2.923    -0.034    28.852     8.809
     6   6 C        2.973     0.002    27.979     8.676
     7   6 C        3.827     0.037    19.927     6.352
     8   6 C        3.839     0.034    19.969     6.357
     9   6 C        2.972    -0.004    28.112     8.697
    10   6 C        2.926    -0.034    28.843     8.807
    11   6 C        2.919    -0.027    28.676     8.781
    12   6 C        2.920    -0.029    28.734     8.790
    13   6 C        2.920    -0.029    28.716     8.788
    14   6 C        2.921    -0.038    28.949     8.823
    15   7 N        2.776    -0.105    23.304     7.170
    16   6 C        2.759     0.275    22.351     7.742
    17   6 C        2.980    -0.013    28.340     8.732
    18   6 C        2.921    -0.032    28.788     8.799
    19   6 C        2.922    -0.026    28.658     8.779
    20   6 C        2.991    -0.034    28.836     8.809
    21   6 C        2.918     0.086    26.089     8.376
    22  35 Br       1.072    -0.154   189.299    22.184
    23   6 C        2.998    -0.031    28.753     8.796
    24   8 O        0.859    -0.409    21.869     6.270
    25   6 C        3.770     0.091    19.112     6.230
    26   6 C        2.687     0.350    21.063     7.511
    27   8 O        1.659    -0.362    20.118     6.055
    28   8 O        0.856    -0.380    21.281     6.185
    29   7 N        2.770    -0.120    23.598     7.215
    30   6 C        2.761     0.276    22.324     7.738
    31   6 C        2.979    -0.012    28.307     8.727
    32   6 C        2.999    -0.020    28.495     8.756
    33   6 C        2.918     0.087    26.068     8.373
    34  35 Br       1.075    -0.150   189.179    22.177
    35   6 C        2.995    -0.034    28.839     8.809
    36   6 C        2.922    -0.028    28.709     8.787
    37   6 C        2.921    -0.037    28.931     8.821
    38   8 O        0.859    -0.409    21.853     6.268
    39   1 H        0.926     0.050     2.320     2.382
    40   1 H        0.926     0.042     2.425     2.435
    41   1 H        0.926     0.038     2.474     2.460
    42   1 H        0.926     0.035     2.511     2.478
    43   1 H        0.926     0.025     2.652     2.546
    44   1 H        0.924     0.074     2.042     2.234
    45   1 H        0.924     0.082     1.962     2.190
    46   1 H        0.926     0.053     2.278     2.360
    47   1 H        0.926     0.041     2.440     2.443
    48   1 H        0.926     0.038     2.472     2.458
    49   1 H        0.926     0.041     2.440     2.443
    50   1 H        0.926     0.040     2.454     2.449
    51   1 H        0.926     0.044     2.391     2.418
    52   1 H        0.926     0.053     2.287     2.365
    53   1 H        0.926     0.062     2.180     2.309
    54   1 H        0.926     0.066     2.131     2.283
    55   1 H        0.923     0.067     2.119     2.277
    56   1 H        0.804     0.350     0.589     1.206
    57   1 H        0.926     0.078     2.002     2.212
    58   1 H        0.926     0.061     2.192     2.315
    59   1 H        0.926     0.047     2.355     2.400
    60   1 H        0.926     0.035     2.512     2.479

 Mol. C6AA /au·bohr⁶  :      59175.001350
 Mol. C8AA /au·bohr⁸  :    1674852.835743
 Mol. α(0) /au        :        386.459164


Wiberg/Mayer (AO) data.
largest (>0.10) Wiberg bond orders for each atom

 ---------------------------------------------------------------------------
     #   Z sym  total        # sym  WBO       # sym  WBO       # sym  WBO
 ---------------------------------------------------------------------------
     1   6 C    3.989 --     2 C    1.442     6 C    1.416    39 H    0.967
                             4 C    0.111
     2   6 C    3.992 --     1 C    1.442     3 C    1.441    40 H    0.970
                             5 C    0.112
     3   6 C    3.990 --     2 C    1.441     4 C    1.437    41 H    0.971
                             6 C    0.110
     4   6 C    3.992 --     5 C    1.446     3 C    1.437    42 H    0.971
                             1 C    0.111
     5   6 C    3.992 --     4 C    1.446     6 C    1.413    43 H    0.966
                             2 C    0.112
     6   6 C    3.985 --     1 C    1.416     5 C    1.413     7 C    0.985
                             3 C    0.110
     7   6 C    3.958 --     6 C    0.985     8 C    0.972    44 H    0.950
                            29 N    0.945
     8   6 C    3.956 --     9 C    0.983     7 C    0.972    45 H    0.952
                            15 N    0.942
     9   6 C    3.985 --    14 C    1.420    10 C    1.406     8 C    0.983
                            12 C    0.109
    10   6 C    3.989 --    11 C    1.451     9 C    1.406    46 H    0.967
                            13 C    0.113
    11   6 C    3.992 --    10 C    1.451    12 C    1.433    47 H    0.970
                            14 C    0.110
    12   6 C    3.991 --    13 C    1.445    11 C    1.433    48 H    0.971
                             9 C    0.109
    13   6 C    3.992 --    12 C    1.445    14 C    1.436    49 H    0.971
                            10 C    0.113
    14   6 C    3.991 --    13 C    1.436     9 C    1.420    50 H    0.964
                            11 C    0.110
    15   7 N    3.480 --    16 C    1.214    25 C    0.999     8 C    0.942
                            24 O    0.196
    16   6 C    3.946 --    24 O    1.699    15 N    1.214    17 C    0.948
    17   6 C    3.987 --    23 C    1.410    18 C    1.402    16 C    0.948
                            20 C    0.108
    18   6 C    3.990 --    19 C    1.438    17 C    1.402    51 H    0.968
                            21 C    0.101
    19   6 C    3.990 --    18 C    1.438    20 C    1.438    52 H    0.967
                            23 C    0.109
    20   6 C    3.989 --    19 C    1.438    21 C    1.409    53 H    0.967
                            17 C    0.108
    21   6 C    3.942 --    23 C    1.412    20 C    1.409    22 Br   0.987
                            18 C    0.101
    22  35 Br   1.120 --    21 C    0.987
    23   6 C    3.988 --    21 C    1.412    17 C    1.410    54 H    0.965
                            19 C    0.109
    24   8 O    2.029 --    16 C    1.699    15 N    0.196
    25   6 C    3.977 --    15 N    0.999    29 N    0.989    55 H    0.924
                            26 C    0.904
    26   6 C    3.920 --    28 O    1.783    27 O    1.159    25 C    0.904
    27   8 O    2.221 --    26 C    1.159    56 H    0.852    28 O    0.182
    28   8 O    2.070 --    26 C    1.783    27 O    0.182
    29   7 N    3.453 --    30 C    1.201    25 C    0.989     7 C    0.945
                            38 O    0.189
    30   6 C    3.946 --    38 O    1.701    29 N    1.201    31 C    0.962
    31   6 C    3.988 --    32 C    1.407    37 C    1.398    30 C    0.962
                            35 C    0.107
    32   6 C    3.986 --    33 C    1.415    31 C    1.407    57 H    0.964
                            36 C    0.108
    33   6 C    3.944 --    32 C    1.415    35 C    1.409    34 Br   0.988
    34  35 Br   1.119 --    33 C    0.988
    35   6 C    3.989 --    36 C    1.436    33 C    1.409    58 H    0.968
                            31 C    0.107
    36   6 C    3.991 --    37 C    1.441    35 C    1.436    59 H    0.968
                            32 C    0.108
    37   6 C    3.991 --    36 C    1.441    31 C    1.398    60 H    0.968
    38   8 O    2.027 --    30 C    1.701    29 N    0.189
    39   1 H    0.997 --     1 C    0.967
    40   1 H    0.998 --     2 C    0.970
    41   1 H    0.998 --     3 C    0.971
    42   1 H    0.998 --     4 C    0.971
    43   1 H    0.999 --     5 C    0.966
    44   1 H    0.994 --     7 C    0.950
    45   1 H    0.993 --     8 C    0.952
    46   1 H    0.997 --    10 C    0.967
    47   1 H    0.998 --    11 C    0.970
    48   1 H    0.998 --    12 C    0.971
    49   1 H    0.998 --    13 C    0.971
    50   1 H    0.998 --    14 C    0.964
    51   1 H    0.997 --    18 C    0.968
    52   1 H    0.997 --    19 C    0.967
    53   1 H    0.996 --    20 C    0.967
    54   1 H    0.996 --    23 C    0.965
    55   1 H    0.995 --    25 C    0.924
    56   1 H    0.877 --    27 O    0.852
    57   1 H    0.994 --    32 C    0.964
    58   1 H    0.996 --    35 C    0.968
    59   1 H    0.997 --    36 C    0.968
    60   1 H    0.998 --    37 C    0.968
 ---------------------------------------------------------------------------

Topologies differ in total number of bonds
Writing topology from bond orders to xtbtopo.mol

molecular dipole:
                 x           y           z       tot (Debye)
 q only:       -0.487      -0.138       0.756
   full:       -0.565      -0.341       1.348       3.815
molecular quadrupole (traceless):
                xx          xy          yy          xz          yz          zz
 q only:      -21.843       0.494       8.277      24.718      13.004      13.566
  q+dip:      -26.801       0.092       0.599      31.896      25.455      26.203
   full:      -25.052       0.668       1.997      32.183      23.528      23.055

           -------------------------------------------------
          |                Geometry Summary                 |
           -------------------------------------------------

      molecular mass/u    :      634.3148552
   center of mass at/Å    :        0.0067529       1.0645404      -0.3705557
  moments of inertia/u·Å² :        0.7301457E+04   0.7528722E+04   0.1038880E+05
rotational constants/cm⁻¹ :        0.2308804E-02   0.2239109E-02   0.1622673E-02

 * 59 selected distances

     #   Z          #   Z                                           value/Å
     1   6 C        2   6 C                                       1.3836129
     2   6 C        3   6 C                                       1.3840840
     3   6 C        4   6 C                                       1.3842920
     4   6 C        5   6 C                                       1.3833500
     1   6 C        6   6 C                                       1.3882046
     5   6 C        6   6 C                                       1.3897539
     7   6 C        8   6 C                                       1.5352910
     9   6 C       10   6 C                                       1.3917937
    10   6 C       11   6 C                                       1.3823418
    11   6 C       12   6 C                                       1.3853290
    12   6 C       13   6 C                                       1.3834201
     9   6 C       14   6 C                                       1.3888521
    13   6 C       14   6 C                                       1.3855895
     8   6 C       15   7 N                                       1.4638106
    15   7 N       16   6 C                                       1.3547858
    17   6 C       18   6 C                                       1.3908078
    18   6 C       19   6 C                                       1.3846015
    19   6 C       20   6 C                                       1.3839731
    20   6 C       21   6 C                                       1.3848464
    21   6 C       22  35 Br                                      1.9029197 (max)
    17   6 C       23   6 C                                       1.3868966
    21   6 C       23   6 C                                       1.3838684
    16   6 C       24   8 O                                       1.2103206
    15   7 N       25   6 C                                       1.4323815
    26   6 C       27   8 O                                       1.3272825
    26   6 C       28   8 O                                       1.1967097
     7   6 C       29   7 N                                       1.4678676
    25   6 C       29   7 N                                       1.4426610
    29   7 N       30   6 C                                       1.3597656
    31   6 C       32   6 C                                       1.3874890
    32   6 C       33   6 C                                       1.3828703
    33   6 C       34  35 Br                                      1.9001467
    33   6 C       35   6 C                                       1.3850188
    35   6 C       36   6 C                                       1.3842415
    31   6 C       37   6 C                                       1.3910942
    36   6 C       37   6 C                                       1.3840992
    30   6 C       38   8 O                                       1.2110446
     1   6 C       39   1 H                                       1.0791410
     2   6 C       40   1 H                                       1.0795347
     3   6 C       41   1 H                                       1.0797640
     4   6 C       42   1 H                                       1.0801850
     5   6 C       43   1 H                                       1.0799901
     7   6 C       44   1 H                                       1.0937462
     8   6 C       45   1 H                                       1.0940950
    10   6 C       46   1 H                                       1.0798159
    11   6 C       47   1 H                                       1.0796484
    12   6 C       48   1 H                                       1.0797762
    13   6 C       49   1 H                                       1.0796839
    14   6 C       50   1 H                                       1.0793614
    18   6 C       51   1 H                                       1.0802568
    19   6 C       52   1 H                                       1.0794258
    20   6 C       53   1 H                                       1.0789680
    23   6 C       54   1 H                                       1.0785688
    25   6 C       55   1 H                                       1.0990919
    27   8 O       56   1 H                                       0.9722725 (min)
    32   6 C       57   1 H                                       1.0782176
    35   6 C       58   1 H                                       1.0790949
    36   6 C       59   1 H                                       1.0795761
    37   6 C       60   1 H                                       1.0809417

 * 6 distinct bonds (by element types)

   Z      Z             #   av. dist./Å        max./Å        min./Å
   1 H    6 C          21     1.0818516     1.0990919     1.0782176
   6 C    6 C          25     1.3918288     1.5352910     1.3823418
   6 C    7 N           6     1.4202120     1.4678676     1.3547858
   1 H    8 O           1     0.9722725     0.9722725     0.9722725
   6 C    8 O           4     1.2363393     1.3272825     1.1967097
   6 C   35 Br          2     1.9015332     1.9029197     1.9001467


optimized geometry written to: xtbopt.xyz


           -------------------------------------------------
          | TOTAL ENERGY             -105.771875969580 Eh   |
          | GRADIENT NORM               0.000607417731 Eh/α |
          | HOMO-LUMO GAP               3.463978502881 eV   |
           -------------------------------------------------

------------------------------------------------------------------------
 * finished run on 2022/03/16 at 22:20:26.774     
------------------------------------------------------------------------
 total:
 * wall-time:     0 d,  0 h,  0 min, 15.993 sec
 *  cpu-time:     0 d,  0 h,  6 min,  8.988 sec
 * ratio c/w:    23.072 speedup
 SCF:
 * wall-time:     0 d,  0 h,  0 min,  0.482 sec
 *  cpu-time:     0 d,  0 h,  0 min,  8.921 sec
 * ratio c/w:    18.490 speedup
 ANC optimizer:
 * wall-time:     0 d,  0 h,  0 min, 15.366 sec
 *  cpu-time:     0 d,  0 h,  5 min, 55.835 sec
 * ratio c/w:    23.158 speedup

