58
 energy: -94.965997108879 gnorm: 0.000478176121 xtb: 6.3.3 (4ae9cef)
C         3.64035337402991    0.53339681424122   -0.10893615256403
O         2.90613647914699    0.92221962353144   -1.18600011201270
C         3.56925967528227    1.17428372854690   -2.40254466810797
C         5.00997525158084    0.29366300376658   -0.13365799475299
C         5.67370195358340   -0.09016574878949    1.02004578196465
C         4.99310971534441   -0.22412267931466    2.21609483200584
C         3.63234748915202    0.02339772860109    2.25267367699987
C         2.94489518852916    0.37551350670698    1.10167522660553
C         1.49648564959340    0.69549680524602    1.19460595927076
N         0.65824358992624    0.13029305302597    0.30504133665503
C        -0.71862240149943    0.61414876652334    0.30754238794075
C        -1.20105196980508    0.80830124662617    1.75981615491814
O        -1.01628416635233   -0.29853712503571    2.48702193845038
O        -1.78711836836637    1.77515743412080    2.15674976675855
N        -1.46179017554288   -0.39242340722778   -0.41668249134104
C        -2.63039729396763   -0.19165033802485   -1.07558234219539
C        -3.18455601441316    1.19194751777091   -0.91469303233851
C        -3.00150247271703    2.15422655554435   -1.89155497321907
C        -3.53950574151270    3.42090098751298   -1.73381727148478
C        -4.26768357814827    3.71229800803757   -0.59578211278089
C        -4.47489197723292    2.75320752638500    0.38147693650988
C        -3.93847983470204    1.48098109190970    0.22989922959594
O        -4.08783250774284    0.45345962585199    1.10875718416661
C        -4.75112641642047    0.71038440617322    2.32450126527710
O        -3.17775498297630   -1.04662387935972   -1.73733551042113
C        -0.67661925764401   -1.61588846261349   -0.37542542063233
C         0.75214333214292   -1.06931806576057   -0.50331565378692
C         1.72958012296167   -2.16543056292166   -0.11215441904521
C         1.51841033083361   -3.33129102766228   -1.08486639468935
C         0.07283204233310   -3.82920556061959   -1.09785263470169
C        -0.91757040080455   -2.70343853792393   -1.40453109812251
O         1.06216419850850    1.47675860354623    2.03004187594315
H         4.03133220638532    0.26665973500189   -2.80491909438812
H         4.32945557258072    1.95313886768915   -2.29307357764399
H         2.79865180064997    1.52027349350696   -3.08948550158055
H         5.57063476479228    0.40437195036577   -1.04824112107374
H         6.73649371270502   -0.27589442184748    0.97699821082172
H         5.51801760071335   -0.51096619709385    3.11363905776551
H         3.07926455086037   -0.05650924293808    3.17579004579188
H        -0.78927130169985    1.59575896116451   -0.18334870056865
H        -1.32337249436164   -0.14737187611583    3.39460063759679
H        -2.43065578032816    1.90632880260211   -2.77465657700538
H        -3.38815074258138    4.17244052256022   -2.49329899566137
H        -4.68649784354412    4.69855576425571   -0.46121119069586
H        -5.04733473488881    3.00947203645894    1.25800306208136
H        -5.79333776469650    1.00075884406475    2.15967634555859
H        -4.72535156630877   -0.22850764313724    2.87626471976188
H        -4.23283947153296    1.48892077412968    2.89232661795259
H        -0.79539414923514   -2.04757716664913    0.62984908061499
H         0.94043589136988   -0.77083083759100   -1.54484305786243
H         1.53659304627606   -2.48242479649506    0.91439817968032
H         2.76338789687694   -1.82819903520845   -0.17287802213752
H         2.18400216016728   -4.15190349070295   -0.81165182929861
H         1.79231874634955   -3.00258490142874   -2.09003609826325
H        -0.16757235222085   -4.25884402931719   -0.12298345486309
H        -0.03020205359223   -4.61868943192168   -1.84343681386644
H        -0.75582063393914   -2.31144332253065   -2.40927550393173
H        -1.94163589388957   -3.06687799724093   -1.34941868964675
