      -----------------------------------------------------------      
     |                   =====================                   |     
     |                           x T B                           |     
     |                   =====================                   |     
     |                         S. Grimme                         |     
     |          Mulliken Center for Theoretical Chemistry        |     
     |                    University of Bonn                     |     
      -----------------------------------------------------------      

   * xtb version 6.3.3 (4ae9cef) compiled by 'conda@95abc7406d43' on 2020-10-14

   xtb is free software: you can redistribute it and/or modify it under
   the terms of the GNU Lesser General Public License as published by
   the Free Software Foundation, either version 3 of the License, or
   (at your option) any later version.
   
   xtb is distributed in the hope that it will be useful,
   but WITHOUT ANY WARRANTY; without even the implied warranty of
   MERCHANTABILITY or FITNESS FOR A PARTICULAR PURPOSE.  See the
   GNU Lesser General Public License for more details.
   
   Cite this work as:
   * C. Bannwarth, E. Caldeweyher, S. Ehlert, A. Hansen, P. Pracht,
     J. Seibert, S. Spicher, S. Grimme, WIREs Comput. Mol. Sci., 2020,
     e01493. DOI: 10.1002/wcms.1493
   
   for GFN2-xTB:
   * S. Grimme, C. Bannwarth, P. Shushkov, J. Chem. Theory Comput., 2017,
     13, 1989-2009. DOI: 10.1021/acs.jctc.7b00118
   for GFN1-xTB:
   * C. Bannwarth, S. Ehlert and S. Grimme., J. Chem. Theory Comput., 2019,
     15, 1652-1671. DOI: 10.1021/acs.jctc.8b01176
   for GFN0-xTB:
   * P. Pracht, E. Caldeweyher, S. Ehlert, S. Grimme, ChemRxiv, 2019, preprint.
     DOI: 10.26434/chemrxiv.8326202.v1
   for GFN-FF:
   * S. Spicher and S. Grimme, Angew. Chem. Int. Ed., 2020, 59, 15665-15673.
     DOI: 10.1002/anie.202004239
   
   for DFT-D4:
   * E. Caldeweyher, C. Bannwarth and S. Grimme, J. Chem. Phys., 2017,
     147, 034112. DOI: 10.1063/1.4993215
   * E. Caldeweyher, S. Ehlert, A. Hansen, H. Neugebauer, S. Spicher,
     C. Bannwarth and S. Grimme, J. Chem. Phys., 2019, 150, 154122.
     DOI: 10.1063/1.5090222
   * E. Caldeweyher, J.-M. Mewes, S. Ehlert and S. Grimme, Phys. Chem. Chem. Phys.
     2020, 22, 8499-8512. DOI: 10.1039/D0CP00502A
   
   for sTDA-xTB:
   * S. Grimme and C. Bannwarth, J. Chem. Phys., 2016, 145, 054103.
     DOI: 10.1063/1.4959605
   
   in the mass-spec context:
   * V. Asgeirsson, C. Bauer and S. Grimme, Chem. Sci., 2017, 8, 4879.
     DOI: 10.1039/c7sc00601b
   * J. Koopman and S. Grimme, ACS Omega 2019, 4, 12, 15120-15133.
     DOI: 10.1021/acsomega.9b02011
   
   for metadynamics refer to:
   * S. Grimme, J. Chem. Theory Comput., 2019, 155, 2847-2862
     DOI: 10.1021/acs.jctc.9b00143
   
   with help from (in alphabetical order)
   C. Bannwarth, F. Bohle, G. Brandenburg, E. Caldeweyher, M. Checinski,
   S. Dohm, S. Ehlert, S. Ehrlich, F. März, H. Neugebauer, J. Pisarek,
   P. Pracht, P. Shushkov, and S. Spicher.
   
 * started run on 2022/03/17 at 02:20:03.495     

           -------------------------------------------------
          |                Calculation Setup                |
           -------------------------------------------------

          program call               : xtb sub_10.xyz --opt --chrg 0 --uhf 0 --gfn 2
          coordinate file            : sub_10.xyz
          omp threads                :                    64
          number of atoms            :                    28
          number of electrons        :                    84
          charge                     :                     0
          spin                       :                   0.0
          first test random number   :      0.71054853399672

   ID    Z sym.   atoms
    1   35 Br     1
    2    6 C      2-5, 7-9, 11-17
    3    7 N      6, 10
    4    1 H      18-28

           -------------------------------------------------
          |                 G F N 2 - x T B                 |
           -------------------------------------------------

        Reference                      10.1021/acs.jctc.8b01176
      * Hamiltonian:
        H0-scaling (s, p, d)           1.850000    2.230000    2.230000
        zeta-weighting                 0.500000
      * Dispersion:
        s8                             2.700000
        a1                             0.520000
        a2                             5.000000
        s9                             5.000000
      * Repulsion:
        kExp                           1.500000    1.000000
        rExp                           1.000000
      * Coulomb:
        alpha                          2.000000
        third order                    shell-resolved
        anisotropic                    true
        a3                             3.000000
        a5                             4.000000
        cn-shift                       1.200000
        cn-exp                         4.000000
        max-rad                        5.000000


          ...................................................
          :                      SETUP                      :
          :.................................................:
          :  # basis functions                  85          :
          :  # atomic orbitals                  84          :
          :  # shells                           46          :
          :  # electrons                        84          :
          :  max. iterations                   250          :
          :  Hamiltonian                  GFN2-xTB          :
          :  restarted?                      false          :
          :  GBSA solvation                  false          :
          :  PC potential                    false          :
          :  electronic temp.          300.0000000     K    :
          :  accuracy                    1.0000000          :
          :  -> integral cutoff          0.2500000E+02      :
          :  -> integral neglect         0.1000000E-07      :
          :  -> SCF convergence          0.1000000E-05 Eh   :
          :  -> wf. convergence          0.1000000E-03 e    :
          :  Broyden damping             0.4000000          :
          ...................................................

 iter      E             dE          RMSdq      gap      omega  full diag
   1    -46.1633217 -0.461633E+02  0.472E+00    2.99       0.0  T
   2    -46.2090427 -0.457210E-01  0.308E+00    2.95       1.0  T
   3    -46.1886558  0.203869E-01  0.144E+00    2.96       1.0  T
   4    -46.2198641 -0.312083E-01  0.518E-01    2.82       1.0  T
   5    -46.2229556 -0.309152E-02  0.272E-01    2.89       1.0  T
   6    -46.2231739 -0.218337E-03  0.176E-01    2.89       1.0  T
   7    -46.2233802 -0.206232E-03  0.124E-01    2.90       1.0  T
   8    -46.2234546 -0.744481E-04  0.878E-02    2.89       1.0  T
   9    -46.2234744 -0.198322E-04  0.454E-02    2.90       1.0  T
  10    -46.2235017 -0.272290E-04  0.104E-02    2.90       1.8  T
  11    -46.2235020 -0.364391E-06  0.556E-03    2.90       3.4  T
  12    -46.2235022 -0.150910E-06  0.199E-03    2.90       9.5  T
  13    -46.2235022 -0.491113E-07  0.563E-04    2.90      33.6  T
  14    -46.2235022 -0.222960E-08  0.240E-04    2.90      78.8  T

   *** convergence criteria satisfied after 14 iterations ***

         #    Occupation            Energy/Eh            Energy/eV
      -------------------------------------------------------------
         1        2.0000           -0.8261570             -22.4809
       ...           ...                  ...                  ...
        36        2.0000           -0.4318657             -11.7517
        37        2.0000           -0.4253146             -11.5734
        38        2.0000           -0.4096980             -11.1484
        39        2.0000           -0.3995040             -10.8711
        40        2.0000           -0.3860949             -10.5062
        41        2.0000           -0.3845985             -10.4655
        42        2.0000           -0.3749755             -10.2036 (HOMO)
        43                         -0.2683756              -7.3029 (LUMO)
        44                         -0.2575077              -7.0071
        45                         -0.2443039              -6.6478
        46                         -0.2106523              -5.7321
        47                         -0.1899919              -5.1699
       ...                                ...                  ...
        84                          0.6907928              18.7974
      -------------------------------------------------------------
                  HL-Gap            0.1065999 Eh            2.9007 eV
             Fermi-level           -0.3216755 Eh           -8.7532 eV

 SCC (total)                   0 d,  0 h,  0 min,  0.242 sec
 SCC setup                      ...        0 min,  0.007 sec (  3.081%)
 Dispersion                     ...        0 min,  0.018 sec (  7.552%)
 classical contributions        ...        0 min,  0.014 sec (  5.762%)
 integral evaluation            ...        0 min,  0.024 sec (  9.951%)
 iterations                     ...        0 min,  0.034 sec ( 14.248%)
 molecular gradient             ...        0 min,  0.127 sec ( 52.680%)
 printout                       ...        0 min,  0.016 sec (  6.691%)

         :::::::::::::::::::::::::::::::::::::::::::::::::::::
         ::                     SUMMARY                     ::
         :::::::::::::::::::::::::::::::::::::::::::::::::::::
         :: total energy             -45.531848398467 Eh    ::
         :: gradient norm              0.077669183155 Eh/a0 ::
         :: HOMO-LUMO gap              2.900731158470 eV    ::
         ::.................................................::
         :: SCC energy               -46.223502236176 Eh    ::
         :: -> isotropic ES            0.016043800968 Eh    ::
         :: -> anisotropic ES          0.003144923492 Eh    ::
         :: -> anisotropic XC          0.025573108401 Eh    ::
         :: -> dispersion             -0.031359392105 Eh    ::
         :: repulsion energy           0.691869922102 Eh    ::
         :: add. restraining           0.000000000000 Eh    ::
         :: total charge               0.000000000000 e     ::
         :::::::::::::::::::::::::::::::::::::::::::::::::::::

      ----------------------------------------------------------- 
     |                   =====================                   |
     |                        A N C O P T                        |
     |                   =====================                   |
     |               Approximate Normal Coordinate               |
     |                Rational Function Optimizer                |
      ----------------------------------------------------------- 

          ...................................................
          :                      SETUP                      :
          :.................................................:
          :   optimization level            normal          :
          :   max. optcycles                   200          :
          :   ANC micro-cycles                  20          :
          :   degrees of freedom                78          :
          :.................................................:
          :   RF solver                   davidson          :
          :   write xtbopt.log                true          :
          :   linear?                        false          :
          :   energy convergence         0.5000000E-05 Eh   :
          :   grad. convergence          0.1000000E-02 Eh/α :
          :   maximium RF displ.         1.0000000          :
          :   Hlow (freq-cutoff)         0.1000000E-01      :
          :   Hmax (freq-cutoff)         5.0000000          :
          :   S6 in model hess.         20.0000000          :
          ...................................................

generating ANC from model Hessian ...
Using Lindh-Hessian (1995)
 Shifting diagonal of input Hessian by    9.0184033618232705E-003
 Lowest  eigenvalues of input Hessian
    0.000000    0.000000    0.000000    0.000000    0.000000    0.000000
    0.010000    0.010401    0.010910    0.012221    0.014698    0.017946
    0.019004    0.022006    0.023625    0.024237    0.026535    0.029093
 Highest eigenvalues
    1.892813    1.933762    1.956357    2.007322    2.088157    2.095080


........................................................................
.............................. CYCLE    1 ..............................
........................................................................
   1    -46.2235022 -0.462235E+02  0.109E-04    2.90       0.0  T
   2    -46.2235022 -0.830838E-10  0.776E-05    2.90     243.5  T
   3    -46.2235022 -0.796376E-10  0.474E-05    2.90     399.0  T
     SCC iter.                  ...        0 min,  0.009 sec
     gradient                   ...        0 min,  0.123 sec
 * total energy  :   -45.5318484 Eh     change       -0.3573959E-09 Eh
   gradient norm :     0.0776693 Eh/α   predicted     0.0000000E+00 (-100.00%)
   displ. norm   :     0.2775234 α      lambda       -0.9910440E-02
   maximum displ.:     0.1563015 α      in ANC's #12, #24, #10, ...

........................................................................
.............................. CYCLE    2 ..............................
........................................................................
   1    -46.2628071 -0.462628E+02  0.190E-01    3.04       0.0  T
   2    -46.2629311 -0.124002E-03  0.135E-01    3.04       1.0  T
   3    -46.2629642 -0.331208E-04  0.694E-02    3.05       1.0  T
   4    -46.2630107 -0.465422E-04  0.188E-02    3.04       1.0  T
   5    -46.2630161 -0.539460E-05  0.699E-03    3.05       2.7  T
   6    -46.2630168 -0.705217E-06  0.329E-03    3.05       5.7  T
   7    -46.2630169 -0.697468E-07  0.153E-03    3.05      12.4  T
   8    -46.2630169 -0.144653E-07  0.787E-04    3.05      24.0  T
   9    -46.2630169 -0.266167E-08  0.588E-04    3.05      32.1  T
     SCC iter.                  ...        0 min,  0.021 sec
     gradient                   ...        0 min,  0.132 sec
 * total energy  :   -45.5386048 Eh     change       -0.6756428E-02 Eh
   gradient norm :     0.0309510 Eh/α   predicted    -0.5336867E-02 ( -21.01%)
   displ. norm   :     0.2306777 α      lambda       -0.2432732E-02
   maximum displ.:     0.1391368 α      in ANC's #12, #3, #10, ...

........................................................................
.............................. CYCLE    3 ..............................
........................................................................
   1    -46.2809824 -0.462810E+02  0.107E-01    3.10       0.0  T
   2    -46.2810521 -0.696828E-04  0.804E-02    3.10       1.0  T
   3    -46.2810830 -0.308585E-04  0.410E-02    3.11       1.0  T
   4    -46.2810877 -0.468993E-05  0.167E-02    3.10       1.1  T
   5    -46.2810910 -0.336933E-05  0.534E-03    3.10       3.5  T
   6    -46.2810914 -0.363211E-06  0.293E-03    3.10       6.5  T
   7    -46.2810914 -0.434257E-07  0.170E-03    3.10      11.1  T
   8    -46.2810915 -0.105551E-07  0.118E-03    3.10      16.1  T
   9    -46.2810915 -0.539985E-08  0.744E-04    3.10      25.4  T
  10    -46.2810915 -0.271425E-08  0.288E-04    3.10      65.5  T
     SCC iter.                  ...        0 min,  0.022 sec
     gradient                   ...        0 min,  0.125 sec
 * total energy  :   -45.5399168 Eh     change       -0.1311956E-02 Eh
   gradient norm :     0.0064415 Eh/α   predicted    -0.1281094E-02 (  -2.35%)
   displ. norm   :     0.1104309 α      lambda       -0.1812050E-03
   maximum displ.:     0.1043806 α      in ANC's #3, #12, #10, ...

........................................................................
.............................. CYCLE    4 ..............................
........................................................................
   1    -46.2807883 -0.462808E+02  0.289E-02    3.10       0.0  T
   2    -46.2807900 -0.165699E-05  0.165E-02    3.10       1.1  T
   3    -46.2807896  0.427032E-06  0.658E-03    3.10       2.9  T
   4    -46.2807901 -0.543524E-06  0.316E-03    3.10       6.0  T
   5    -46.2807903 -0.139131E-06  0.127E-03    3.10      14.9  T
   6    -46.2807903 -0.280379E-08  0.889E-04    3.10      21.3  T
   7    -46.2807903 -0.501513E-08  0.563E-04    3.10      33.5  T
     SCC iter.                  ...        0 min,  0.017 sec
     gradient                   ...        0 min,  0.108 sec
 * total energy  :   -45.5400567 Eh     change       -0.1399079E-03 Eh
   gradient norm :     0.0029099 Eh/α   predicted    -0.9170945E-04 ( -34.45%)
   displ. norm   :     0.0986493 α      lambda       -0.9861698E-04
   maximum displ.:     0.0968538 α      in ANC's #3, #10, #6, ...

........................................................................
.............................. CYCLE    5 ..............................
........................................................................
   1    -46.2796289 -0.462796E+02  0.244E-02    3.09       0.0  T
   2    -46.2796293 -0.377201E-06  0.134E-02    3.10       1.4  T
   3    -46.2796288  0.432444E-06  0.500E-03    3.10       3.8  T
   4    -46.2796294 -0.578458E-06  0.179E-03    3.10      10.5  T
   5    -46.2796294 -0.179081E-07  0.987E-04    3.09      19.1  T
   6    -46.2796294 -0.336842E-08  0.658E-04    3.10      28.7  T
     SCC iter.                  ...        0 min,  0.013 sec
     gradient                   ...        0 min,  0.137 sec
 * total energy  :   -45.5401312 Eh     change       -0.7455002E-04 Eh
   gradient norm :     0.0015042 Eh/α   predicted    -0.4979153E-04 ( -33.21%)
   displ. norm   :     0.0958649 α      lambda       -0.3772039E-04
   maximum displ.:     0.0943959 α      in ANC's #3, #6, #4, ...

........................................................................
.............................. CYCLE    6 ..............................
........................................................................
   1    -46.2794134 -0.462794E+02  0.223E-02    3.09       0.0  T
   2    -46.2794135 -0.143521E-06  0.119E-02    3.09       1.6  T
   3    -46.2794132  0.313067E-06  0.399E-03    3.09       4.7  T
   4    -46.2794136 -0.399738E-06  0.157E-03    3.09      12.1  T
   5    -46.2794136 -0.616256E-08  0.808E-04    3.09      23.4  T
   6    -46.2794136 -0.597295E-08  0.515E-04    3.09      36.7  T
     SCC iter.                  ...        0 min,  0.013 sec
     gradient                   ...        0 min,  0.160 sec
 * total energy  :   -45.5401745 Eh     change       -0.4330002E-04 Eh
   gradient norm :     0.0017338 Eh/α   predicted    -0.1893983E-04 ( -56.26%)
   displ. norm   :     0.0959010 α      lambda       -0.3066925E-06
   maximum displ.:     0.0943947 α      in ANC's #3, #6, #4, ...

........................................................................
.............................. CYCLE    7 ..............................
........................................................................
   1    -46.2790718 -0.462791E+02  0.223E-02    3.09       0.0  T
   2    -46.2790719 -0.141704E-06  0.119E-02    3.09       1.6  T
   3    -46.2790716  0.286034E-06  0.385E-03    3.09       4.9  T
   4    -46.2790720 -0.366557E-06  0.155E-03    3.09      12.2  T
   5    -46.2790720 -0.618977E-08  0.789E-04    3.09      24.0  T
   6    -46.2790720 -0.585262E-08  0.500E-04    3.09      37.8  T
     SCC iter.                  ...        0 min,  0.018 sec
     gradient                   ...        0 min,  0.140 sec
 * total energy  :   -45.5401909 Eh     change       -0.1639659E-04 Eh
   gradient norm :     0.0027536 Eh/α   predicted    -0.1557140E-06 ( -99.05%)
   displ. norm   :     0.0137338 α      lambda       -0.1096831E-04
   maximum displ.:     0.0106554 α      in ANC's #3, #10, #6, ...

........................................................................
.............................. CYCLE    8 ..............................
........................................................................
   1    -46.2796355 -0.462796E+02  0.627E-03    3.09       0.0  T
   2    -46.2796355 -0.459927E-07  0.387E-03    3.09       4.9  T
   3    -46.2796355  0.626896E-07  0.180E-03    3.09      10.5  T
   4    -46.2796356 -0.877027E-07  0.376E-04    3.09      50.2  T
   5    -46.2796356 -0.146324E-08  0.211E-04    3.09      89.7  T
     SCC iter.                  ...        0 min,  0.011 sec
     gradient                   ...        0 min,  0.133 sec
 * total energy  :   -45.5401994 Eh     change       -0.8447066E-05 Eh
   gradient norm :     0.0016448 Eh/α   predicted    -0.5486289E-05 ( -35.05%)
   displ. norm   :     0.0387904 α      lambda       -0.1067486E-04
   maximum displ.:     0.0302168 α      in ANC's #3, #10, #6, ...

........................................................................
.............................. CYCLE    9 ..............................
........................................................................
   1    -46.2804557 -0.462805E+02  0.139E-02    3.10       0.0  T
   2    -46.2804559 -0.227498E-06  0.828E-03    3.09       2.3  T
   3    -46.2804557  0.235869E-06  0.374E-03    3.09       5.1  T
   4    -46.2804560 -0.316488E-06  0.110E-03    3.09      17.2  T
   5    -46.2804560 -0.129291E-07  0.662E-04    3.09      28.6  T
   6    -46.2804560 -0.131973E-08  0.454E-04    3.09      41.6  T
     SCC iter.                  ...        0 min,  0.013 sec
     gradient                   ...        0 min,  0.161 sec
 * total energy  :   -45.5402048 Eh     change       -0.5380899E-05 Eh
   gradient norm :     0.0012453 Eh/α   predicted    -0.5341836E-05 (  -0.73%)
   displ. norm   :     0.0057429 α      lambda       -0.1890742E-05
   maximum displ.:     0.0030092 α      in ANC's #3, #6, #31, ...

........................................................................
.............................. CYCLE   10 ..............................
........................................................................
   1    -46.2800783 -0.462801E+02  0.398E-03    3.09       0.0  T
   2    -46.2800783 -0.260039E-07  0.255E-03    3.09       7.4  T
   3    -46.2800783  0.194880E-07  0.117E-03    3.09      16.1  T
   4    -46.2800783 -0.311993E-07  0.268E-04    3.09      70.6  T
   5    -46.2800783 -0.952845E-09  0.138E-04    3.09     136.7  T
     SCC iter.                  ...        0 min,  0.011 sec
     gradient                   ...        0 min,  0.110 sec
 * total energy  :   -45.5402065 Eh     change       -0.1737478E-05 Eh
   gradient norm :     0.0003247 Eh/α   predicted    -0.9517485E-06 ( -45.22%)
   displ. norm   :     0.0057962 α      lambda        0.6807147E-06
   maximum displ.:     0.0030091 α      in ANC's #3, #6, #31, ...

   *** GEOMETRY OPTIMIZATION CONVERGED AFTER 10 ITERATIONS ***

------------------------------------------------------------------------
 total energy gain   :        -0.0083581 Eh       -5.2448 kcal/mol
 total RMSD          :         0.1490290 a0        0.0789 Å
 total power (kW/mol):        -2.1944198 (step)   -8.9899 (real)
------------------------------------------------------------------------

 ANCopt (total)                0 d,  0 h,  0 min,  2.441 sec
 optimizer setup                ...        0 min,  0.000 sec (  0.003%)
 model hessian                  ...        0 min,  0.008 sec (  0.309%)
 ANC generation                 ...        0 min,  0.001 sec (  0.051%)
 coordinate transformation      ...        0 min,  0.000 sec (  0.005%)
 single point calculation       ...        0 min,  2.296 sec ( 94.072%)
 optimization log               ...        0 min,  0.001 sec (  0.035%)
 hessian update                 ...        0 min,  0.134 sec (  5.471%)
 rational function              ...        0 min,  0.001 sec (  0.027%)

================
 final structure:
================
28
 xtb: 6.3.3 (4ae9cef)
Br        5.88114126090563   -1.90534579732891    0.62513404908154
C         4.17220578497642   -1.07755649553460    0.41724113725160
C         4.10250342245857    0.29188256718643    0.30358293827350
C         2.83970420008109    0.85817789510788    0.15380185640526
C         1.68300867894836    0.04157468757994    0.12211037853290
N         0.58498252111449    0.86916254727734   -0.03499647071733
C         1.04859228336307    2.16678273821236   -0.09876948355827
C         2.39866167331137    2.20503139900609    0.01069946598742
C        -0.74616467443614    0.47878577299609   -0.11460259540095
N        -0.98994626662857   -0.82315180296124   -0.02155791883581
C        -2.23346153910844   -1.25611465017494   -0.08886269876284
C        -3.33842763885889   -0.43179351527438   -0.25490700268359
C        -4.72552650754955   -0.98116747407146   -0.34718430195509
C        -3.07956621909007    0.93315370206857   -0.35078352733484
C        -1.78390817000099    1.40317668427498   -0.28140517735355
C         1.78326253325908   -1.33935833199605    0.23882839394985
C         3.03932688403368   -1.89003578362645    0.38668944750364
H         4.98883862645883    0.90641671604676    0.32896929591562
H         0.37866863810450    2.99413036139141   -0.21934304302767
H         3.01786590935709    3.07936250840250   -0.00668727737127
H        -2.34834415136579   -2.32937980151082   -0.00333688867360
H        -4.97569745546000   -1.18766359797064   -1.38842123304794
H        -5.45004281229041   -0.26713480771356    0.03789678559991
H        -4.81024113363424   -1.91092479646775    0.21021064549924
H        -3.89649625109236    1.62942040910329   -0.47840155912397
H        -1.59717123598584    2.46125956415130   -0.35484143501717
H         0.90456440657081   -1.95961950787944    0.21445189175081
H         3.15166923255827   -2.95907219029467    0.47998832711256

 Bond Distances (Angstroems)
 ---------------------------
Br1-C2=1.9102        C2-Br1=1.9102        C2-C3=1.3759         C2-C17=1.3944        C3-C2=1.3759         C3-C4=1.3920         
C3-H18=1.0788        C4-C3=1.3920         C4-C5=1.4163         C4-C8=1.4244         C5-C4=1.4163         C5-N6=1.3839         
C5-C16=1.3895        N6-C5=1.3839         N6-C7=1.3794         N6-C9=1.3895         C7-N6=1.3794         C7-C8=1.3550         
C7-H19=1.0714        C8-C4=1.4244         C8-C7=1.3550         C8-H20=1.0715        C9-N6=1.3895         C9-N10=1.3278        
C9-C15=1.3997        N10-C9=1.3278        N10-C11=1.3185       C11-N10=1.3185       C11-C12=1.3885       C11-H21=1.0828       
C12-C11=1.3885       C12-C13=1.4948       C12-C14=1.3926       C13-C12=1.4948       C13-H22=1.0906       C13-H23=1.0877       
C13-H24=1.0873       C14-C12=1.3926       C14-C15=1.3800       C14-H25=1.0809       C15-C9=1.3997        C15-C14=1.3800       
C15-H26=1.0769       C16-C5=1.3895        C16-C17=1.3794       C16-H27=1.0758       C17-C2=1.3944        C17-C16=1.3794       
C17-H28=1.0790       H18-C3=1.0788        H19-C7=1.0714        H20-C8=1.0715        H21-C11=1.0828       H22-C13=1.0906       
H23-C13=1.0877       H24-C13=1.0873       H25-C14=1.0809       H26-C15=1.0769       H27-C16=1.0758       H28-C17=1.0790       
 C  H  Rav=1.0803 sigma=0.0061  Rmin=1.0714  Rmax=1.0906    11
 C  C  Rav=1.3987 sigma=0.0324  Rmin=1.3550  Rmax=1.4948    13
 N  C  Rav=1.3598 sigma=0.0303  Rmin=1.3185  Rmax=1.3895     5
 Br C  Rav=1.9102 sigma=0.0000  Rmin=1.9102  Rmax=1.9102     1

 selected bond angles (degree)
 --------------------
C3-C2-Br1=119.05               C17-C2-Br1=118.47              C17-C2-C3=122.48               C4-C3-C2=117.37                
H18-C3-C2=121.56               H18-C3-C4=121.07               C5-C4-C3=120.58                C8-C4-C3=132.56                
C8-C4-C5=106.86                N6-C5-C4=107.80                C16-C5-C4=120.81               C16-C5-N6=131.38               
C7-N6-C5=107.53                C9-N6-C5=126.77                C9-N6-C7=125.71                C8-C7-N6=110.96                
H19-C7-N6=121.43               H19-C7-C8=127.61               C7-C8-C4=106.85                H20-C8-C4=126.46               
H20-C8-C7=126.69               N10-C9-N6=116.57               C15-C9-N6=122.11               C15-C9-N10=121.32              
C11-N10-C9=119.44              

 selected dihedral angles (degree)
 ---------------------------------
C4-C3-C2-Br1=180.01           C4-C3-C2-C17=  0.00           H18-C3-C2-Br1=  0.00          H18-C3-C2-C17=180.01          
C5-C4-C3-C2=  0.00            C5-C4-C3-H18=180.01           C8-C4-C3-C2=180.02            C8-C4-C3-H18=  0.00           
N6-C5-C4-C3=180.02            N6-C5-C4-C8=  0.00            C16-C5-C4-C3=359.97           C16-C5-C4-C8=179.97           
C7-N6-C5-C4=  0.00            C7-N6-C5-C16=180.04           C9-N6-C5-C4=180.02            C9-N6-C5-C16=  0.08           
C8-C7-N6-C5=  0.00            C8-C7-N6-C9=179.97            H19-C7-N6-C5=180.05           H19-C7-N6-C9=  0.00           
C7-C8-C4-C3=179.99            C7-C8-C4-C5=  0.00            H20-C8-C4-C3=  0.00           H20-C8-C4-C5=179.99           
C4-C8-C7-N6=  0.00            C4-C8-C7-H19=179.96           H20-C8-C7-N6=180.00           H20-C8-C7-H19=359.97          
N10-C9-N6-C5=  0.47           N10-C9-N6-C7=180.51           C15-C9-N6-C5=180.34           C15-C9-N6-C7=  0.38           
C11-N10-C9-N6=179.95          C11-N10-C9-C15=  0.08         
           -------------------------------------------------
          |                Final Singlepoint                |
           -------------------------------------------------

          ...................................................
          :                      SETUP                      :
          :.................................................:
          :  # basis functions                  85          :
          :  # atomic orbitals                  84          :
          :  # shells                           46          :
          :  # electrons                        84          :
          :  max. iterations                   250          :
          :  Hamiltonian                  GFN2-xTB          :
          :  restarted?                      false          :
          :  GBSA solvation                  false          :
          :  PC potential                    false          :
          :  electronic temp.          300.0000000     K    :
          :  accuracy                    1.0000000          :
          :  -> integral cutoff          0.2500000E+02      :
          :  -> integral neglect         0.1000000E-07      :
          :  -> SCF convergence          0.1000000E-05 Eh   :
          :  -> wf. convergence          0.1000000E-03 e    :
          :  Broyden damping             0.4000000          :
          ...................................................

 iter      E             dE          RMSdq      gap      omega  full diag
   1    -46.2800783 -0.462801E+02  0.103E-04    3.09       0.0  T
   2    -46.2800783 -0.246061E-10  0.833E-05    3.09     226.9  T
   3    -46.2800783 -0.118874E-10  0.703E-05    3.09     268.8  T

   *** convergence criteria satisfied after 3 iterations ***

         #    Occupation            Energy/Eh            Energy/eV
      -------------------------------------------------------------
         1        2.0000           -0.8249148             -22.4471
       ...           ...                  ...                  ...
        36        2.0000           -0.4329121             -11.7801
        37        2.0000           -0.4279912             -11.6462
        38        2.0000           -0.4081751             -11.1070
        39        2.0000           -0.3986206             -10.8470
        40        2.0000           -0.3867718             -10.5246
        41        2.0000           -0.3812093             -10.3732
        42        2.0000           -0.3765098             -10.2454 (HOMO)
        43                         -0.2628404              -7.1523 (LUMO)
        44                         -0.2538822              -6.9085
        45                         -0.2406074              -6.5473
        46                         -0.2095834              -5.7031
        47                         -0.1927759              -5.2457
       ...                                ...                  ...
        84                          0.7153550              19.4658
      -------------------------------------------------------------
                  HL-Gap            0.1136694 Eh            3.0931 eV
             Fermi-level           -0.3196751 Eh           -8.6988 eV

 SCC (total)                   0 d,  0 h,  0 min,  0.179 sec
 SCC setup                      ...        0 min,  0.000 sec (  0.056%)
 Dispersion                     ...        0 min,  0.000 sec (  0.169%)
 classical contributions        ...        0 min,  0.000 sec (  0.029%)
 integral evaluation            ...        0 min,  0.022 sec ( 12.398%)
 iterations                     ...        0 min,  0.007 sec (  4.109%)
 molecular gradient             ...        0 min,  0.149 sec ( 83.049%)
 printout                       ...        0 min,  0.000 sec (  0.163%)

         :::::::::::::::::::::::::::::::::::::::::::::::::::::
         ::                     SUMMARY                     ::
         :::::::::::::::::::::::::::::::::::::::::::::::::::::
         :: total energy             -45.540206502309 Eh    ::
         :: gradient norm              0.000325040150 Eh/a0 ::
         :: HOMO-LUMO gap              3.093101904337 eV    ::
         ::.................................................::
         :: SCC energy               -46.280078335005 Eh    ::
         :: -> isotropic ES            0.016199641611 Eh    ::
         :: -> anisotropic ES          0.002311772600 Eh    ::
         :: -> anisotropic XC          0.024330381759 Eh    ::
         :: -> dispersion             -0.031836774944 Eh    ::
         :: repulsion energy           0.740080544713 Eh    ::
         :: add. restraining           0.000000000000 Eh    ::
         :: total charge              -0.000000000000 e     ::
         :::::::::::::::::::::::::::::::::::::::::::::::::::::

           -------------------------------------------------
          |                Property Printout                |
           -------------------------------------------------

    * Orbital Energies and Occupations

         #    Occupation            Energy/Eh            Energy/eV
      -------------------------------------------------------------
         1        2.0000           -0.8249148             -22.4471
       ...           ...                  ...                  ...
        30        2.0000           -0.4785891             -13.0231
        31        2.0000           -0.4712107             -12.8223
        32        2.0000           -0.4574588             -12.4481
        33        2.0000           -0.4479737             -12.1900
        34        2.0000           -0.4444751             -12.0948
        35        2.0000           -0.4403803             -11.9834
        36        2.0000           -0.4329121             -11.7801
        37        2.0000           -0.4279912             -11.6462
        38        2.0000           -0.4081751             -11.1070
        39        2.0000           -0.3986206             -10.8470
        40        2.0000           -0.3867718             -10.5246
        41        2.0000           -0.3812093             -10.3732
        42        2.0000           -0.3765098             -10.2454 (HOMO)
        43                         -0.2628404              -7.1523 (LUMO)
        44                         -0.2538822              -6.9085
        45                         -0.2406074              -6.5473
        46                         -0.2095834              -5.7031
        47                         -0.1927759              -5.2457
        48                         -0.1699209              -4.6238
        49                         -0.1129234              -3.0728
        50                         -0.0878306              -2.3900
        51                          0.0056907               0.1549
        52                          0.0497849               1.3547
        53                          0.0529783               1.4416
       ...                                ...                  ...
        84                          0.7153550              19.4658
      -------------------------------------------------------------
                  HL-Gap            0.1136694 Eh            3.0931 eV
             Fermi-level           -0.3196751 Eh           -8.6988 eV

     #   Z          covCN         q      C6AA      α(0)
     1  35 Br       1.071    -0.184   190.162    22.234
     2   6 C        2.918     0.075    26.318     8.413
     3   6 C        2.987    -0.043    29.061     8.843
     4   6 C        3.121    -0.007    28.003     8.667
     5   6 C        3.085     0.043    26.948     8.510
     6   7 N        2.824    -0.010    21.455     6.879
     7   6 C        3.040    -0.004    28.074     8.690
     8   6 C        2.998    -0.065    29.615     8.927
     9   6 C        2.895     0.142    24.914     8.184
    10   7 N        1.845    -0.246    27.259     7.738
    11   6 C        2.910     0.052    26.837     8.495
    12   6 C        2.960     0.002    27.988     8.677
    13   6 C        3.757    -0.111    22.666     6.788
    14   6 C        2.935    -0.022    28.554     8.764
    15   6 C        2.914    -0.059    29.468     8.902
    16   6 C        2.912    -0.045    29.113     8.848
    17   6 C        2.995    -0.042    29.026     8.838
    18   1 H        0.926     0.051     2.311     2.377
    19   1 H        0.926     0.040     2.443     2.444
    20   1 H        0.926     0.041     2.435     2.440
    21   1 H        0.925     0.042     2.429     2.437
    22   1 H        0.924     0.053     2.279     2.361
    23   1 H        0.925     0.048     2.343     2.393
    24   1 H        0.925     0.048     2.343     2.394
    25   1 H        0.926     0.039     2.468     2.457
    26   1 H        0.926     0.039     2.464     2.455
    27   1 H        0.926     0.071     2.071     2.250
    28   1 H        0.926     0.052     2.297     2.370

 Mol. C6AA /au·bohr⁶  :      12984.149715
 Mol. C8AA /au·bohr⁸  :     371547.127484
 Mol. α(0) /au        :        182.773681


Wiberg/Mayer (AO) data.
largest (>0.10) Wiberg bond orders for each atom

 ---------------------------------------------------------------------------
     #   Z sym  total        # sym  WBO       # sym  WBO       # sym  WBO
 ---------------------------------------------------------------------------
     1  35 Br   1.088 --     2 C    0.970
     2   6 C    3.928 --     3 C    1.463    17 C    1.358     1 Br   0.970
     3   6 C    3.988 --     2 C    1.463     4 C    1.337    18 H    0.967
                            16 C    0.108
     4   6 C    3.982 --     3 C    1.337     5 C    1.257     8 C    1.201
     5   6 C    3.957 --    16 C    1.355     4 C    1.257     6 N    1.124
     6   7 N    3.634 --     7 C    1.156     5 C    1.124     9 C    1.088
     7   6 C    3.952 --     8 C    1.640     6 N    1.156    19 H    0.964
     8   6 C    3.967 --     7 C    1.640     4 C    1.201    20 H    0.972
     9   6 C    3.968 --    10 N    1.369    15 C    1.334     6 N    1.088
    10   7 N    3.067 --    11 C    1.440     9 C    1.369
    11   6 C    3.981 --    10 N    1.440    12 C    1.399    21 H    0.962
                            15 C    0.109
    12   6 C    3.972 --    11 C    1.399    14 C    1.389    13 C    1.028
    13   6 C    3.995 --    12 C    1.028    24 H    0.981    23 H    0.981
                            22 H    0.965
    14   6 C    3.990 --    15 C    1.477    12 C    1.389    25 H    0.968
    15   6 C    3.985 --    14 C    1.477     9 C    1.334    26 H    0.963
                            11 C    0.109
    16   6 C    3.987 --    17 C    1.478     5 C    1.355    27 H    0.957
                             3 C    0.108
    17   6 C    3.985 --    16 C    1.478     2 C    1.358    28 H    0.969
    18   1 H    0.997 --     3 C    0.967
    19   1 H    0.997 --     7 C    0.964
    20   1 H    0.997 --     8 C    0.972
    21   1 H    0.998 --    11 C    0.962
    22   1 H    0.995 --    13 C    0.965
    23   1 H    0.997 --    13 C    0.981
    24   1 H    0.997 --    13 C    0.981
    25   1 H    0.998 --    14 C    0.968
    26   1 H    0.998 --    15 C    0.963
    27   1 H    0.994 --    16 C    0.957
    28   1 H    0.997 --    17 C    0.969
 ---------------------------------------------------------------------------

Topologies differ in total number of bonds
Writing topology from bond orders to xtbtopo.mol

molecular dipole:
                 x           y           z       tot (Debye)
 q only:       -1.898       0.632      -0.226
   full:       -2.771       1.151      -0.351       7.677
molecular quadrupole (traceless):
                xx          xy          yy          xz          yz          zz
 q only:      -10.193      10.440       7.321      -1.630       0.540       2.873
  q+dip:      -17.167      16.659      14.223      -2.533       0.511       2.944
   full:      -18.750      16.334      11.205      -3.044       1.118       7.545

           -------------------------------------------------
          |                Geometry Summary                 |
           -------------------------------------------------

      molecular mass/u    :      287.1545850
   center of mass at/Å    :        1.7952310      -0.4676695       0.1710845
  moments of inertia/u·Å² :        0.4532622E+03   0.3554675E+04   0.4004797E+04
rotational constants/cm⁻¹ :        0.3719179E-01   0.4742384E-02   0.4209360E-02

 * 29 selected distances

     #   Z          #   Z                                           value/Å
     1  35 Br       2   6 C                                       1.9102134 (max)
     2   6 C        3   6 C                                       1.3759142
     3   6 C        4   6 C                                       1.3920441
     4   6 C        5   6 C                                       1.4162590
     5   6 C        6   7 N                                       1.3839240
     6   7 N        7   6 C                                       1.3794271
     4   6 C        8   6 C                                       1.4244336
     7   6 C        8   6 C                                       1.3550401
     6   7 N        9   6 C                                       1.3894906
     9   6 C       10   7 N                                       1.3278284
    10   7 N       11   6 C                                       1.3184525
    11   6 C       12   6 C                                       1.3885338
    12   6 C       14   6 C                                       1.3925812
     9   6 C       15   6 C                                       1.3997261
    14   6 C       15   6 C                                       1.3800235
     5   6 C       16   6 C                                       1.3894783
     2   6 C       17   6 C                                       1.3944428
    16   6 C       17   6 C                                       1.3794224
     3   6 C       18   1 H                                       1.0788358
     7   6 C       19   1 H                                       1.0713728 (min)
     8   6 C       20   1 H                                       1.0715274
    11   6 C       21   1 H                                       1.0827792
    13   6 C       22   1 H                                       1.0905964
    13   6 C       23   1 H                                       1.0876828
    13   6 C       24   1 H                                       1.0873428
    14   6 C       25   1 H                                       1.0809479
    15   6 C       26   1 H                                       1.0769415
    16   6 C       27   1 H                                       1.0758385
    17   6 C       28   1 H                                       1.0789645

 * 4 distinct bonds (by element types)

   Z      Z             #   av. dist./Å        max./Å        min./Å
   1 H    6 C          11     1.0802572     1.0905964     1.0713728
   6 C    6 C          12     1.3906583     1.4244336     1.3550401
   6 C    7 N           5     1.3598245     1.3894906     1.3184525
   6 C   35 Br          1     1.9102134     1.9102134     1.9102134


optimized geometry written to: xtbopt.xyz


           -------------------------------------------------
          | TOTAL ENERGY              -45.540206502309 Eh   |
          | GRADIENT NORM               0.000325040150 Eh/α |
          | HOMO-LUMO GAP               3.093101904337 eV   |
           -------------------------------------------------

------------------------------------------------------------------------
 * finished run on 2022/03/17 at 02:20:06.495     
------------------------------------------------------------------------
 total:
 * wall-time:     0 d,  0 h,  0 min,  3.000 sec
 *  cpu-time:     0 d,  0 h,  1 min, 33.873 sec
 * ratio c/w:    31.289 speedup
 SCF:
 * wall-time:     0 d,  0 h,  0 min,  0.242 sec
 *  cpu-time:     0 d,  0 h,  0 min,  7.116 sec
 * ratio c/w:    29.438 speedup
 ANC optimizer:
 * wall-time:     0 d,  0 h,  0 min,  2.621 sec
 *  cpu-time:     0 d,  0 h,  1 min, 22.616 sec
 * ratio c/w:    31.519 speedup

