28
 energy: -45.540206502309 gnorm: 0.000325040150 xtb: 6.3.3 (4ae9cef)
Br        5.88114126090563   -1.90534579732891    0.62513404908154
C         4.17220578497642   -1.07755649553460    0.41724113725160
C         4.10250342245857    0.29188256718643    0.30358293827350
C         2.83970420008109    0.85817789510788    0.15380185640526
C         1.68300867894836    0.04157468757994    0.12211037853290
N         0.58498252111449    0.86916254727734   -0.03499647071733
C         1.04859228336307    2.16678273821236   -0.09876948355827
C         2.39866167331137    2.20503139900609    0.01069946598742
C        -0.74616467443614    0.47878577299609   -0.11460259540095
N        -0.98994626662857   -0.82315180296124   -0.02155791883581
C        -2.23346153910844   -1.25611465017494   -0.08886269876284
C        -3.33842763885889   -0.43179351527438   -0.25490700268359
C        -4.72552650754955   -0.98116747407146   -0.34718430195509
C        -3.07956621909007    0.93315370206857   -0.35078352733484
C        -1.78390817000099    1.40317668427498   -0.28140517735355
C         1.78326253325908   -1.33935833199605    0.23882839394985
C         3.03932688403368   -1.89003578362645    0.38668944750364
H         4.98883862645883    0.90641671604676    0.32896929591562
H         0.37866863810450    2.99413036139141   -0.21934304302767
H         3.01786590935709    3.07936250840250   -0.00668727737127
H        -2.34834415136579   -2.32937980151082   -0.00333688867360
H        -4.97569745546000   -1.18766359797064   -1.38842123304794
H        -5.45004281229041   -0.26713480771356    0.03789678559991
H        -4.81024113363424   -1.91092479646775    0.21021064549924
H        -3.89649625109236    1.62942040910329   -0.47840155912397
H        -1.59717123598584    2.46125956415130   -0.35484143501717
H         0.90456440657081   -1.95961950787944    0.21445189175081
H         3.15166923255827   -2.95907219029467    0.47998832711256
