28
 energy: -45.531848398824 gnorm: 0.077669312424 xtb: 6.3.3 (4ae9cef)
Br        5.98903200000000   -1.84616300000000    0.62956800000000
C         4.27023900000000   -1.08204400000000    0.42631200000000
C         4.14475600000000    0.30230700000000    0.30646400000000
C         2.86249900000000    0.87073300000000    0.15495800000000
C         1.73185600000000    0.04139600000000    0.12658200000000
N         0.60300700000000    0.86241000000000   -0.03242100000000
C         1.04805300000000    2.17459600000000   -0.09849000000000
C         2.41650000000000    2.20393700000000    0.01268500000000
C        -0.77178800000000    0.43511800000000   -0.11309500000000
N        -1.04225500000000   -0.89109600000000   -0.02832500000000
C        -2.33249000000000   -1.29036100000000   -0.10206200000000
C        -3.40672000000000   -0.42738300000000   -0.24944200000000
C        -4.80625200000000   -0.94047000000000   -0.35892300000000
C        -3.11794600000000    0.93026200000000   -0.35113100000000
C        -1.79381000000000    1.37031800000000   -0.27778200000000
C         1.87294200000000   -1.35722600000000    0.24879300000000
C         3.15237200000000   -1.90343400000000    0.39831300000000
H         5.02100500000000    0.94320000000000    0.32868000000000
H         0.36828600000000    3.00357300000000   -0.21928400000000
H         3.03163000000000    3.09428000000000   -0.00616500000000
H        -2.47715800000000   -2.36577600000000   -0.03637200000000
H        -5.04818900000000   -1.15165200000000   -1.40507200000000
H        -5.52229400000000   -0.20775500000000    0.02792400000000
H        -4.93320500000000   -1.85793500000000    0.22539500000000
H        -3.91634200000000    1.65607200000000   -0.48723900000000
H        -1.61275800000000    2.43462200000000   -0.35614300000000
H         1.01337800000000   -2.01987500000000    0.22966600000000
H         3.25565400000000   -2.98165500000000    0.49211000000000
28
 energy: -45.538604826461 gnorm: 0.030950983568 xtb: 6.3.3 (4ae9cef)
Br        5.96378983922376   -1.83439109369289    0.62650655705936
C         4.23885866631106   -1.06253858698114    0.42212230883277
C         4.12851662065427    0.30803903283885    0.30463877410481
C         2.85172082403072    0.85737426336568    0.15520997197692
C         1.71207424724136    0.02311568834454    0.12641084464601
N         0.59211272613384    0.83705864809607   -0.03106336312099
C         1.04173348322996    2.14369353700539   -0.09639333085835
C         2.39733376228598    2.19242800520384    0.01226920696154
C        -0.76218495166455    0.43510220713035   -0.11251960927297
N        -1.02612889452711   -0.87175103584317   -0.02870301152669
C        -2.29421236941515   -1.27203716723616   -0.10152192891613
C        -3.38097952082949   -0.42309218196685   -0.25634251602601
C        -4.78419616212176   -0.93925652787706   -0.35254615248969
C        -3.09563266430145    0.93411964957353   -0.35029483046041
C        -1.78275341841052    1.37262077340385   -0.27727027364410
C         1.84726215143706   -1.35828159378993    0.24663380646177
C         3.11842554470059   -1.88906144100371    0.39429081518949
H         5.00336541666464    0.94333000192772    0.32715848926741
H         0.36610451804767    2.96801038816488   -0.21672725816866
H         3.00325160891293    3.08078898261682   -0.00734812924388
H        -2.43215264430514   -2.34405029480496   -0.02781176789486
H        -5.03491423021458   -1.15136519172452   -1.39256545023211
H        -5.49873728212846   -0.20523964681657    0.02140532753522
H        -4.90776693335538   -1.85913059000746    0.21873227461276
H        -3.89434290192350    1.65306909605809   -0.48020596734175
H        -1.59352813341078    2.43143885966021   -0.35398042288664
H         0.98873346738129   -2.00965599636757    0.22679206872155
H         3.23424923035275   -2.96033878527782    0.48862756671360
28
 energy: -45.539916782251 gnorm: 0.006441530858 xtb: 6.3.3 (4ae9cef)
Br        5.93392334542148   -1.84746459642435    0.62507132961832
C         4.20971685625028   -1.05596483865234    0.41924335843011
C         4.11266223584253    0.31026913776286    0.30333688611572
C         2.84048736470901    0.85223627520859    0.15478108635346
C         1.69456529464495    0.01773493913332    0.12520228884550
N         0.58386932016421    0.83006744168489   -0.03197498098584
C         1.03369474658810    2.13331869316764   -0.09650112177296
C         2.38218836037731    2.19104333303800    0.01132941175109
C        -0.75122357375484    0.44209636601163   -0.11445025275630
N        -1.01087054049233   -0.85551393558175   -0.02852097324975
C        -2.26339653090329   -1.26430813140627   -0.09795896037154
C        -3.35866200621880   -0.42431030481605   -0.25781708712370
C        -4.75935742997428   -0.94411533240418   -0.34957033651953
C        -3.07872619239029    0.93566495826165   -0.34924777076979
C        -1.77448204460445    1.38069861424224   -0.27894751890190
C         1.82177061709805   -1.35833967423226    0.24441958664195
C         3.08839054467356   -1.88547277181907    0.39148250682991
H         4.98732485052650    0.94173522203041    0.32614658997897
H         0.35858821094035    2.95525528687780   -0.21658312149205
H         2.98596532246682    3.07574440218836   -0.00791673749268
H        -2.39627402607886   -2.33593838017110   -0.02054819810515
H        -5.01194838984024   -1.15603307312841   -1.38891382496824
H        -5.46819002653318   -0.20700541478783    0.02193518654312
H        -4.87350665000610   -1.86412988156714    0.21812829477608
H        -3.88127759710260    1.64807147900653   -0.47493886081284
H        -1.57925268269369    2.43685072086168   -0.35129151467318
H         0.95838748518091   -1.99944869730319    0.22323175877580
H         3.21563513570885   -2.95274283718165    0.48637697533545
28
 energy: -45.540056690152 gnorm: 0.002909852350 xtb: 6.3.3 (4ae9cef)
Br        5.91915783130617   -1.86220672840270    0.62508006389194
C         4.19789125045057   -1.06083362839398    0.41864040442425
C         4.10870306259984    0.30695885453052    0.30333337576608
C         2.83880086731113    0.85387931240038    0.15437588191235
C         1.69030281524808    0.02326093232981    0.12396637141540
N         0.58368295487487    0.83891338567619   -0.03289879112386
C         1.03516520745721    2.14094003202003   -0.09745201653849
C         2.38368751922012    2.19521827150664    0.01102752507822
C        -0.74806482996718    0.45067760303420   -0.11456881078465
N        -1.00410539289120   -0.84863337510037   -0.02765306792235
C        -2.25382735505721   -1.26476453355865   -0.09724291691963
C        -3.35117195830065   -0.42773370256335   -0.25791235050165
C        -4.74887636947615   -0.95157374008019   -0.34873440351896
C        -3.07658169455430    0.93405514248203   -0.34949125514940
C        -1.77548362305529    1.38649889019429   -0.27931037828241
C         1.81009497808510   -1.35493043142016    0.24275807297111
C         3.07463785342258   -1.88741750551944    0.39030859805642
H         4.98551674011637    0.93515556998088    0.32680089192109
H         0.36044302605510    2.96356021304744   -0.21749482818018
H         2.99087083631758    3.07735857009025   -0.00733990722437
H        -2.38350632352388   -2.33682849734771   -0.01637172381513
H        -5.00064640989101   -1.16355155068547   -1.38842121196552
H        -5.45825824213281   -0.21623244150283    0.02453356202267
H        -4.85727212039746   -1.87230590721009    0.21880608805174
H        -3.88320659695699    1.64243280345180   -0.47415938463786
H        -1.58126553626471    2.44276761840798   -0.35109952482501
H         0.94161695446424   -1.99014662774271    0.22074218061862
H         3.20169655553984   -2.95451952962475    0.48528155525958
28
 energy: -45.540131240169 gnorm: 0.001504217687 xtb: 6.3.3 (4ae9cef)
Br        5.90718991686701   -1.87567360789896    0.62530037842340
C         4.18893650094493   -1.06620392519422    0.41825677515848
C         4.10673872640362    0.30279667337440    0.30352819273534
C         2.83869426520468    0.85569329833855    0.15414190499686
C         1.68811826981185    0.02935998034857    0.12305432130862
N         0.58431055378089    0.84850618890910   -0.03404027252983
C         1.03816888017174    2.14955203042880   -0.09817529318462
C         2.38742216815045    2.19911265623755    0.01088774660862
C        -0.74644777081400    0.45896096569248   -0.11527905384458
N        -0.99930564731077   -0.84212399368246   -0.02656143241200
C        -2.24736790117915   -1.26457840037804   -0.09508534307388
C        -3.34620432497043   -0.43045993627342   -0.25695756597826
C        -4.74109954816576   -0.95926835075876   -0.34822777698455
C        -3.07664397056996    0.93254770302606   -0.34952026803132
C        -1.77790656972485    1.39154992147147   -0.27988575705067
C         1.80124047778948   -1.35077529552286    0.24142534813859
C         3.06354928900139   -1.88907676675604    0.38931510253471
H         4.98610494381534    0.92733022217268    0.32770584245108
H         0.36374216560982    2.97293695123742   -0.21846760299880
H         2.99875814854341    3.07873580087880   -0.00684645719084
H        -2.37324784654516   -2.33710005151276   -0.01345750914981
H        -4.99202739595807   -1.17106108116313   -1.38826077689412
H        -5.45315731084992   -0.22763981413061    0.02719199240876
H        -4.84456599692152   -1.88131368015646    0.21843651590466
H        -3.88727487464117    1.63677969878438   -0.47444966752985
H        -1.58473166905441    2.44820637710842   -0.35101830102906
H         0.92833561127627   -1.98027530210619    0.21837578890582
H         3.18867290933426   -2.95651926247474    0.48411716830725
28
 energy: -45.540174540193 gnorm: 0.001733767398 xtb: 6.3.3 (4ae9cef)
Br        5.89637540975431   -1.88823698551225    0.62548233000242
C         4.18144443604844   -1.07092406588576    0.41796803441144
C         4.10532082318937    0.29839636814720    0.30373503565311
C         2.83915915212560    0.85704261405104    0.15389901268536
C         1.68650554636905    0.03486030092993    0.12224390789956
N         0.58480516523610    0.85735887715046   -0.03471013031146
C         1.04224659791081    2.15727901844295   -0.09884607697206
C         2.39198254183864    2.20205003027314    0.01071973954375
C        -0.74594988387017    0.46706879621929   -0.11476199716832
N        -0.99533357552355   -0.83476383709622   -0.02502920267563
C        -2.24153064487320   -1.26243013798415   -0.09343933478915
C        -3.34248431225999   -0.43198950118665   -0.25633129299460
C        -4.73470947550767   -0.96759807309328   -0.34781869049903
C        -3.07766193218847    0.93194045415969   -0.34973723522925
C        -1.78079271979264    1.39623077280362   -0.28000184837933
C         1.79376330634358   -1.34614382743290    0.23999807266001
C         3.05341118859278   -1.88978492640736    0.38819928024402
H         4.98748791852472    0.91882671051916    0.32861530539426
H         0.36872877681445    2.98163569214752   -0.21940193250488
H         3.00734711572141    3.07915731479896   -0.00643319019276
H        -2.36289349815014   -2.33520254422674   -0.00944218997174
H        -4.98517937770071   -1.17844519339951   -1.38816360836705
H        -5.45115069688138   -0.24161707986919    0.03036795150710
H        -4.83247980604985   -1.89193358632843    0.21652712577350
H        -3.89184972340195    1.63206209010534   -0.47547641328901
H        -1.58881544015882    2.45326596967903   -0.35155453455114
H         0.91739587635012   -1.97033618092568    0.21621128789450
H         3.17485923153913   -2.95777007007918    0.48268459422639
28
 energy: -45.540190936787 gnorm: 0.002753637523 xtb: 6.3.3 (4ae9cef)
Br        5.88557393200976   -1.90081363732939    0.62550075315526
C         4.17395615502904   -1.07564838298935    0.41762841019393
C         4.10390904902530    0.29398975869222    0.30386411936029
C         2.83962522346899    0.85839052613261    0.15363882325954
C         1.68488738250274    0.04036552852086    0.12149471280294
N         0.58529301415946    0.86621791609746   -0.03530181201256
C         1.04632138824641    2.16500884293736   -0.09948259977846
C         2.39654499311419    2.20498532781748    0.01052546402621
C        -0.74546056792526    0.47518477682927   -0.11414535059810
N        -0.99136953141245   -0.82739592540559   -0.02340256469818
C        -2.23569749845214   -1.26027802143037   -0.09174582553253
C        -3.33876503346324   -0.43351939360529   -0.25570671204254
C        -4.72831006320526   -0.97593557624826   -0.34750585872369
C        -3.07868232308524    0.93133535716077   -0.34992765640971
C        -1.78368549952285    1.40091794209931   -0.28004046968016
C         1.78627770847859   -1.34150472432999    0.23866620847357
C         3.04326915248074   -1.89048990636412    0.38712400361981
H         4.98888336101299    0.91031084166765    0.32937167727710
H         0.37371258769243    2.99033745038862   -0.22030138159077
H         3.01594280537278    3.07957235874527   -0.00610131017590
H        -2.35254186157563   -2.33330199366522   -0.00538967087405
H        -4.97825418045165   -1.18582452718843   -1.38818116756666
H        -5.44916414990355   -0.25561164200428    0.03341084905836
H        -4.82041529540654   -1.90257054933523    0.21449988597751
H        -3.89642392920886    1.62734411966891   -0.47650794913864
H        -1.59290604974050    2.45833217154505   -0.35200977759074
H         0.90644200015660   -1.96038398403573    0.21421057158695
H         3.16103923060310   -2.95901565437153    0.48131862762121
28
 energy: -45.540199383853 gnorm: 0.001644822032 xtb: 6.3.3 (4ae9cef)
Br        5.88446369085282   -1.90178617183638    0.62556443293757
C         4.17357803206993   -1.07586281118315    0.41747762402707
C         4.10347526119046    0.29356854631407    0.30378049308063
C         2.83959616112081    0.85825926370390    0.15374384151268
C         1.68436071051959    0.04047159660386    0.12179763630783
N         0.58514125480391    0.86664257496341   -0.03539805150165
C         1.04699879482826    2.16515482604958   -0.09914778396403
C         2.39702399534557    2.20483396457966    0.01059107050799
C        -0.74566114825464    0.47590088230492   -0.11481601830149
N        -0.99096282550847   -0.82623298434875   -0.02310645317178
C        -2.23506742026265   -1.25890352151303   -0.09042516601858
C        -3.33878176413260   -0.43294506346905   -0.25515586024888
C        -4.72770890673078   -0.97729510099536   -0.34739987083718
C        -3.07891422702818    0.93195353122761   -0.34995180234960
C        -1.78368714102195    1.40137555109590   -0.28051759266351
C         1.78554425053367   -1.34096925569364    0.23883928012446
C         3.04223782751644   -1.89019596035279    0.38702407156086
H         4.98877186411805    0.90942838159430    0.32925687295002
H         0.37522875380752    2.99100613034834   -0.22002335208326
H         3.01628577294731    3.07929976686943   -0.00641000276411
H        -2.35111736668747   -2.33206693542469   -0.00557837204757
H        -4.97745764476334   -1.18669931291176   -1.38819517722956
H        -5.44951017259974   -0.25836556252860    0.03404314406801
H        -4.81805956979078   -1.90450195142112    0.21371437563299
H        -3.89635805100656    1.62802066344436   -0.47674414056220
H        -1.59399406749995    2.45897143075162   -0.35251566509254
H         0.90609413430416   -1.96023019977909    0.21419448682485
H         3.15848180132856   -2.95883327839352    0.48086197930097
28
 energy: -45.540204764751 gnorm: 0.001245290896 xtb: 6.3.3 (4ae9cef)
Br        5.88157067937193   -1.90473671537099    0.62519070822706
C         4.17269412716113   -1.07708093332903    0.41742701216297
C         4.10244875502226    0.29211409863329    0.30364462920018
C         2.83968350583780    0.85802596764384    0.15378130817687
C         1.68302367657403    0.04111560813866    0.12208463267659
N         0.58484973778662    0.86853801730381   -0.03488988420219
C         1.04874666959934    2.16614179363911   -0.09886065744171
C         2.39858061157887    2.20468534460195    0.01063168808524
C        -0.74643420604005    0.47837600230662   -0.11424610030577
N        -0.99003353666440   -0.82321213438936   -0.02178232970577
C        -2.23353306736639   -1.25567977816494   -0.08956303185766
C        -3.33877007024881   -0.43151078422065   -0.25515464292570
C        -4.72597512464864   -0.98111510355092   -0.34717147241916
C        -3.07964960250912    0.93351571394134   -0.35062880093162
C        -1.78377497518109    1.40293431248145   -0.28105105677200
C         1.78363460227290   -1.33948676622568    0.23869799233600
C         3.03966999083647   -1.88975751406231    0.38666229144068
H         4.98871791595082    0.90674063916622    0.32898981507472
H         0.37913988836751    2.99360805932587   -0.21944050560250
H         3.01745972899912    3.07907287084958   -0.00674107265891
H        -2.34825030035103   -2.32892682150106   -0.00336636880815
H        -4.97586964051891   -1.18824436930592   -1.38831868475675
H        -5.45050108634788   -0.26674491924766    0.03713906198242
H        -4.81067960546275   -1.91052196167816    0.21074680808191
H        -3.89623970827619    1.63001853537285   -0.47798886986898
H        -1.59729806376068    2.46102604324438   -0.35468681087946
H         0.90526653782344   -1.96011251690403    0.21447887343408
H         3.15152456019367   -2.95878368869822    0.47991946825759
28
 energy: -45.540206502229 gnorm: 0.000324717634 xtb: 6.3.3 (4ae9cef)
Br        5.88114126090563   -1.90534579732891    0.62513404908154
C         4.17220578497642   -1.07755649553460    0.41724113725160
C         4.10250342245857    0.29188256718643    0.30358293827350
C         2.83970420008109    0.85817789510788    0.15380185640526
C         1.68300867894836    0.04157468757994    0.12211037853290
N         0.58498252111449    0.86916254727734   -0.03499647071733
C         1.04859228336307    2.16678273821236   -0.09876948355827
C         2.39866167331137    2.20503139900609    0.01069946598742
C        -0.74616467443614    0.47878577299609   -0.11460259540095
N        -0.98994626662857   -0.82315180296124   -0.02155791883581
C        -2.23346153910844   -1.25611465017494   -0.08886269876284
C        -3.33842763885889   -0.43179351527438   -0.25490700268359
C        -4.72552650754955   -0.98116747407146   -0.34718430195509
C        -3.07956621909007    0.93315370206857   -0.35078352733484
C        -1.78390817000099    1.40317668427498   -0.28140517735355
C         1.78326253325908   -1.33935833199605    0.23882839394985
C         3.03932688403368   -1.89003578362645    0.38668944750364
H         4.98883862645883    0.90641671604676    0.32896929591562
H         0.37866863810450    2.99413036139141   -0.21934304302767
H         3.01786590935709    3.07936250840250   -0.00668727737127
H        -2.34834415136579   -2.32937980151082   -0.00333688867360
H        -4.97569745546000   -1.18766359797064   -1.38842123304794
H        -5.45004281229041   -0.26713480771356    0.03789678559991
H        -4.81024113363424   -1.91092479646775    0.21021064549924
H        -3.89649625109236    1.62942040910329   -0.47840155912397
H        -1.59717123598584    2.46125956415130   -0.35484143501717
H         0.90456440657081   -1.95961950787944    0.21445189175081
H         3.15166923255827   -2.95907219029467    0.47998832711256
