60
 energy: -105.728390992268 gnorm: 0.098934246506 xtb: 6.3.3 (4ae9cef)
O        -0.40417600000000   -2.13315900000000    0.79569200000000
C        -1.13525300000000   -1.32870100000000    0.22960500000000
C        -2.61150000000000   -1.39428500000000    0.43432500000000
C        -3.50702600000000   -0.91433200000000   -0.53127000000000
C        -4.88444400000000   -0.98891000000000   -0.30788900000000
C        -5.36342700000000   -1.55359500000000    0.87365100000000
Br       -7.22713500000000   -1.64978300000000    1.17452900000000
C        -4.48099800000000   -2.05354800000000    1.83073900000000
C        -3.10391100000000   -1.97793600000000    1.60877800000000
N        -0.67161100000000   -0.38036200000000   -0.68415300000000
C         0.62067500000000   -0.69516200000000   -1.28217800000000
C         0.83286700000000   -2.07458800000000   -1.98491100000000
O        -0.29639700000000   -2.80762800000000   -2.11693900000000
O         1.86178700000000   -2.47572100000000   -2.50824500000000
N         1.60765400000000    0.03855200000000   -0.48919500000000
C         2.25108900000000   -0.61042500000000    0.57336500000000
C         3.02029200000000   -1.83498600000000    0.28525200000000
C         4.06577800000000   -1.80301400000000   -0.64375600000000
C         4.82159500000000   -2.95506600000000   -0.86754200000000
C         4.53519400000000   -4.12142000000000   -0.15418000000000
Br        5.55727400000000   -5.68107200000000   -0.46188800000000
C         3.51100900000000   -4.14511100000000    0.79257500000000
C         2.75665300000000   -2.99378300000000    1.02108700000000
O         2.30375000000000   -0.17565200000000    1.72206700000000
C         0.97723400000000    1.32629300000000   -0.13666700000000
C         1.42435700000000    2.48112100000000   -1.03465800000000
C         2.34575500000000    2.32295100000000   -2.08208900000000
C         2.73167200000000    3.41279300000000   -2.86586900000000
C         2.20961000000000    4.67851700000000   -2.61097800000000
C         1.30894700000000    4.85835400000000   -1.56580700000000
C         0.92442700000000    3.77071900000000   -0.77982000000000
C        -0.56912400000000    1.03861300000000   -0.25584500000000
C        -1.38963400000000    1.46570700000000    0.94915300000000
C        -1.01839900000000    1.12319300000000    2.26102400000000
C        -1.79603800000000    1.52064600000000    3.35127500000000
C        -2.95761000000000    2.26256700000000    3.14784900000000
C        -3.34331600000000    2.60822400000000    1.85462100000000
C        -2.56533800000000    2.21459600000000    0.76282700000000
H        -3.14380600000000   -0.48352500000000   -1.46013500000000
H        -5.57225300000000   -0.60512100000000   -1.05735900000000
H        -4.85151200000000   -2.49970000000000    2.75000200000000
H        -2.41409900000000   -2.36632300000000    2.35657200000000
H         0.57889000000000   -0.09045900000000   -2.20631000000000
H         0.00430800000000   -3.63764500000000   -2.54382000000000
H         4.29244300000000   -0.89106100000000   -1.18996000000000
H         5.62841100000000   -2.93519200000000   -1.59605000000000
H         3.29455100000000   -5.04837900000000    1.35686900000000
H         1.96305200000000   -2.99767100000000    1.76506600000000
H         1.25915100000000    1.62996400000000    0.87747400000000
H         2.78548300000000    1.35330800000000   -2.30066900000000
H         3.44942200000000    3.27522000000000   -3.67133300000000
H         2.51582200000000    5.52561800000000   -3.21812100000000
H         0.91236700000000    5.84934700000000   -1.35499700000000
H         0.23653200000000    3.94415700000000    0.04705400000000
H        -0.94959800000000    1.59308400000000   -1.12676900000000
H        -0.12596100000000    0.52675200000000    2.45204500000000
H        -1.49437400000000    1.24411100000000    4.36000200000000
H        -3.56395400000000    2.56708400000000    3.99830500000000
H        -4.25378600000000    3.18087900000000    1.69556800000000
H        -2.89336700000000    2.49094500000000   -0.23796800000000
60
 energy: -105.746140903841 gnorm: 0.034010417352 xtb: 6.3.3 (4ae9cef)
O        -0.39978952892907   -2.15715377255282    0.76478828395659
C        -1.13112041551219   -1.33764035564520    0.24250018878695
C        -2.60615498791117   -1.37020894334892    0.45004395071246
C        -3.49921912168335   -0.89575543510669   -0.51229085330060
C        -4.86705521306333   -0.98638035658859   -0.30348473562100
C        -5.34360740176095   -1.55251111051535    0.87068487880201
Br       -7.21213800682585   -1.64689075294128    1.17222227909467
C        -4.46944871774408   -2.04900179615813    1.82690346244318
C        -3.10408277131459   -1.96417662392355    1.60965721887648
N        -0.67043534270985   -0.38451586557616   -0.67267827953566
C         0.61914290709903   -0.64698556601129   -1.31435412527756
C         0.84847061301346   -2.05201533011686   -1.90848385011643
O        -0.28106296881429   -2.76270080654722   -2.06431280402883
O         1.86995415287959   -2.42171397613711   -2.42523879501299
N         1.61113048233493    0.03663947969789   -0.48211792242263
C         2.24237701509600   -0.61009437573207    0.57974218442809
C         3.00314618047707   -1.84457700321534    0.26949284371211
C         4.04655610236182   -1.81733462904468   -0.65358890688766
C         4.81415716070081   -2.95174302760223   -0.86211374992843
C         4.52867292033244   -4.10814040858711   -0.15047378018474
Br        5.55196526164580   -5.67221407617314   -0.46316589092892
C         3.51020689078826   -4.13720007976579    0.79049400619704
C         2.75676808550318   -2.99604393706110    1.01107986151245
O         2.29507170423099   -0.14663653534192    1.70427138976275
C         0.96506359266824    1.31657891840623   -0.15222246033337
C         1.41825628532885    2.47161482211583   -1.04006319396814
C         2.33401156629253    2.31679028851032   -2.07812603432911
C         2.72394031331374    3.40318075520740   -2.85163626264088
C         2.20723147933119    4.66367441069242   -2.60054678212640
C         1.30967055327297    4.83674738289234   -1.55937385344417
C         0.92395617327129    3.75278067868428   -0.78308743484060
C        -0.58347892581799    1.04480945633670   -0.27555816445598
C        -1.39962743162395    1.43914677988235    0.94044388211122
C        -1.02406454294514    1.10613248887051    2.24362145793544
C        -1.79143825872622    1.51083231416388    3.32882852181523
C        -2.94630954110193    2.25194394203668    3.13345535160661
C        -3.32833228633756    2.59416080166254    1.84674537982391
C        -2.56059617941274    2.19381351984875    0.76209532160646
H        -3.13312857639453   -0.48113146253288   -1.44080312132657
H        -5.55714862761964   -0.61420206989554   -1.04957817480073
H        -4.84657745361161   -2.49625159049090    2.73691657179430
H        -2.41611863382680   -2.35672250902988    2.34589097191773
H         0.57756505000251   -0.05161605682790   -2.25093676182736
H        -0.02103822510109   -3.58578381652464   -2.52767579325109
H         4.27627663594679   -0.90781819445021   -1.19086251880331
H         5.62008507914207   -2.93637474044858   -1.58376870604043
H         3.30120990165683   -5.03970956764385    1.34928897135346
H         1.96388139582891   -2.99966308888611    1.74570184663999
H         1.23868370199101    1.58447202055596    0.87444934611294
H         2.76610528440234    1.34776342085188   -2.28919230991808
H         3.43675911594737    3.26518587435269   -3.65449183815901
H         2.50975992708887    5.50816815952436   -3.20684527683862
H         0.91319377803275    5.82211781213091   -1.34837276289303
H         0.23489630790599    3.91667357771510    0.03704228187648
H        -0.95879390882143    1.61307137837914   -1.13882622466388
H        -0.12643259880655    0.52890388121225    2.43041700062380
H        -1.48687337342904    1.24368859332614    4.33286752535393
H        -3.54705878632126    2.56067232723337    3.98048649677778
H        -4.23048911413974    3.17135666839551    1.68783060440055
H        -2.87654067758168    2.47998810773758   -0.23368971212834
60
 energy: -105.752195400205 gnorm: 0.016129301393 xtb: 6.3.3 (4ae9cef)
O        -0.38752376181543   -2.19056186210105    0.70629641373801
C        -1.11979069030371   -1.34634594465226    0.23479247778054
C        -2.59024105298275   -1.34012358263792    0.46396318921252
C        -3.48188188738585   -0.87097214807740   -0.49730969607910
C        -4.84461237487334   -0.97114649950429   -0.29689357372342
C        -5.31948563736468   -1.53886929749968    0.87374394738134
Br       -7.19376367819205   -1.64822218813361    1.16542711036148
C        -4.45103025896764   -2.03597513752070    1.83037338780234
C        -3.09134289740713   -1.94257251974941    1.61576083494867
N        -0.66641240418483   -0.38183616054839   -0.67385696262541
C         0.61814197009051   -0.60815546253472   -1.33621813360491
C         0.85347532524290   -2.00238102413596   -1.89649015209129
O        -0.26643154434361   -2.71935158712322   -2.00925885075347
O         1.90154371123058   -2.39335655993396   -2.32809915390325
N         1.59934885750228    0.04090399360540   -0.47059759550797
C         2.23305208569982   -0.60293256559327    0.58418692065001
C         2.98269585141762   -1.84736440309736    0.25720150113377
C         4.02680978278590   -1.82149658673969   -0.66073208285887
C         4.79929965253248   -2.94730602780998   -0.86562053691000
C         4.51593240825896   -4.09837004122972   -0.15321409945203
Br        5.55209826977724   -5.66239180408023   -0.46032360676778
C         3.50019540889777   -4.13359025783833    0.78463614707433
C         2.74473590930535   -2.99776044012838    0.99900519641931
O         2.28837682320271   -0.11731585879343    1.69154381632384
C         0.94975117249804    1.31582118748216   -0.15088156682222
C         1.40947443973123    2.45958957203450   -1.03537863061285
C         2.32093397963529    2.29975942749827   -2.06895273762757
C         2.71340319947990    3.38322484572615   -2.83866711786679
C         2.20193911063644    4.64290564140508   -2.58880309364235
C         1.30261555809230    4.81428455420857   -1.55099826809083
C         0.91282210111241    3.73390204630608   -0.78079749448489
C        -0.59533487909633    1.04779146905386   -0.29394289672171
C        -1.40403405976072    1.42379600995497    0.92492981542941
C        -1.02323253265240    1.08576464601093    2.21920701036712
C        -1.78474244831860    1.48940281720456    3.30306588335143
C        -2.93628811080081    2.23310322900366    3.11657259716305
C        -3.32110991955995    2.57600073104998    1.83390240284563
C        -2.55922484524900    2.17723456509260    0.75152828990764
H        -3.11062076996325   -0.45805736899337   -1.42101942406614
H        -5.53805674326330   -0.61573947349530   -1.04395416257849
H        -4.83595960360180   -2.49415371832504    2.72842238736379
H        -2.40198355875198   -2.34117807248982    2.34209289686114
H         0.58109213467170   -0.00520890552117   -2.26658183933831
H        -0.04318112073521   -3.55689512901685   -2.45859379385692
H         4.24834747164686   -0.91649254433743   -1.20280550926851
H         5.61032206006125   -2.93333365700164   -1.57690048995373
H         3.30473049973813   -5.03476290497639    1.34511029186817
H         1.95226286847720   -3.00148422448011    1.72894249110753
H         1.20969919014717    1.56199841061137    0.88513468918100
H         2.74254766756902    1.32737591585482   -2.27338957907764
H         3.42589081929371    3.24336016354467   -3.63771470891540
H         2.50615901678981    5.48574058264508   -3.19202876595220
H         0.90883327706363    5.79675476055558   -1.33779880507656
H         0.22057199947442    3.88730369662581    0.03422643635833
H        -0.96716955346754    1.62424895080583   -1.15182331364295
H        -0.12461609521388    0.51437684312936    2.39798430761113
H        -1.47187148289529    1.23106742508111    4.30329252766274
H        -3.52611087237317    2.55064418417235    3.96398094698865
H        -4.21358805316868    3.16339120817865    1.67681063520867
H        -2.86745778536960    2.46595708125875   -0.24248691022788
60
 energy: -105.754323733329 gnorm: 0.012232270815 xtb: 6.3.3 (4ae9cef)
O        -0.37585100854502   -2.21407095738576    0.65269906474121
C        -1.10618535600023   -1.34694548508175    0.21982633317628
C        -2.56998350325893   -1.31661143971398    0.47383948795313
C        -3.45996304913978   -0.84317377815701   -0.48607990591333
C        -4.82241321782793   -0.94765694858898   -0.28874585252716
C        -5.29625699707505   -1.52197199734813    0.87933626806089
Br       -7.17347651849146   -1.64916931518636    1.15913782032825
C        -4.42968185862905   -2.01834701796998    1.83890225726686
C        -3.06988141047940   -1.92119707303997    1.62550990719663
N        -0.66146097378467   -0.37795300480229   -0.68579571942171
C         0.62307728864642   -0.59386986694929   -1.34034363740710
C         0.86999772022963   -2.00003608973607   -1.85333356017299
O        -0.26318938487638   -2.68184819424808   -1.99903352680009
O         1.92575166706824   -2.39317006733706   -2.26419062839759
N         1.58988343499253    0.04765366070512   -0.46261537463535
C         2.23003027294535   -0.59210811604122    0.58829478416372
C         2.97247568005815   -1.84133736294257    0.25951458511476
C         4.01357720554893   -1.81521234280743   -0.66157938965987
C         4.78622904996650   -2.94032365399890   -0.86989178545470
C         4.50478903975890   -4.09073068351669   -0.15548934160032
Br        5.55235017230155   -5.65202020620367   -0.45729761286189
C         3.48724478964246   -4.13102639925961    0.78023299304287
C         2.73116608721267   -2.99496857920950    0.99552913181428
O         2.29315023409296   -0.09176108373675    1.68880781799059
C         0.93579348658718    1.31756373425123   -0.14427499774878
C         1.39936381601226    2.45099220801623   -1.02613245013963
C         2.31018020383220    2.28150533766193   -2.05813476224607
C         2.70518796800072    3.36280272742413   -2.82854316131562
C         2.19683863260276    4.62445950201261   -2.57846414466424
C         1.29269129318175    4.80054056962523   -1.54414470728423
C         0.89763311787312    3.72295497478328   -0.77484533054604
C        -0.60451657317345    1.04648919074970   -0.31016322819236
C        -1.41303640110987    1.41210632243365    0.90502960832682
C        -1.02456826970192    1.06237097723125    2.19323142366519
C        -1.77855390080756    1.46529955738372    3.28147313080582
C        -2.92823351674012    2.21538983480642    3.10337075755249
C        -3.32165046485889    2.56386579426482    1.82365224601418
C        -2.56720319632048    2.16650055750074    0.73632899828553
H        -3.08371217073958   -0.42413560935888   -1.40516852809274
H        -5.51755843771417   -0.60039644853755   -1.03743250470992
H        -4.81909477690002   -2.48547964415958    2.73010561223101
H        -2.37738444990157   -2.32264166855196    2.34775166211574
H         0.59021721477039    0.01403451130459   -2.26671344718104
H        -0.07101390171146   -3.53645542695773   -2.42725168720521
H         4.22476279455647   -0.91296150535023   -1.21279951270039
H         5.59755511610820   -2.92714824359800   -1.58021737817824
H         3.29650198810824   -5.03391973670850    1.33895723489567
H         1.93264919505892   -3.00221302869644    1.71922809393553
H         1.17906724929456    1.56115854469746    0.89560549546124
H         2.72497132012130    1.30461879480621   -2.25636328095660
H         3.41797252449243    3.21899587285819   -3.62641275286658
H         2.50583724416393    5.46593343573902   -3.17965426776308
H         0.89966162067957    5.78303446458027   -1.33212062417486
H         0.19918281427858    3.86873373556080    0.03614973749583
H        -0.97209203720664    1.62445537119152   -1.16835634325180
H        -0.12597289633627    0.48779765236719    2.36189952042086
H        -1.45895828125119    1.20416740388290    4.27849325746369
H        -3.50961141540215    2.53443483306940    3.95485482202319
H        -4.21117649816230    3.15594508826965    1.67153279984638
H        -2.87310577604112    2.45705631800270   -0.25770440731887
60
 energy: -105.755478470944 gnorm: 0.010879285408 xtb: 6.3.3 (4ae9cef)
O        -0.36556387361917   -2.22938302081412    0.60803996452464
C        -1.09165586857526   -1.34587429990017    0.20249074602768
C        -2.54786904436308   -1.29882421659453    0.48189526845632
C        -3.43635459702665   -0.81546972412104   -0.47495014503957
C        -4.79905938170174   -0.91946595626903   -0.27741561485929
C        -5.27115679174472   -1.50207572960790    0.88781595243906
Br       -7.14875885433720   -1.64502420548310    1.15842939956041
C        -4.40498121363387   -1.99710011093334    1.84970377295301
C        -3.04433966054290   -1.90073259595706    1.63625597387729
N        -0.65443273383055   -0.37719915038838   -0.70178294081852
C         0.63319947356038   -0.59003543749406   -1.34411853267524
C         0.87208189048181   -1.99787196939662   -1.85272974625999
O        -0.26934440505915   -2.65953657939064   -2.01220565984854
O         1.93594340819647   -2.41571289466727   -2.22388642251087
N         1.58390384492792    0.05169114324505   -0.45279732936380
C         2.23038932098735   -0.58221524078636    0.59647130587340
C         2.96969223422049   -1.83216856275754    0.27278474101965
C         4.00724614861231   -1.80394893253154   -0.65294737686001
C         4.77715876004621   -2.93029156913504   -0.86808688047238
C         4.49594871326382   -4.08189470388632   -0.15411662006895
Br        5.54721397739038   -5.64115380381929   -0.45735544024103
C         3.47477149826457   -4.12729846818176    0.77818309215031
C         2.71964062263171   -2.99028212597120    0.99854268533435
O         2.30149658722886   -0.07183332900755    1.69374833038911
C         0.92331809320313    1.31819025262967   -0.13831984867592
C         1.39041463030845    2.44672280385810   -1.01605116978524
C         2.30200199324989    2.26786998831345   -2.04624822209793
C         2.69929839768727    3.34627661796686   -2.81917931997018
C         2.19244155495540    4.60950785155032   -2.57049913038034
C         1.28328713762019    4.79269463670075   -1.54075280048586
C         0.88376238367853    3.71818547266881   -0.76968187013559
C        -0.61308853302647    1.04222897554326   -0.32612362249730
C        -1.42727323084722    1.39956190770446    0.88388192970201
C        -1.03260364772317    1.03540968349356    2.16687430857551
C        -1.77786263164349    1.43637204751008    3.26160362713988
C        -2.92421657066940    2.19477038207365    3.09214034345445
C        -3.32646937740374    2.55215902591995    1.81657636293834
C        -2.58001813010094    2.15798967473039    0.72175375214330
H        -3.05657697977581   -0.38967451532771   -1.39027357033487
H        -5.49442411831913   -0.56992736856568   -1.02469264331751
H        -4.79589524699084   -2.46583436408284    2.73932081464714
H        -2.34910553906271   -2.30135298274660    2.35745778954692
H         0.60832793586236    0.02223391954660   -2.26719796491339
H        -0.09390707207827   -3.53803114029004   -2.39539534878763
H         4.21141519976743   -0.90217417978305   -1.20893248791559
H         5.58322086985419   -2.91830231593250   -1.58473533791227
H         3.27988800108592   -5.03466166245387    1.32850664394859
H         1.91325029274499   -3.00295828910888    1.71480499172304
H         1.14887557053988    1.56479713291484    0.90389472198482
H         2.71280953575020    1.28741281091076   -2.23748059971905
H         3.41155810606169    3.19763010958619   -3.61708943400640
H         2.50657525590444    5.44909220273948   -3.17135100094094
H         0.88931095819346    5.77610425589930   -1.33351255272435
H         0.17875935456576    3.85887030930904    0.03730878661027
H        -0.97390991243983    1.62043844621122   -1.18751923829746
H        -0.13597011566158    0.45321480780120    2.32418246605985
H        -1.45321758498835    1.16647600276762    4.25504437306807
H        -3.49747421563008    2.51313266148189    3.94928601901750
H        -4.21537647727182    3.14722813763845    1.67213460083105
H        -2.88629194277793    2.45204818467015   -0.27170289207946
60
 energy: -105.756237132229 gnorm: 0.006214502972 xtb: 6.3.3 (4ae9cef)
O        -0.35688854577830   -2.24342438473490    0.57504117847532
C        -1.07693522155899   -1.34777643603417    0.18800235261021
C        -2.52589123887822   -1.28635523663279    0.49003772407088
C        -3.41364360991717   -0.79113738691538   -0.46250292863112
C        -4.77622768322725   -0.88771401641055   -0.26099696648933
C        -5.24590444568952   -1.47678769974439    0.90226461777158
Br       -7.12222934572337   -1.63322514033047    1.16688129561716
C        -4.37929605918119   -1.97186715468363    1.86436821060360
C        -3.01809138813249   -1.88143580692521    1.64867829998372
N        -0.64641004799804   -0.38313383691897   -0.71728270209671
C         0.64711436853429   -0.59497786805941   -1.34576375419950
C         0.87416805064235   -2.00898331681189   -1.85309702426681
O        -0.27904653223777   -2.64379260235692   -2.04202618271024
O         1.93245107369864   -2.44471601748974   -2.20820411102298
N         1.58098065660118    0.05353073339054   -0.44223800949452
C         2.23417340936604   -0.57058963243856    0.60684348956173
C         2.97043462568564   -1.82106764954569    0.29065919338652
C         4.00662531829289   -1.79000156068390   -0.63712192262442
C         4.77105693943672   -2.91865773455697   -0.86117797601922
C         4.48629334415279   -4.07297763489417   -0.15200723820790
Br        5.53566659613473   -5.63145413477951   -0.46044734459037
C         3.46168522564809   -4.12218736256791    0.77671794732789
C         2.70938358596370   -2.98377735262207    1.00443467853202
O         2.30928325889075   -0.05329711215962    1.70188205638677
C         0.91216935946907    1.31765590465814   -0.13552536606238
C         1.38302028180724    2.44568858353733   -1.00909086126740
C         2.29756937476012    2.26016010037036   -2.03583282704601
C         2.69676501859322    3.33524756312928   -2.81219969747707
C         2.18909071472275    4.59901419131818   -2.56729240856147
C         1.27523637335412    4.78883628201411   -1.54257269346153
C         0.87214594807828    3.71731984081001   -0.76873630188432
C        -0.62109899059563    1.03380677680336   -0.34249428737914
C        -1.44254947012115    1.38740573398186    0.86285308717952
C        -1.04680504052083    1.00577394374738    2.14131810485437
C        -1.78526580721557    1.40066494252662    3.24251967773304
C        -2.92650078389641    2.16890378058279    3.08138002763273
C        -3.33411770874997    2.53806745761440    1.81059359150924
C        -2.59315503503352    2.15115706911102    0.70830659291407
H        -3.03203832064073   -0.35984797770700   -1.37494779006165
H        -5.47106529451045   -0.52883874328127   -1.00450976925446
H        -4.76953558769211   -2.43768132476494    2.75574094708266
H        -2.32083865558222   -2.28006088904894    2.36979281354562
H         0.63089444646590    0.01737493745941   -2.26869384578609
H        -0.11811246829428   -3.53691205440690   -2.39446386105863
H         4.21014143990086   -0.88591979433122   -1.19004805809407
H         5.57251468733534   -2.90675961526511   -1.58360577034876
H         3.25865700794485   -5.03459045688065    1.31653901907301
H         1.89778799422971   -3.00112425118117    1.71543245843329
H         1.12215495459247    1.56853895376998    0.90835637957192
H         2.70813288620968    1.27791669220903   -2.21878547157275
H         3.40989257119666    3.18240918387411   -3.60886363768731
H         2.50767945209773    5.43653169524981   -3.16897683843965
H         0.87996584254521    5.77344523928772   -1.34171071936051
H         0.16248016600645    3.85593705140071    0.03506756911135
H        -0.97487968428409    1.61091413508533   -1.20824377034290
H        -0.15559968251885    0.41157089060636    2.28758083262184
H        -1.45789965066883    1.11863744906538    4.23211097951822
H        -3.49224961958585    2.48623563951529    3.94428674803431
H        -4.22203530967794    3.13741032813746    1.67520074780884
H        -2.90129974444610    2.45091708590807   -0.28342948545152
60
 energy: -105.756743730103 gnorm: 0.009450805717 xtb: 6.3.3 (4ae9cef)
O        -0.35104414457033   -2.26133908283641    0.54566647617168
C        -1.06566506819911   -1.35310185579942    0.17486913253284
C        -2.50908479032273   -1.27904508682278    0.49610910004207
C        -3.39848053940830   -0.77246092533470   -0.44956053214604
C        -4.76014767679523   -0.85882391707358   -0.24054198208352
C        -5.22609960628605   -1.45160000177170    0.92228569873208
Br       -7.10016042875754   -1.61056676232324    1.18979106566907
C        -4.35724254485265   -1.94791729549225    1.88140377999422
C        -2.99627543498656   -1.86664649586599    1.65948204214221
N        -0.64063998179831   -0.39058650772919   -0.73093222346648
C         0.65958942295368   -0.60071950826696   -1.34839113874357
C         0.87826598959311   -2.02057480365745   -1.85597240742977
O        -0.28614213569892   -2.62844434941786   -2.08300924565385
O         1.93814379511966   -2.48481404788552   -2.17823033840276
N         1.57947868009636    0.05362335849918   -0.43323117671341
C         2.23632513242080   -0.56039625382825    0.61688036173724
C         2.96981307135354   -1.81188312432547    0.30458734943919
C         4.00748241647900   -1.77795099772572   -0.62160259146384
C         4.76782716296811   -2.90794496615901   -0.85201402202012
C         4.47664685664403   -4.06585463214387   -0.15116593355306
Br        5.51851998581883   -5.62592447668257   -0.46883713863007
C         3.44957003833548   -4.11707798122613    0.77448370801695
C         2.70100994871942   -2.97755135155258    1.00945568010379
O         2.31527766154595   -0.03640926078358    1.70903895469618
C         0.90385715276142    1.31680417365182   -0.13663370586579
C         1.37836135147044    2.44658329525586   -1.00763453045058
C         2.29787060792580    2.25879278413239   -2.02943064294467
C         2.69884488494809    3.33122529252407   -2.80838396223948
C         2.18779992919513    4.59444558929295   -2.56940397550151
C         1.27018894091338    4.78777488632408   -1.54906442656842
C         0.86507990953069    3.71849896518761   -0.77277285128211
C        -0.62726187753185    1.02589302476763   -0.35678278289958
C        -1.45583301005261    1.37527631934166    0.84621013476790
C        -1.06470266023767    0.97636098474855    2.12129249893083
C        -1.79927182464540    1.36405387969417    3.22705608127702
C        -2.93434030768414    2.14241262857195    3.07245154075060
C        -3.34080694686803    2.52514821677288    1.80579676214830
C        -2.60236620590180    2.14611007223994    0.69841633687077
H        -3.01805607300583   -0.34216558605368   -1.36267631361492
H        -5.45527933705554   -0.48899224202495   -0.97873315883581
H        -4.74449374807665   -2.40853718545784    2.77678035630399
H        -2.29728411267234   -2.26519096798991    2.37905823850092
H         0.65509108474706    0.00830827011799   -2.27355245968297
H        -0.13445276184208   -3.52979121226066   -2.41339606502982
H         4.21742308438867   -0.86885622039017   -1.16367112579699
H         5.56905753660369   -2.89417190947578   -1.57484654173784
H         3.23878169640096   -5.03308451303876    1.30564766478904
H         1.88826215129506   -2.99737702033898    1.71865067617624
H         1.10302608571072    1.57017710141765    0.90864212159430
H         2.71133910715540    1.27671051101606   -2.20514282015987
H         3.41443825302695    3.17605379868012   -3.60228001011696
H         2.50780331478885    5.43007654881248   -3.17334105210823
H         0.87307077520722    5.77304583971927   -1.35453365328751
H         0.15219150526430    3.85813239755347    0.02802575318354
H        -0.97662731934410    1.60161894589681   -1.22550676649761
H        -0.17895276847445    0.37232561225263    2.25972305962179
H        -1.47396703198210    1.06735320567939    4.21305932763746
H        -3.49742274028893    2.45490649306334    3.93895496763860
H        -4.22756373674631    3.12811719031979    1.67790282310985
H        -2.91076871929537    2.45597115620127   -0.29044511765048
60
 energy: -105.757221581256 gnorm: 0.007055311048 xtb: 6.3.3 (4ae9cef)
O        -0.34854115280383   -2.28121035700309    0.52102697421417
C        -1.05765457915662   -1.36365996622912    0.16189274828690
C        -2.49690246483934   -1.27835970656434    0.49876050891975
C        -3.39009423830822   -0.76240323068178   -0.43848114223342
C        -4.75030624614147   -0.83457111688574   -0.21754353446457
C        -5.21159058992378   -1.42548226812671    0.94793662429375
Br       -7.08327233495714   -1.57722793742392    1.22640620464230
C        -4.33873573179288   -1.92597319113058    1.90057168632933
C        -2.97866496811764   -1.85722840895513    1.66800456785273
N        -0.63435696989525   -0.39985153927876   -0.74042718573675
C         0.67199838973662   -0.60744840129512   -1.34912883224538
C         0.88188819736724   -2.03069339582554   -1.85683316473426
O        -0.28942370166550   -2.61515294850577   -2.11726784192693
O         1.93401720830955   -2.51543807878630   -2.16185032266324
N         1.58082044146620    0.05383270626333   -0.42689432718091
C         2.23953510889757   -0.54919725257963    0.62608552621676
C         2.97189058106318   -1.80225090124647    0.31783956324340
C         4.01482244083376   -1.76576379723811   -0.60214329535962
C         4.76924691897384   -2.89779814865169   -0.83922744267501