116
 energy: -163.716125296845 gnorm: 0.106398064225 xtb: 6.3.3 (4ae9cef)
C        -2.84354500000000   -2.60855400000000    0.05404900000000
O        -2.58932400000000   -2.64295900000000    1.39944700000000
C        -3.21025400000000   -3.67995700000000    2.15043500000000
C        -3.91654000000000   -3.26113500000000   -0.55747200000000
C        -4.11473400000000   -3.16108600000000   -1.93747100000000
C        -3.24222300000000   -2.40785000000000   -2.71518700000000
C        -2.17404300000000   -1.74412800000000   -2.11452100000000
C        -1.96022600000000   -1.83489100000000   -0.72476500000000
C        -0.74265000000000   -1.18521900000000   -0.09175400000000
C         0.57461900000000   -1.88119300000000   -0.54506500000000
C         0.92218800000000   -3.23465400000000    0.05171000000000
C         0.63028100000000   -3.53900900000000    1.39369000000000
C         0.91792900000000   -4.79409500000000    1.93234000000000
C         1.49378100000000   -5.77368500000000    1.13441000000000
C         1.80850800000000   -5.48747500000000   -0.19627600000000
C         1.54904200000000   -4.22165800000000   -0.73710200000000
O         1.82897000000000   -3.87169600000000   -2.03364800000000
C         2.72012100000000   -4.70473600000000   -2.76055400000000
N         1.57862300000000   -0.80586800000000   -0.50520500000000
C         2.64762300000000   -0.75943000000000    0.38218400000000
C         3.73292300000000    0.21764800000000    0.07841000000000
C         4.34528600000000    0.89221300000000    1.14291600000000
C         5.34450600000000    1.84846100000000    0.90793100000000
C         6.03027900000000    2.62594100000000    2.04904500000000
C         7.56727300000000    2.60576200000000    1.87482400000000
C         5.53509200000000    4.08656900000000    2.01537100000000
C         5.72571400000000    2.05741000000000    3.45574700000000
C         5.68189000000000    2.11163700000000   -0.43939200000000
C         5.11493800000000    1.41614900000000   -1.53092300000000
C         5.53784800000000    1.75601500000000   -2.97387000000000
C         5.01323500000000    0.75744800000000   -4.03126800000000
C         7.07914900000000    1.76660200000000   -3.10821000000000
C         4.98474100000000    3.14963000000000   -3.33341200000000
C         4.14368800000000    0.44896800000000   -1.24047400000000
O         2.74859600000000   -1.43814500000000    1.39757500000000
C         0.88928200000000    0.44965300000000   -0.79736200000000
C         1.00843200000000    0.92041200000000   -2.27979900000000
O         0.55880600000000    2.18664600000000   -2.49184800000000
O         1.41949800000000    0.23080300000000   -3.20438000000000
N        -0.51947100000000    0.22070200000000   -0.49344400000000
C        -1.30096700000000    1.31416500000000   -0.19091400000000
C        -2.69222000000000    1.13948200000000    0.25358800000000
C        -3.70560900000000    1.11010300000000   -0.70670400000000
C        -5.04969200000000    1.07217600000000   -0.31754000000000
C        -6.20768600000000    1.02991100000000   -1.33083700000000
C        -5.74455800000000    0.86703900000000   -2.79641200000000
C        -6.99545200000000    2.35505600000000   -1.24808900000000
C        -7.15696300000000   -0.14715700000000   -1.02670700000000
C        -5.32567300000000    1.09665800000000    1.06909000000000
C        -4.32186100000000    1.15746300000000    2.05749900000000
C        -4.64259200000000    1.21939800000000    3.56030800000000
C        -6.15154500000000    1.29262100000000    3.87652300000000
C        -4.09129400000000   -0.04948300000000    4.24608200000000
C        -3.99130600000000    2.46589400000000    4.18935500000000
C        -2.98705200000000    1.17533400000000    1.61654000000000
O        -0.86881200000000    2.45904100000000   -0.32714400000000
H        -3.00250600000000   -4.66490400000000    1.71713300000000
H        -2.78004700000000   -3.66686800000000    3.15917100000000
H        -4.28557600000000   -3.50620700000000    2.24767100000000
H        -4.62121300000000   -3.85680000000000    0.01122800000000
H        -4.94960000000000   -3.67875200000000   -2.40268400000000
H        -3.38425000000000   -2.34394600000000   -3.79134800000000
H        -1.49331700000000   -1.16719000000000   -2.74090400000000
H        -0.81876600000000   -1.15213000000000    0.99987100000000
H         0.46513000000000   -2.04402900000000   -1.62661200000000
H         0.20685400000000   -2.78516800000000    2.05432000000000
H         0.68895900000000   -5.01160200000000    2.97334600000000
H         1.71258700000000   -6.75350800000000    1.55034100000000
H         2.26514500000000   -6.27154300000000   -0.78888500000000
H         3.65964900000000   -4.85800000000000   -2.21611500000000
H         2.95384100000000   -4.19592700000000   -3.70144100000000
H         2.24204000000000   -5.65821500000000   -3.00604400000000
H         4.01464400000000    0.65002000000000    2.14929900000000
H         7.93587700000000    1.57623500000000    1.80325600000000
H         7.89288800000000    3.14543800000000    0.97982600000000
H         8.06691000000000    3.08397400000000    2.72539400000000
H         5.78927100000000    4.58568700000000    1.07340000000000
H         4.44613100000000    4.13600300000000    2.13175700000000
H         5.98656400000000    4.67099200000000    2.82657500000000
H         4.66093100000000    2.13652600000000    3.70400900000000
H         6.27026400000000    2.60776000000000    4.23106200000000
H         6.02032800000000    1.00301700000000    3.53301400000000
H         6.41334300000000    2.89254800000000   -0.65054000000000
H         5.34341300000000   -0.26567500000000   -3.81048100000000
H         3.92033400000000    0.76551600000000   -4.08693900000000
H         5.37947000000000    1.01001100000000   -5.03579400000000
H         7.54330700000000    2.55769900000000   -2.51347600000000
H         7.38589600000000    1.93535000000000   -4.14891900000000
H         7.50895200000000    0.80970500000000   -2.78690700000000
H         3.89626100000000    3.18273500000000   -3.21349600000000
H         5.21301600000000    3.40914700000000   -4.37048300000000
H         5.40507900000000    3.93476500000000   -2.69987500000000
H         3.68785500000000   -0.13691400000000   -2.03456800000000
H         1.28249900000000    1.24818800000000   -0.16026100000000
H         0.11447500000000    2.56863800000000   -1.69441100000000
H        -3.41885400000000    1.13032100000000   -1.75473000000000
H        -5.11498700000000    1.70624700000000   -3.12100500000000
H        -5.17651300000000   -0.06078400000000   -2.93764900000000
H        -6.60025400000000    0.83003300000000   -3.48112600000000
H        -7.43445400000000    2.51200300000000   -0.25948400000000
H        -7.81755500000000    2.36689600000000   -1.97453300000000
H        -6.34890200000000    3.21491600000000   -1.46051400000000
H        -6.61800800000000   -1.10017400000000   -1.02065300000000
H        -7.95209700000000   -0.22082700000000   -1.77635700000000
H        -7.65265100000000   -0.04407700000000   -0.05674300000000
H        -6.36902400000000    1.09470600000000    1.36898100000000
H        -6.68766100000000    0.40825600000000    3.51342200000000
H        -6.61272300000000    2.18279800000000    3.43055400000000
H        -6.31938200000000    1.34981100000000    4.95921400000000
H        -4.33158000000000   -0.05618400000000    5.31735500000000
H        -3.00040500000000   -0.12622900000000    4.16287400000000
H        -4.52355100000000   -0.95556200000000    3.80277800000000
H        -4.23826100000000    2.54243300000000    5.25191300000000
H        -2.89939100000000    2.44753600000000    4.11748300000000
H        -4.33965200000000    3.38106400000000    3.69973000000000
H        -2.16730700000000    1.23529700000000    2.32668800000000
116
 energy: -163.733556892133 gnorm: 0.040708694333 xtb: 6.3.3 (4ae9cef)
C        -2.83786360235699   -2.60040876114150    0.05265020506295
O        -2.58211459661821   -2.65282299180420    1.39526924473749
C        -3.20900673260672   -3.67493970732635    2.14772952285331
C        -3.90684028303723   -3.25036988612088   -0.55875292126022
C        -4.10158310832223   -3.14951940588772   -1.92856589865429
C        -3.23405478274725   -2.39741363546992   -2.70048625057988
C        -2.16983262156575   -1.74192831456144   -2.09941579705783
C        -1.95569339916516   -1.83049019404908   -0.72502011186709
C        -0.74414748274092   -1.18781940711517   -0.08934873794669
C         0.57369455106171   -1.87092981504808   -0.56222709558419
C         0.92699473689389   -3.20984366465751    0.06235572235075
C         0.63396211833799   -3.52317643917729    1.38815225557569
C         0.91206607179895   -4.77512434875387    1.91921391080808
C         1.49089660745530   -5.74771466694158    1.12520542818571
C         1.80628348918275   -5.46120939781039   -0.19385314100815
C         1.54256714584066   -4.20067535337916   -0.73065829147463
O         1.83709322568021   -3.85918910780205   -2.02253277806515
C         2.71064642192270   -4.69900343112263   -2.75358768673695
N         1.57936949960995   -0.79419766980194   -0.49060268247632
C         2.64578448358845   -0.75028823919243    0.39657334107216
C         3.71770690044478    0.24284211541847    0.07285971114790
C         4.34829416175384    0.89955516207011    1.13134194628607
C         5.34426572740670    1.84506138117567    0.89687858013395
C         6.02565858238392    2.62282773911418    2.03546204339161
C         7.55625178712485    2.60080416948306    1.86415625411234
C         5.53389721443818    4.08037165047422    2.00669360224120
C         5.71654746725890    2.05032923592596    3.43135109256443
C         5.67641606113624    2.10554353372942   -0.43978275907261
C         5.11530223098135    1.41685366864938   -1.52463011940530
C         5.53868197977373    1.75510260916162   -2.96362583184665
C         5.00338590241213    0.75591148950013   -4.00470215822465
C         7.07367240257992    1.76749548846748   -3.09315308128805
C         4.98511082420750    3.14539044442224   -3.32073127227128
C         4.12932216603614    0.47266062239695   -1.24136952559726
O         2.75318444409949   -1.47774692856394    1.36869812624217
C         0.89285195377725    0.44691374431990   -0.80427053576273
C         0.99974480178690    0.90509521935196   -2.28293819153967
O         0.58345098399462    2.16013863488104   -2.49307431853207
O         1.42818597833241    0.22668890308268   -3.17552156436531
N        -0.51902469598207    0.21400097819554   -0.48659069709561
C        -1.29814894037718    1.29270799662876   -0.18900752720470
C        -2.70206561930212    1.11063936802609    0.25949546842568
C        -3.71414803077538    1.08730508620450   -0.69745309477136
C        -5.05045377349576    1.06163541948574   -0.31047576670857
C        -6.20331079615407    1.03125217934946   -1.32435580785363
C        -5.72828555721139    0.86657749740915   -2.77834781148531
C        -6.98936344915295    2.35185447973096   -1.23892610964419
C        -7.14716737692445   -0.14360919364203   -1.01659719075247
C        -5.32488898705496    1.09704489196486    1.06483075183542
C        -4.33336478739222    1.15753014464464    2.04727358491343
C        -4.64300990400215    1.21637668062161    3.54990743293773
C        -6.14692829118151    1.29074872692235    3.85747302036898
C        -4.08911333028523   -0.04669993933758    4.23399830682511
C        -3.98871238024304    2.46006450553851    4.17603261371708
C        -3.00498041181325    1.15942417682183    1.61466580373867
O        -0.86113435124856    2.43401613054253   -0.33837014124519
H        -3.01487945440281   -4.65793547895247    1.70911955731435
H        -2.76638099110453   -3.64521348186529    3.14600510915118
H        -4.28519050223910   -3.50449273593796    2.23914898260877
H        -4.60286974985902   -3.84726650888910    0.01296577115592
H        -4.93289015500730   -3.66689136432180   -2.39042420937545
H        -3.37697210818447   -2.33214091545134   -3.77140182047829
H        -1.49281357537819   -1.16368448410909   -2.71569368670295
H        -0.83461045285445   -1.19726543216601    1.00247124980868
H         0.46341901061984   -2.05118756746846   -1.64222870287648
H         0.19760391397793   -2.77895383176728    2.03739778264974
H         0.68542232919976   -4.99213573303000    2.95527872353091
H         1.70697201417159   -6.72799787510210    1.53226313309689
H         2.26230689761045   -6.23940653672687   -0.79014818481429
H         3.64565677242395   -4.86531562606983   -2.21008726330580
H         2.93546222999208   -4.17667295942920   -3.68560524411193
H         2.23933736598040   -5.65642075300295   -2.99608439389212
H         4.02306131736936    0.65656822989318    2.13322300921044
H         7.92129729792339    1.57608481820707    1.79787266266670
H         7.87673350001086    3.13688836786029    0.97222385442168
H         8.04028302409274    3.07720065660413    2.71855832272145
H         5.78905104247846    4.57064081828566    1.06751438266969
H         4.45098182809179    4.12438422363693    2.12645901460387
H         5.98745290313513    4.65272534370467    2.81789449784406
H         4.65862977127309    2.13368146310554    3.67988158843455
H         6.26816359747204    2.60730882985147    4.19117639384810
H         6.01391618029771    1.00425140381377    3.50902414120933
H         6.40746057029846    2.87638866438852   -0.64645161507367
H         5.33880689637108   -0.25915114146789   -3.78992816399093
H         3.91571757255772    0.76508743085123   -4.06075755484858
H         5.37943954785692    1.02191596002354   -4.99553983783593
H         7.53307902209030    2.55616955668104   -2.49995165206707
H         7.36226122462685    1.93398252103056   -4.13292929857157
H         7.49492234731057    0.81240079879454   -2.77773463702256
H         3.90070938279443    3.16813927937071   -3.20736958767823
H         5.21946131247711    3.39331181337471   -4.35614930756143
H         5.40781201639523    3.92328385118632   -2.68570821418607
H         3.67873895120760   -0.11275757889092   -2.02971169889886
H         1.28831791040338    1.25949389814507   -0.17706111948012
H         0.12876724772142    2.54319764029413   -1.69772947712947
H        -3.43035279557423    1.10978803591417   -1.74005797045957
H        -5.10981651829880    1.70522433478361   -3.09980862866947
H        -5.16752770062321   -0.05900025193432   -2.91456749399149
H        -6.59201630206713    0.83107683613375   -3.44514134271197
H        -7.42347590018641    2.50203043288196   -0.25170995335980
H        -7.80291674264249    2.35551518261925   -1.96642148571998
H        -6.34020539572250    3.20090816668121   -1.45490987128852
H        -6.60178909083905   -1.08788089145068   -1.01858731069217
H        -7.93120845048060   -0.20563018193361   -1.77287439870420
H        -7.63754821960004   -0.03543075789379   -0.04998127901494
H        -6.36078402620479    1.09309727246907    1.36775650477800
H        -6.67693428640521    0.40745650068763    3.50121405271478
H        -6.60144588472254    2.17918725771774    3.41791648578522
H        -6.29738649659421    1.34729632561121    4.93718396059805
H        -4.33336985990052   -0.04225946025871    5.29831017407143
H        -3.00544812010207   -0.11628060592600    4.14340256874515
H        -4.52263261713935   -0.94445449901881    3.79211240295749
H        -4.24166627165860    2.52767839246883    5.23483311310574
H        -2.90270120060334    2.43652944384380    4.10021854559648
H        -4.34095907012455    3.36862903138192    3.68768592380875
H        -2.19051068925698    1.22266329576277    2.32435842325664
116
 energy: -163.740037343035 gnorm: 0.018683577710 xtb: 6.3.3 (4ae9cef)
C        -2.82686760718511   -2.59035678502815    0.05341275368460
O        -2.56807624646624   -2.65845557785616    1.39260761845147
C        -3.20579607091849   -3.66566952979991    2.14493216526565
C        -3.89437369233308   -3.23828354548145   -0.55747145244706
C        -4.09000091660797   -3.13303993047664   -1.92226318393137
C        -3.22658079657284   -2.37909649735903   -2.69233396258771
C        -2.16432531178533   -1.72817861543523   -2.08936288971666
C        -1.94857647405294   -1.81932645254565   -0.72467879192476
C        -0.74097988457770   -1.18412610454904   -0.08760991709275
C         0.57350199040803   -1.85972881569795   -0.56947605628762
C         0.92264339565095   -3.18758447194722    0.06832075866199
C         0.62494468502595   -3.50324432521611    1.38338073118227
C         0.90519421636636   -4.75067827422795    1.91312555926795
C         1.48727983863151   -5.71898561786947    1.12017630158867
C         1.80791556253884   -5.43076626161921   -0.19233519294165
C         1.54180604552449   -4.17368629957398   -0.72582821092853
O         1.84511900916786   -3.83631956013718   -2.01310388472530
C         2.69912257736928   -4.68505440161451   -2.74757783508079
N         1.57775479303273   -0.78665101736776   -0.47544736044620
C         2.65501006341387   -0.76379857561089    0.39626344629062
C         3.69779497863523    0.26196889674432    0.07104433645880
C         4.33620034978460    0.91086171057916    1.12580752323050
C         5.33248715369774    1.84786468878747    0.88916268015035
C         6.01849651000304    2.61753790001747    2.02139332117651
C         7.54433904769984    2.59214335662598    1.84836859021338
C         5.52957443513929    4.07314834126988    1.99174279738151
C         5.70571199571721    2.04090512467132    3.40774578042845
C         5.66851472453266    2.10443295839249   -0.43867088986226
C         5.10210222081602    1.42336364116627   -1.51502587967082
C         5.53231367229067    1.75334861211966   -2.94685124162411
C         4.99507696456679    0.75320003063337   -3.97743004390172
C         7.06336322878320    1.76442456600693   -3.07350582362698
C         4.98169850143513    3.14207390376428   -3.30408901448829
C         4.10637502738047    0.49283289766825   -1.23973940342139
O         2.77427465684919   -1.53168258553303    1.32983858375915
C         0.90197471628133    0.44489819005179   -0.80660926929610
C         1.01904358787974    0.88975011779151   -2.28613107826260
O         0.58875362284290    2.12140383450397   -2.50211779565722
O         1.43839756967345    0.19443582148221   -3.16080622767408
N        -0.51392948281303    0.21291538562012   -0.47146691393593
C        -1.29320649412634    1.27801316791414   -0.18803002462402
C        -2.70330406556957    1.08531932076994    0.26518303344608
C        -3.71440335180160    1.06115983056957   -0.68985837248992
C        -5.04603647446638    1.05087474707556   -0.30232367659550
C        -6.19357206680036    1.02891603844194   -1.31335758610748
C        -5.71230076121659    0.86542513301696   -2.75942329738544
C        -6.97651777126380    2.34773641627321   -1.22543398400779
C        -7.13476437571744   -0.14462380084811   -1.00575589878322
C        -5.32526036252999    1.09038804071084    1.06405729378151
C        -4.33845832176321    1.14463543838212    2.03927865665542
C        -4.64442692207164    1.21182320659372    3.53660669515289
C        -6.14446712265805    1.28752711516651    3.83960890369110
C        -4.08709463268243   -0.04766247002961    4.21643713885864
C        -3.98658736798015    2.45518562142972    4.15546325167892
C        -3.01241723224924    1.13963964861848    1.61462689164507
O        -0.86082510011716    2.41948109796570   -0.35808317783696
H        -3.02815455654155   -4.65200982590557    1.70692531346363
H        -2.75502734433714   -3.62449717062898    3.13521069827237
H        -4.28223395078622   -3.49161470727463    2.23405990411144
H        -4.58226002826569   -3.83545491191215    0.02035215770518
H        -4.91925510762746   -3.65126650624652   -2.38096309985096
H        -3.37051310821006   -2.31101484293913   -3.75961238022935
H        -1.48583825104890   -1.14875475813333   -2.69658926415422
H        -0.84050750433969   -1.23436034617480    1.00273446863265
H         0.46905662213264   -2.04760883849156   -1.64778388648963
H         0.18360427787440   -2.76059372127725    2.02511867875074
H         0.67403113214270   -4.96697482383532    2.94477144380236
H         1.70101907637590   -6.70034221487533    1.51946452369167
H         2.26376482780703   -6.20165753970312   -0.79472365654839
H         3.63309103537221   -4.86813132346163   -2.20786699653934
H         2.91549056574968   -4.15365471882133   -3.67324846280965
H         2.22440016496693   -5.64203193560324   -2.98753986827406
H         4.02343663041089    0.65959845829826    2.12612699942574
H         7.90464871614165    1.56869737294399    1.78637022226469
H         7.86017576469477    3.12421285371204    0.95634375960006
H         8.01945804198928    3.06962229247681    2.70357310956085
H         5.78488553296771    4.55607029042968    1.05272179166057
H         4.45012917752328    4.11411299938788    2.11554961148405
H         5.98831272082672    4.63646406979366    2.80202834702954
H         4.65060910071174    2.12815584841666    3.65102261719397
H         6.26177061703264    2.59964761807333    4.15970291248436
H         6.00214212509856    0.99809226613353    3.47802221605608
H         6.40876819480379    2.86163838715861   -0.64307723258878
H         5.33145905303899   -0.25665303996388   -3.75838021345605
H         3.91029146971021    0.76495456832702   -4.02534346323469
H         5.37201640583271    1.02381153436858   -4.96295267377128
H         7.51717397775937    2.55140312223326   -2.47879695878237
H         7.34388976825103    1.93287383198438   -4.11160215941027
H         7.47976867274329    0.81064779915063   -2.75973208303567
H         3.89965836906797    3.15769661036272   -3.19798778725651
H         5.22629422552509    3.38394679050996   -4.33683275742143
H         5.40395808868097    3.91273078413391   -2.66393175418053
H         3.64930346048633   -0.08156277299329   -2.02729636043591
H         1.29853937732272    1.27111146662477   -0.19165726962649
H         0.14080268876610    2.50984086083623   -1.70136125661444
H        -3.43420825200061    1.07262721593246   -1.73005262705365
H        -5.09823215720881    1.70460703855684   -3.07316083437786
H        -5.15216868177782   -0.05747326669510   -2.88590489082423
H        -6.57782467509017    0.82830756021009   -3.41942617443816
H        -7.40561789793451    2.49165182361297   -0.23793880646362
H        -7.78710162006187    2.34613776283712   -1.95147213181933
H        -6.32556407564898    3.19075089519442   -1.44280140334361
H        -6.58340259334731   -1.08222733475266   -1.01232363904182
H        -7.91435510619303   -0.19916101794611   -1.76347971552403
H        -7.61771742698111   -0.03199423752664   -0.03968992451805
H        -6.35798585099389    1.09742574143729    1.36904794002608
H        -6.66795253826987    0.40439231296215    3.48352733396901
H        -6.59135776677345    2.17403094056084    3.39782827669400
H        -6.28818438493994    1.34507845170154    4.91719915484023
H        -4.33019951936972   -0.03331366192136    5.27719440646653
H        -3.00773495646963   -0.10925504522136    4.11668749343845
H        -4.52229341087319   -0.94108746962748    3.77618476284399
H        -4.24019779767296    2.51703430978959    5.21259081288410
H        -2.90456084917682    2.42480724738675    4.07347190629919
H        -4.34162066855237    3.35902809959951    3.66641700012860
H        -2.20352103612684    1.20085452179252    2.32690339459497
116
 energy: -163.742871741632 gnorm: 0.016848058575 xtb: 6.3.3 (4ae9cef)
C        -2.81591491757243   -2.58054960463525    0.05478810269933
O        -2.55202956151528   -2.65848938905563    1.39107327594981
C        -3.20171023230164   -3.65303964998639    2.14538736201416
C        -3.88389473271976   -3.22576279182299   -0.55658020365653
C        -4.08223106948475   -3.11346380558072   -1.92042086498117
C        -3.22189451960313   -2.35539323631530   -2.69017343644433
C        -2.15871463584369   -1.70790444192833   -2.08553123534562
C        -1.94159748141997   -1.80616180527605   -0.72318126032454
C        -0.73518219530633   -1.17799106991401   -0.08332906477724
C         0.57444726318548   -1.85081145607082   -0.56981353309494
C         0.91800737801821   -3.17094865206369    0.07219493802012
C         0.61294907803569   -3.48457330118002    1.38390133508640
C         0.89345420326669   -4.73090292322680    1.91385544220601
C         1.48266344676289   -5.69554119002911    1.12165576644157
C         1.81100564409586   -5.40571997596180   -0.18867517223655
C         1.54411107351790   -4.15013288688197   -0.72150130164723
O         1.85251880587002   -3.80816477355121   -2.00435749576625
C         2.68803653743339   -4.66468608153405   -2.74614893527867
N         1.57558086786979   -0.78238574675076   -0.45937866362792
C         2.66532839062368   -0.78161756138361    0.39335731513341
C         3.68496731082256    0.26636172791071    0.07419536394881
C         4.32610283177047    0.91119234568648    1.12753072852451
C         5.32010585925678    1.84753497662975    0.88677222243589
C         6.00963336679686    2.61341578795745    2.01104345073042
C         7.53327152984632    2.58219442170275    1.83195435067243
C         5.52358811078178    4.06917487264915    1.97751031567869
C         5.69501370050680    2.03321603131431    3.39235059591810
C         5.65956694743027    2.10305794762060   -0.43756768200544
C         5.08388017105971    1.42832886202516   -1.50866901246631
C         5.52090565654175    1.75263384440585   -2.93343115899749
C         4.98241588780257    0.74863299667371   -3.95599416772094
C         7.05164871882078    1.76082019171229   -3.05131919110096
C         4.97479035197619    3.14243302318352   -3.28997337967584
C         4.08110429055598    0.50589412619048   -1.23698346360805
O         2.81337304707464   -1.59449844470404    1.28620165349258
C         0.90981272079052    0.44342109479412   -0.80309888704651
C         1.00785810146358    0.86136449865033   -2.29366296857963
O         0.60868977654224    2.09680683247004   -2.51461478701328
O         1.46260320017325    0.15687894003191   -3.14898424800507
N        -0.50612093426902    0.21498795636346   -0.45521154185621
C        -1.28938169603966    1.27389077172110   -0.19364405350146
C        -2.69738798216476    1.06961819432013    0.26708814862634
C        -3.70777079049498    1.03590636494688   -0.68730766962550
C        -5.03793378180141    1.03611991980726   -0.29892943212531
C        -6.18281664752654    1.02208101948776   -1.30506827334877
C        -5.69630367658107    0.86122290075004   -2.74713266588024
C        -6.96147251692573    2.34214695620121   -1.20951577806993
C        -7.12266501901804   -0.15091054055754   -0.99523671387505
C        -5.32299360791685    1.08575345245481    1.06334886925226
C        -4.33550280240396    1.13412264673755    2.03431938364023
C        -4.64310147669508    1.20494904991732    3.52574257914055
C        -6.14279948398213    1.28213848483544    3.82350090434021
C        -4.08365817808719   -0.05307160698249    4.20355850681058
C        -3.98336034450354    2.45045039106992    4.13560745497542
C        -3.00866397113308    1.12286240545228    1.61439652527571
O        -0.86794775399552    2.41768204791085   -0.38755964373597
H        -3.03973046504561   -4.64474146135142    1.71123399609997
H        -2.74755518233545   -3.60958710124747    3.13265362339989
H        -4.27697196505159   -3.46746971158836    2.23427591064007
H        -4.56608213045405   -3.82510902510150    0.02475246174503
H        -4.91149763435579   -3.63149243046983   -2.37787957938637
H        -3.36793990975386   -2.28158291611722   -3.75588224061892
H        -1.47854072343546   -1.12389404125905   -2.68639565666370
H        -0.83730408488621   -1.24913937932851    1.00478192016447
H         0.47537105793101   -2.03797867137643   -1.64816348162564
H         0.16426569737773   -2.74147602083224    2.02052165741073
H         0.65703496627196   -4.94612029135708    2.94362088248276
H         1.69743853553781   -6.67688669487678    1.51767623815550
H         2.27226369769292   -6.17012605463859   -0.79354916298225
H         3.62344092041239   -4.86482905290008   -2.21329926138327
H         2.90100271169215   -4.12978237460815   -3.66927295364325
H         2.20015086732416   -5.61609465159827   -2.98503003970974
H         4.01779978109279    0.65803980193616    2.12773144062375
H         7.88834874240579    1.55701182697635    1.77232096289408
H         7.84664505618294    3.10943165927987    0.93676716789038
H         8.00942090641152    3.06148843851551    2.68445044697812
H         5.77744634832853    4.54507209795889    1.03499354981534
H         4.44482971770149    4.10984031975663    2.10336269203961
H         5.98662090623953    4.63253197647186    2.78431903467132
H         4.63953113333150    2.12274636753051    3.63056043033407
H         6.25264638266565    2.58692555427283    4.14532724202571
H         5.98780785635230    0.98911933357967    3.45265817423486
H         6.41042644215473    2.84918868225598   -0.64155201851520
H         5.31943913521810   -0.25863217931382   -3.72749334401575
H         3.89783959757361    0.76057210530841   -3.99816621789410
H         5.35754335397969    1.01495408790325   -4.94190047689016
H         7.50336923770056    2.54608060696044   -2.45321411780933
H         7.33377849858531    1.93069700074323   -4.08778033097557
H         7.46360922741961    0.80589342104332   -2.73638255613414
H         3.89266935474790    3.15559039209521   -3.19143738638140
H         5.22982562894813    3.38673246096015   -4.31900399129456
H         5.39312943270961    3.90716175563212   -2.64083894607205
H         3.61499250690077   -0.05801571777960   -2.02563788779953
H         1.30628474843631    1.28204208494649   -0.20242646602975
H         0.13996244967783    2.48714119183548   -1.72237481956921