      -----------------------------------------------------------      
     |                   =====================                   |     
     |                           x T B                           |     
     |                   =====================                   |     
     |                         S. Grimme                         |     
     |          Mulliken Center for Theoretical Chemistry        |     
     |                    University of Bonn                     |     
      -----------------------------------------------------------      

   * xtb version 6.3.3 (4ae9cef) compiled by 'conda@95abc7406d43' on 2020-10-14

   xtb is free software: you can redistribute it and/or modify it under
   the terms of the GNU Lesser General Public License as published by
   the Free Software Foundation, either version 3 of the License, or
   (at your option) any later version.
   
   xtb is distributed in the hope that it will be useful,
   but WITHOUT ANY WARRANTY; without even the implied warranty of
   MERCHANTABILITY or FITNESS FOR A PARTICULAR PURPOSE.  See the
   GNU Lesser General Public License for more details.
   
   Cite this work as:
   * C. Bannwarth, E. Caldeweyher, S. Ehlert, A. Hansen, P. Pracht,
     J. Seibert, S. Spicher, S. Grimme, WIREs Comput. Mol. Sci., 2020,
     e01493. DOI: 10.1002/wcms.1493
   
   for GFN2-xTB:
   * S. Grimme, C. Bannwarth, P. Shushkov, J. Chem. Theory Comput., 2017,
     13, 1989-2009. DOI: 10.1021/acs.jctc.7b00118
   for GFN1-xTB:
   * C. Bannwarth, S. Ehlert and S. Grimme., J. Chem. Theory Comput., 2019,
     15, 1652-1671. DOI: 10.1021/acs.jctc.8b01176
   for GFN0-xTB:
   * P. Pracht, E. Caldeweyher, S. Ehlert, S. Grimme, ChemRxiv, 2019, preprint.
     DOI: 10.26434/chemrxiv.8326202.v1
   for GFN-FF:
   * S. Spicher and S. Grimme, Angew. Chem. Int. Ed., 2020, 59, 15665-15673.
     DOI: 10.1002/anie.202004239
   
   for DFT-D4:
   * E. Caldeweyher, C. Bannwarth and S. Grimme, J. Chem. Phys., 2017,
     147, 034112. DOI: 10.1063/1.4993215
   * E. Caldeweyher, S. Ehlert, A. Hansen, H. Neugebauer, S. Spicher,
     C. Bannwarth and S. Grimme, J. Chem. Phys., 2019, 150, 154122.
     DOI: 10.1063/1.5090222
   * E. Caldeweyher, J.-M. Mewes, S. Ehlert and S. Grimme, Phys. Chem. Chem. Phys.
     2020, 22, 8499-8512. DOI: 10.1039/D0CP00502A
   
   for sTDA-xTB:
   * S. Grimme and C. Bannwarth, J. Chem. Phys., 2016, 145, 054103.
     DOI: 10.1063/1.4959605
   
   in the mass-spec context:
   * V. Asgeirsson, C. Bauer and S. Grimme, Chem. Sci., 2017, 8, 4879.
     DOI: 10.1039/c7sc00601b
   * J. Koopman and S. Grimme, ACS Omega 2019, 4, 12, 15120-15133.
     DOI: 10.1021/acsomega.9b02011
   
   for metadynamics refer to:
   * S. Grimme, J. Chem. Theory Comput., 2019, 155, 2847-2862
     DOI: 10.1021/acs.jctc.9b00143
   
   with help from (in alphabetical order)
   C. Bannwarth, F. Bohle, G. Brandenburg, E. Caldeweyher, M. Checinski,
   S. Dohm, S. Ehlert, S. Ehrlich, F. März, H. Neugebauer, J. Pisarek,
   P. Pracht, P. Shushkov, and S. Spicher.
   
 * started run on 2022/03/17 at 02:20:27.487     

           -------------------------------------------------
          |                Calculation Setup                |
           -------------------------------------------------

          program call               : xtb sub_6.xyz --opt --chrg 0 --uhf 0 --gfn 2
          coordinate file            : sub_6.xyz
          omp threads                :                    64
          number of atoms            :                    28
          number of electrons        :                    78
          charge                     :                     0
          spin                       :                   0.0
          first test random number   :      0.94641955769077

   ID    Z sym.   atoms
    1    6 C      1-5, 7, 9-16
    2    7 N      6, 8
    3    1 H      17-28

           -------------------------------------------------
          |                 G F N 2 - x T B                 |
           -------------------------------------------------

        Reference                      10.1021/acs.jctc.8b01176
      * Hamiltonian:
        H0-scaling (s, p, d)           1.850000    2.230000    2.230000
        zeta-weighting                 0.500000
      * Dispersion:
        s8                             2.700000
        a1                             0.520000
        a2                             5.000000
        s9                             5.000000
      * Repulsion:
        kExp                           1.500000    1.000000
        rExp                           1.000000
      * Coulomb:
        alpha                          2.000000
        third order                    shell-resolved
        anisotropic                    true
        a3                             3.000000
        a5                             4.000000
        cn-shift                       1.200000
        cn-exp                         4.000000
        max-rad                        5.000000


          ...................................................
          :                      SETUP                      :
          :.................................................:
          :  # basis functions                  76          :
          :  # atomic orbitals                  76          :
          :  # shells                           44          :
          :  # electrons                        78          :
          :  max. iterations                   250          :
          :  Hamiltonian                  GFN2-xTB          :
          :  restarted?                      false          :
          :  GBSA solvation                  false          :
          :  PC potential                    false          :
          :  electronic temp.          300.0000000     K    :
          :  accuracy                    1.0000000          :
          :  -> integral cutoff          0.2500000E+02      :
          :  -> integral neglect         0.1000000E-07      :
          :  -> SCF convergence          0.1000000E-05 Eh   :
          :  -> wf. convergence          0.1000000E-03 e    :
          :  Broyden damping             0.4000000          :
          ...................................................

 iter      E             dE          RMSdq      gap      omega  full diag
   1    -42.5990889 -0.425991E+02  0.422E+00    3.03       0.0  T
   2    -42.6407509 -0.416619E-01  0.270E+00    2.83       1.0  T
   3    -42.6279523  0.127986E-01  0.124E+00    2.95       1.0  T
   4    -42.6452914 -0.173390E-01  0.458E-01    2.73       1.0  T
   5    -42.6495322 -0.424084E-02  0.119E-01    2.78       1.0  T
   6    -42.6497097 -0.177554E-03  0.526E-02    2.78       1.0  T
   7    -42.6497556 -0.458935E-04  0.209E-02    2.78       1.0  T
   8    -42.6497559 -0.239965E-06  0.851E-03    2.78       2.2  T
   9    -42.6497569 -0.100306E-05  0.185E-03    2.78      10.2  T
  10    -42.6497569 -0.628932E-07  0.855E-04    2.78      22.1  T
  11    -42.6497569 -0.392635E-08  0.399E-04    2.78      47.3  T

   *** convergence criteria satisfied after 11 iterations ***

         #    Occupation            Energy/Eh            Energy/eV
      -------------------------------------------------------------
         1        2.0000           -0.6674720             -18.1628
       ...           ...                  ...                  ...
        33        2.0000           -0.4278052             -11.6412
        34        2.0000           -0.4224188             -11.4946
        35        2.0000           -0.4148778             -11.2894
        36        2.0000           -0.4053047             -11.0289
        37        2.0000           -0.3808401             -10.3632
        38        2.0000           -0.3767858             -10.2529
        39        2.0000           -0.3608179              -9.8184 (HOMO)
        40                         -0.2585411              -7.0353 (LUMO)
        41                         -0.2432659              -6.6196
        42                         -0.2302245              -6.2647
        43                         -0.1932931              -5.2598
        44                         -0.1588162              -4.3216
       ...                                ...                  ...
        76                          0.7077981              19.2602
      -------------------------------------------------------------
                  HL-Gap            0.1022768 Eh            2.7831 eV
             Fermi-level           -0.3096795 Eh           -8.4268 eV

 SCC (total)                   0 d,  0 h,  0 min,  0.238 sec
 SCC setup                      ...        0 min,  0.015 sec (  6.261%)
 Dispersion                     ...        0 min,  0.017 sec (  7.263%)
 classical contributions        ...        0 min,  0.024 sec ( 10.030%)
 integral evaluation            ...        0 min,  0.025 sec ( 10.345%)
 iterations                     ...        0 min,  0.023 sec (  9.645%)
 molecular gradient             ...        0 min,  0.134 sec ( 56.331%)
 printout                       ...        0 min,  0.000 sec (  0.097%)

         :::::::::::::::::::::::::::::::::::::::::::::::::::::
         ::                     SUMMARY                     ::
         :::::::::::::::::::::::::::::::::::::::::::::::::::::
         :: total energy             -41.947765751176 Eh    ::
         :: gradient norm              0.076643193942 Eh/a0 ::
         :: HOMO-LUMO gap              2.783094441998 eV    ::
         ::.................................................::
         :: SCC energy               -42.649756947428 Eh    ::
         :: -> isotropic ES            0.012204599475 Eh    ::
         :: -> anisotropic ES          0.005179508508 Eh    ::
         :: -> anisotropic XC          0.029598830623 Eh    ::
         :: -> dispersion             -0.029136958032 Eh    ::
         :: repulsion energy           0.702113320420 Eh    ::
         :: add. restraining           0.000000000000 Eh    ::
         :: total charge               0.000000000000 e     ::
         :::::::::::::::::::::::::::::::::::::::::::::::::::::

      ----------------------------------------------------------- 
     |                   =====================                   |
     |                        A N C O P T                        |
     |                   =====================                   |
     |               Approximate Normal Coordinate               |
     |                Rational Function Optimizer                |
      ----------------------------------------------------------- 

          ...................................................
          :                      SETUP                      :
          :.................................................:
          :   optimization level            normal          :
          :   max. optcycles                   200          :
          :   ANC micro-cycles                  20          :
          :   degrees of freedom                78          :
          :.................................................:
          :   RF solver                   davidson          :
          :   write xtbopt.log                true          :
          :   linear?                        false          :
          :   energy convergence         0.5000000E-05 Eh   :
          :   grad. convergence          0.1000000E-02 Eh/α :
          :   maximium RF displ.         1.0000000          :
          :   Hlow (freq-cutoff)         0.1000000E-01      :
          :   Hmax (freq-cutoff)         5.0000000          :
          :   S6 in model hess.         20.0000000          :
          ...................................................

generating ANC from model Hessian ...
Using Lindh-Hessian (1995)
 Shifting diagonal of input Hessian by    9.0551111655294853E-003
 Lowest  eigenvalues of input Hessian
    0.000000    0.000000    0.000000    0.000000    0.000000    0.000000
    0.010000    0.010698    0.011087    0.013392    0.017461    0.018206
    0.019283    0.023811    0.024231    0.026884    0.029749    0.030776
 Highest eigenvalues
    1.909105    1.944164    1.969941    2.013845    2.083108    2.115554


........................................................................
.............................. CYCLE    1 ..............................
........................................................................
   1    -42.6497569 -0.426498E+02  0.154E-04    2.78       0.0  T
   2    -42.6497569 -0.157748E-09  0.898E-05    2.78     210.5  T
   3    -42.6497569 -0.883134E-10  0.553E-05    2.78     341.9  T
     SCC iter.                  ...        0 min,  0.006 sec
     gradient                   ...        0 min,  0.128 sec
 * total energy  :   -41.9477658 Eh     change       -0.1710312E-08 Eh
   gradient norm :     0.0766448 Eh/α   predicted     0.0000000E+00 (-100.00%)
   displ. norm   :     0.3021094 α      lambda       -0.9928451E-02
   maximum displ.:     0.1540179 α      in ANC's #12, #9, #18, ...

........................................................................
.............................. CYCLE    2 ..............................
........................................................................
   1    -42.6884862 -0.426885E+02  0.190E-01    2.94       0.0  T
   2    -42.6885738 -0.875972E-04  0.133E-01    2.95       1.0  T
   3    -42.6885755 -0.172268E-05  0.682E-02    2.95       1.0  T
   4    -42.6886407 -0.651814E-04  0.154E-02    2.96       1.2  T
   5    -42.6886450 -0.429844E-05  0.518E-03    2.96       3.7  T
   6    -42.6886453 -0.271299E-06  0.250E-03    2.96       7.6  T
   7    -42.6886453 -0.344871E-07  0.771E-04    2.96      24.5  T
   8    -42.6886453 -0.737236E-08  0.207E-04    2.96      91.2  T
     SCC iter.                  ...        0 min,  0.014 sec
     gradient                   ...        0 min,  0.133 sec
 * total energy  :   -41.9544789 Eh     change       -0.6713182E-02 Eh
   gradient norm :     0.0302632 Eh/α   predicted    -0.5417330E-02 ( -19.30%)
   displ. norm   :     0.2441918 α      lambda       -0.2475461E-02
   maximum displ.:     0.1232696 α      in ANC's #12, #9, #10, ...

........................................................................
.............................. CYCLE    3 ..............................
........................................................................
   1    -42.7071481 -0.427071E+02  0.114E-01    3.04       0.0  T
   2    -42.7072000 -0.518900E-04  0.849E-02    3.05       1.0  T
   3    -42.7072230 -0.230500E-04  0.435E-02    3.06       1.0  T
   4    -42.7072360 -0.129079E-04  0.122E-02    3.06       1.5  T
   5    -42.7072383 -0.237175E-05  0.383E-03    3.06       4.9  T
   6    -42.7072385 -0.193334E-06  0.168E-03    3.06      11.3  T
   7    -42.7072385 -0.148476E-07  0.538E-04    3.06      35.1  T
   8    -42.7072385 -0.325571E-08  0.142E-04    3.06     133.4  T
     SCC iter.                  ...        0 min,  0.020 sec
     gradient                   ...        0 min,  0.125 sec
 * total energy  :   -41.9558348 Eh     change       -0.1355823E-02 Eh
   gradient norm :     0.0064363 Eh/α   predicted    -0.1311541E-02 (  -3.27%)
   displ. norm   :     0.1096537 α      lambda       -0.2114751E-03
   maximum displ.:     0.0680103 α      in ANC's #3, #1, #12, ...

........................................................................
.............................. CYCLE    4 ..............................
........................................................................
   1    -42.7070145 -0.427070E+02  0.459E-02    3.06       0.0  T
   2    -42.7070165 -0.203169E-05  0.281E-02    3.06       1.0  T
   3    -42.7070139  0.258652E-05  0.107E-02    3.06       1.8  T
   4    -42.7070170 -0.301122E-05  0.275E-03    3.06       6.9  T
   5    -42.7070171 -0.176310E-06  0.739E-04    3.06      25.6  T
   6    -42.7070171 -0.551508E-08  0.357E-04    3.06      53.0  T
     SCC iter.                  ...        0 min,  0.017 sec
     gradient                   ...        0 min,  0.152 sec
 * total energy  :   -41.9559918 Eh     change       -0.1570676E-03 Eh
   gradient norm :     0.0034311 Eh/α   predicted    -0.1070221E-03 ( -31.86%)
   displ. norm   :     0.1611110 α      lambda       -0.1685014E-03
   maximum displ.:     0.1097102 α      in ANC's #3, #1, #2, ...

........................................................................
.............................. CYCLE    5 ..............................
........................................................................
   1    -42.7057810 -0.427058E+02  0.627E-02    3.06       0.0  T
   2    -42.7057825 -0.149299E-05  0.372E-02    3.06       1.0  T
   3    -42.7057805  0.201129E-05  0.102E-02    3.06       1.9  T
   4    -42.7057830 -0.249020E-05  0.182E-03    3.06      10.4  T
   5    -42.7057830 -0.426240E-07  0.851E-04    3.06      22.2  T
   6    -42.7057830 -0.406854E-08  0.412E-04    3.06      45.9  T
     SCC iter.                  ...        0 min,  0.012 sec
     gradient                   ...        0 min,  0.119 sec
 * total energy  :   -41.9561066 Eh     change       -0.1147814E-03 Eh
   gradient norm :     0.0033960 Eh/α   predicted    -0.8643796E-04 ( -24.69%)
   displ. norm   :     0.1291455 α      lambda       -0.7931037E-04
   maximum displ.:     0.0856921 α      in ANC's #3, #1, #2, ...

........................................................................
.............................. CYCLE    6 ..............................
........................................................................
   1    -42.7054040 -0.427054E+02  0.501E-02    3.05       0.0  T
   2    -42.7054046 -0.590714E-06  0.293E-02    3.05       1.0  T
   3    -42.7054037  0.894925E-06  0.649E-03    3.05       2.9  T
   4    -42.7054049 -0.113011E-05  0.112E-03    3.05      16.9  T
   5    -42.7054049 -0.805749E-08  0.535E-04    3.05      35.3  T
   6    -42.7054049 -0.204295E-08  0.219E-04    3.05      86.4  T
     SCC iter.                  ...        0 min,  0.015 sec
     gradient                   ...        0 min,  0.137 sec
 * total energy  :   -41.9561724 Eh     change       -0.6574860E-04 Eh
   gradient norm :     0.0036062 Eh/α   predicted    -0.4031786E-04 ( -38.68%)
   displ. norm   :     0.1803962 α      lambda       -0.1029591E-03
   maximum displ.:     0.1126935 α      in ANC's #3, #1, #2, ...

........................................................................
.............................. CYCLE    7 ..............................
........................................................................
   1    -42.7054210 -0.427054E+02  0.716E-02    3.05       0.0  T
   2    -42.7054225 -0.149532E-05  0.417E-02    3.04       1.0  T
   3    -42.7054211  0.140620E-05  0.802E-03    3.04       2.4  T
   4    -42.7054229 -0.177825E-05  0.196E-03    3.04       9.6  T
   5    -42.7054230 -0.587949E-07  0.795E-04    3.04      23.8  T
   6    -42.7054230 -0.195626E-08  0.429E-04    3.04      44.0  T
     SCC iter.                  ...        0 min,  0.013 sec
     gradient                   ...        0 min,  0.130 sec
 * total energy  :   -41.9562559 Eh     change       -0.8351471E-04 Eh
   gradient norm :     0.0028195 Eh/α   predicted    -0.5315831E-04 ( -36.35%)
   displ. norm   :     0.2317409 α      lambda       -0.1006880E-03
   maximum displ.:     0.1405045 α      in ANC's #1, #3, #2, ...

........................................................................
.............................. CYCLE    8 ..............................
........................................................................
   1    -42.7055458 -0.427055E+02  0.940E-02    3.05       0.0  T
   2    -42.7055480 -0.214013E-05  0.547E-02    3.04       1.0  T
   3    -42.7055471  0.885806E-06  0.727E-03    3.04       2.6  T
   4    -42.7055484 -0.131838E-05  0.233E-03    3.04       8.1  T
   5    -42.7055485 -0.858143E-07  0.906E-04    3.04      20.9  T
   6    -42.7055485 -0.735710E-09  0.441E-04    3.04      42.9  T
     SCC iter.                  ...        0 min,  0.015 sec
     gradient                   ...        0 min,  0.144 sec
 * total energy  :   -41.9563292 Eh     change       -0.7329603E-04 Eh
   gradient norm :     0.0021172 Eh/α   predicted    -0.5305338E-04 ( -27.62%)
   displ. norm   :     0.1604715 α      lambda       -0.4667007E-04
   maximum displ.:     0.1064602 α      in ANC's #1, #3, #2, ...

........................................................................
.............................. CYCLE    9 ..............................
........................................................................
   1    -42.7059696 -0.427060E+02  0.661E-02    3.04       0.0  T
   2    -42.7059703 -0.748962E-06  0.384E-02    3.04       1.0  T
   3    -42.7059702  0.165303E-06  0.404E-03    3.03       4.7  T
   4    -42.7059705 -0.349544E-06  0.142E-03    3.03      13.3  T
   5    -42.7059706 -0.220588E-07  0.637E-04    3.03      29.7  T
   6    -42.7059706 -0.146655E-08  0.272E-04    3.03      69.5  T
     SCC iter.                  ...        0 min,  0.019 sec
     gradient                   ...        0 min,  0.018 sec
 * total energy  :   -41.9563637 Eh     change       -0.3451326E-04 Eh
   gradient norm :     0.0015311 Eh/α   predicted    -0.2393954E-04 ( -30.64%)
   displ. norm   :     0.1284232 α      lambda       -0.2243269E-04
   maximum displ.:     0.0988484 α      in ANC's #1, #2, #3, ...

........................................................................
.............................. CYCLE   10 ..............................
........................................................................
   1    -42.7068243 -0.427068E+02  0.533E-02    3.04       0.0  T
   2    -42.7068247 -0.378853E-06  0.311E-02    3.03       1.0  T
   3    -42.7068240  0.634774E-06  0.535E-03    3.04       3.5  T
   4    -42.7068248 -0.800077E-06  0.106E-03    3.03      17.8  T
   5    -42.7068248 -0.591895E-08  0.557E-04    3.04      33.9  T
   6    -42.7068248 -0.238401E-08  0.180E-04    3.03     105.1  T
     SCC iter.                  ...        0 min,  0.014 sec
     gradient                   ...        0 min,  0.028 sec
 * total energy  :   -41.9563866 Eh     change       -0.2291033E-04 Eh
   gradient norm :     0.0009129 Eh/α   predicted    -0.1129912E-04 ( -50.68%)
   displ. norm   :     0.0514509 α      lambda       -0.8850556E-05
   maximum displ.:     0.0463009 α      in ANC's #1, #2, #5, ...

........................................................................
.............................. CYCLE   11 ..............................
........................................................................
   1    -42.7067646 -0.427068E+02  0.164E-02    3.03       0.0  T
   2    -42.7067647 -0.457036E-07  0.960E-03    3.03       2.0  T
   3    -42.7067646  0.129291E-06  0.223E-03    3.03       8.5  T
   4    -42.7067647 -0.151339E-06  0.372E-04    3.03      50.8  T
   5    -42.7067647 -0.185612E-08  0.183E-04    3.03     103.1  T
     SCC iter.                  ...        0 min,  0.017 sec
     gradient                   ...        0 min,  0.134 sec
 * total energy  :   -41.9563980 Eh     change       -0.1144115E-04 Eh
   gradient norm :     0.0006381 Eh/α   predicted    -0.4431925E-05 ( -61.26%)
   displ. norm   :     0.0527288 α      lambda       -0.9261734E-05
   maximum displ.:     0.0398282 α      in ANC's #1, #3, #6, ...

........................................................................
.............................. CYCLE   12 ..............................
........................................................................
   1    -42.7067564 -0.427068E+02  0.121E-02    3.04       0.0  T
   2    -42.7067564 -0.308059E-07  0.715E-03    3.04       2.6  T
   3    -42.7067563  0.803580E-07  0.162E-03    3.04      11.7  T
   4    -42.7067564 -0.935835E-07  0.325E-04    3.04      58.2  T
   5    -42.7067564 -0.163146E-08  0.153E-04    3.04     123.6  T
     SCC iter.                  ...        0 min,  0.009 sec
     gradient                   ...        0 min,  0.148 sec
 * total energy  :   -41.9564098 Eh     change       -0.1177129E-04 Eh
   gradient norm :     0.0007021 Eh/α   predicted    -0.4638697E-05 ( -60.59%)
   displ. norm   :     0.0665724 α      lambda       -0.1016614E-04
   maximum displ.:     0.0485688 α      in ANC's #1, #3, #6, ...

........................................................................
.............................. CYCLE   13 ..............................
........................................................................
   1    -42.7065117 -0.427065E+02  0.149E-02    3.03       0.0  T
   2    -42.7065117 -0.303436E-07  0.878E-03    3.04       2.2  T
   3    -42.7065117  0.367494E-07  0.123E-03    3.04      15.4  T
   4    -42.7065117 -0.486365E-07  0.289E-04    3.04      65.4  T
   5    -42.7065117 -0.579611E-09  0.125E-04    3.04     151.1  T
     SCC iter.                  ...        0 min,  0.012 sec
     gradient                   ...        0 min,  0.154 sec
 * total energy  :   -41.9564224 Eh     change       -0.1258146E-04 Eh
   gradient norm :     0.0008064 Eh/α   predicted    -0.5094355E-05 ( -59.51%)
   displ. norm   :     0.0743289 α      lambda       -0.9349292E-05
   maximum displ.:     0.0556263 α      in ANC's #1, #3, #6, ...

........................................................................
.............................. CYCLE   14 ..............................
........................................................................
   1    -42.7064271 -0.427064E+02  0.149E-02    3.04       0.0  T
   2    -42.7064271 -0.198477E-07  0.879E-03    3.04       2.2  T
   3    -42.7064271  0.170151E-07  0.976E-04    3.03      19.4  T
   4    -42.7064272 -0.258791E-07  0.277E-04    3.03      68.1  T
     SCC iter.                  ...        0 min,  0.012 sec
     gradient                   ...        0 min,  0.146 sec
 * total energy  :   -41.9564340 Eh     change       -0.1164396E-04 Eh
   gradient norm :     0.0006012 Eh/α   predicted    -0.4686705E-05 ( -59.75%)
   displ. norm   :     0.0772575 α      lambda       -0.7443855E-05
   maximum displ.:     0.0600996 α      in ANC's #1, #3, #2, ...

........................................................................
.............................. CYCLE   15 ..............................
........................................................................
   1    -42.7065770 -0.427066E+02  0.157E-02    3.04       0.0  T
   2    -42.7065770 -0.311246E-07  0.921E-03    3.04       2.1  T
   3    -42.7065770  0.462648E-07  0.137E-03    3.03      13.8  T
   4    -42.7065770 -0.575083E-07  0.348E-04    3.03      54.4  T
   5    -42.7065770 -0.156310E-08  0.166E-04    3.03     113.8  T
     SCC iter.                  ...        0 min,  0.009 sec
     gradient                   ...        0 min,  0.130 sec
 * total energy  :   -41.9564431 Eh     change       -0.9038546E-05 Eh
   gradient norm :     0.0003575 Eh/α   predicted    -0.3733562E-05 ( -58.69%)
   displ. norm   :     0.0581087 α      lambda       -0.4424656E-05
   maximum displ.:     0.0485252 α      in ANC's #1, #3, #2, ...

........................................................................
.............................. CYCLE   16 ..............................
........................................................................
   1    -42.7065091 -0.427065E+02  0.138E-02    3.03       0.0  T
   2    -42.7065092 -0.295312E-07  0.809E-03    3.03       2.3  T
   3    -42.7065091  0.365632E-07  0.141E-03    3.03      13.4  T
   4    -42.7065092 -0.469151E-07  0.280E-04    3.03      67.6  T
   5    -42.7065092 -0.598199E-09  0.139E-04    3.03     136.2  T
     SCC iter.                  ...        0 min,  0.008 sec
     gradient                   ...        0 min,  0.145 sec
 * total energy  :   -41.9564486 Eh     change       -0.5521176E-05 Eh
   gradient norm :     0.0003170 Eh/α   predicted    -0.2216995E-05 ( -59.85%)
   displ. norm   :     0.0454537 α      lambda       -0.3113071E-05
   maximum displ.:     0.0380149 α      in ANC's #1, #2, #5, ...

........................................................................
.............................. CYCLE   17 ..............................
........................................................................
   1    -42.7066014 -0.427066E+02  0.132E-02    3.03       0.0  T
   2    -42.7066014 -0.327797E-07  0.768E-03    3.03       2.5  T
   3    -42.7066014  0.370873E-07  0.136E-03    3.03      13.8  T
   4    -42.7066014 -0.459868E-07  0.307E-04    3.03      61.7  T
   5    -42.7066014 -0.117119E-08  0.146E-04    3.03     129.7  T
     SCC iter.                  ...        0 min,  0.017 sec
     gradient                   ...        0 min,  0.137 sec
 * total energy  :   -41.9564527 Eh     change       -0.4135460E-05 Eh
   gradient norm :     0.0002895 Eh/α   predicted    -0.1561476E-05 ( -62.24%)
   displ. norm   :     0.0466194 α      lambda       -0.2116939E-05
   maximum displ.:     0.0394015 α      in ANC's #1, #2, #5, ...

   *** GEOMETRY OPTIMIZATION CONVERGED AFTER 17 ITERATIONS ***

------------------------------------------------------------------------
 total energy gain   :        -0.0086870 Eh       -5.4512 kcal/mol
 total RMSD          :         0.2776711 a0        0.1469 Å
 total power (kW/mol):        -1.3416260 (step)   -6.1288 (real)
------------------------------------------------------------------------

 ANCopt (total)                0 d,  0 h,  0 min,  3.721 sec
 optimizer setup                ...        0 min,  0.000 sec (  0.002%)
 model hessian                  ...        0 min,  0.004 sec (  0.102%)
 ANC generation                 ...        0 min,  0.001 sec (  0.034%)
 coordinate transformation      ...        0 min,  0.000 sec (  0.006%)
 single point calculation       ...        0 min,  3.492 sec ( 93.844%)
 optimization log               ...        0 min,  0.016 sec (  0.419%)
 hessian update                 ...        0 min,  0.206 sec (  5.532%)
 rational function              ...        0 min,  0.001 sec (  0.033%)

================
 final structure:
================
28
 xtb: 6.3.3 (4ae9cef)
C         4.87736593248291    0.31658137691142   -0.50375320309394
C         3.41258050336081    0.07728306866112   -0.32108077323920
C         2.56343718627632    1.06470511385992    0.17161454196162
C         1.21254386389556    0.81263286552270    0.30680687431697
C         2.82916851600145   -1.14526029981961   -0.63345023390364
N         1.54060620379050   -1.39957381989036   -0.52125087032197
C         0.73267188318377   -0.44098672019057   -0.07903673932161
N        -0.60704068918021   -0.79067228042695    0.02872361263814
C        -1.02130456964177   -2.08100699496534    0.28105795733906
C        -2.36884197585277   -2.12989856603444    0.41061969889430
C        -2.85680954831415   -0.80553189399883    0.20495223733266
C        -1.72689279072456    0.01242727340697   -0.04432463518177
C        -1.88076430405438    1.35338446187874   -0.37357061677439
C        -3.15874185238820    1.87528578559800   -0.38474894053827
C        -4.27181727829528    1.08777089902064   -0.09022881888095
C        -4.13503008786698   -0.25339867239783    0.19172202419952
H         5.43920282148055   -0.60423636869027   -0.36482595550235
H         5.07248716007392    0.68142490219431   -1.51290849190246
H         5.23755430739164    1.06340812623670    0.20043492904176
H         2.96475950276729    2.02486566283356    0.46493246682788
H         0.55345780194353    1.54815461482306    0.73697727243756
H         3.43038207181776   -1.97066820642099   -0.99404009387174
H        -0.28579628636110   -2.85688661250660    0.35991591282477
H        -2.96144508652298   -2.99666933981614    0.62573102795074
H        -1.04059038441702    1.97442901747729   -0.64285387889482
H        -3.30077509679932    2.91654810526695   -0.63425640648930
H        -5.25329861534248    1.53855878372443   -0.10305002653626
H        -4.99707218870457   -0.87267228225763    0.39021712868804

 Bond Distances (Angstroems)
 ---------------------------
C1-C2=1.4954         C1-H17=1.0876        C1-H18=1.0907        C1-H19=1.0878        C2-C1=1.4954         C2-C3=1.3924         
C2-C5=1.3902         C3-C2=1.3924         C3-C4=1.3808         C3-H20=1.0812        C4-C3=1.3808         C4-C7=1.3967         
C4-H21=1.0772        C5-C2=1.3902         C5-N6=1.3182         C5-H22=1.0830        N6-C5=1.3182         N6-C7=1.3294         
C7-C4=1.3967         C7-N6=1.3294         C7-N8=1.3888         N8-C7=1.3888         N8-C9=1.3785         N8-C12=1.3800        
C9-N8=1.3785         C9-C10=1.3546        C9-H23=1.0720        C10-C9=1.3546        C10-C11=1.4263       C10-H24=1.0718       
C11-C10=1.4263       C11-C12=1.4170       C11-C16=1.3924       C12-N8=1.3800        C12-C11=1.4170       C12-C13=1.3893       
C13-C12=1.3893       C13-C14=1.3805       C13-H25=1.0789       C14-C13=1.3805       C14-C15=1.3949       C14-H26=1.0801       
C15-C14=1.3949       C15-C16=1.3773       C15-H27=1.0801       C16-C11=1.3924       C16-C15=1.3773       C16-H28=1.0798       
H17-C1=1.0876        H18-C1=1.0907        H19-C1=1.0878        H20-C3=1.0812        H21-C4=1.0772        H22-C5=1.0830        
H23-C9=1.0720        H24-C10=1.0718       H25-C13=1.0789       H26-C14=1.0801       H27-C15=1.0801       H28-C16=1.0798       
 C  H  Rav=1.0809 sigma=0.0056  Rmin=1.0718  Rmax=1.0907    12
 C  C  Rav=1.3991 sigma=0.0325  Rmin=1.3546  Rmax=1.4954    13
 N  C  Rav=1.3590 sigma=0.0292  Rmin=1.3182  Rmax=1.3888     5

 selected bond angles (degree)
 --------------------
H17-C1-C2=110.79               H18-C1-C2=109.99               H18-C1-H17=108.00              H19-C1-C2=110.80               
H19-C1-H17=109.12              H19-C1-H18=108.06              C3-C2-C1=121.81                C5-C2-C1=121.63                
C5-C2-C3=116.57                C4-C3-C2=120.12                H20-C3-C2=119.96               H20-C3-C4=119.91               
C7-C4-C3=118.22                H21-C4-C3=120.86               H21-C4-C7=120.86               N6-C5-C2=124.11                
H22-C5-C2=120.80               H22-C5-N6=115.09               C7-N6-C5=118.90                N6-C7-C4=122.03                
N8-C7-C4=122.41                N8-C7-N6=115.50                C9-N8-C7=122.67                C12-N8-C7=129.21               
C12-N8-C9=108.09               C10-C9-N8=110.50               H23-C9-N8=119.00               H23-C9-C10=130.49              
C11-C10-C9=107.04              H24-C10-C9=126.76              H24-C10-C11=126.21             

 selected dihedral angles (degree)
 ---------------------------------
C3-C2-C1-H17=149.30           C3-C2-C1-H18=268.63           C3-C2-C1-H19= 28.04           C5-C2-C1-H17=329.40           
C5-C2-C1-H18= 88.72           C5-C2-C1-H19=208.13           C4-C3-C2-C1=178.99            C4-C3-C2-C5=358.91            
H20-C3-C2-C1=357.94           H20-C3-C2-C5=177.85           C7-C4-C3-C2=359.15            C7-C4-C3-H20=180.20           
H21-C4-C3-C2=176.61           H21-C4-C3-H20=357.66          N6-C5-C2-C1=181.64            N6-C5-C2-C3=  1.73            
H22-C5-C2-C1=  1.72           H22-C5-C2-C3=181.81           C7-N6-C5-C2=359.76            C7-N6-C5-H22=179.68           
N6-C7-C4-C3=  2.45            N6-C7-C4-H21=184.99           N8-C7-C4-C3=179.51            N8-C7-C4-H21=  2.05           
C4-C7-N6-C5=358.08            N8-C7-N6-C5=180.84            C9-N8-C7-C4=211.87            C9-N8-C7-N6= 29.11            
C12-N8-C7-C4= 29.77           C12-N8-C7-N6=207.01           C10-C9-N8-C7=176.57           C10-C9-N8-C12=358.28          
H23-C9-N8-C7=357.52           H23-C9-N8-C12=179.23          C11-C10-C9-N8=  1.20          C11-C10-C9-H23=180.10         
H24-C10-C9-N8=181.13          H24-C10-C9-H23=  0.04         
           -------------------------------------------------
          |                Final Singlepoint                |
           -------------------------------------------------

          ...................................................
          :                      SETUP                      :
          :.................................................:
          :  # basis functions                  76          :
          :  # atomic orbitals                  76          :
          :  # shells                           44          :
          :  # electrons                        78          :
          :  max. iterations                   250          :
          :  Hamiltonian                  GFN2-xTB          :
          :  restarted?                      false          :
          :  GBSA solvation                  false          :
          :  PC potential                    false          :
          :  electronic temp.          300.0000000     K    :
          :  accuracy                    1.0000000          :
          :  -> integral cutoff          0.2500000E+02      :
          :  -> integral neglect         0.1000000E-07      :
          :  -> SCF convergence          0.1000000E-05 Eh   :
          :  -> wf. convergence          0.1000000E-03 e    :
          :  Broyden damping             0.4000000          :
          ...................................................

 iter      E             dE          RMSdq      gap      omega  full diag
   1    -42.7066014 -0.427066E+02  0.667E-05    3.03       0.0  T
   2    -42.7066014 -0.166978E-10  0.436E-05    3.03     433.8  T
   3    -42.7066014 -0.190354E-10  0.240E-05    3.03     788.0  T

   *** convergence criteria satisfied after 3 iterations ***

         #    Occupation            Energy/Eh            Energy/eV
      -------------------------------------------------------------
         1        2.0000           -0.6748458             -18.3635
       ...           ...                  ...                  ...
        33        2.0000           -0.4269187             -11.6170
        34        2.0000           -0.4230611             -11.5121
        35        2.0000           -0.4144193             -11.2769
        36        2.0000           -0.4070313             -11.0759
        37        2.0000           -0.3789236             -10.3110
        38        2.0000           -0.3750575             -10.2058
        39        2.0000           -0.3625932              -9.8667 (HOMO)
        40                         -0.2511588              -6.8344 (LUMO)
        41                         -0.2420538              -6.5866
        42                         -0.2253956              -6.1333
        43                         -0.1921504              -5.2287
        44                         -0.1541078              -4.1935
       ...                                ...                  ...
        76                          0.7351619              20.0048
      -------------------------------------------------------------
                  HL-Gap            0.1114344 Eh            3.0323 eV
             Fermi-level           -0.3068760 Eh           -8.3505 eV

 SCC (total)                   0 d,  0 h,  0 min,  0.212 sec
 SCC setup                      ...        0 min,  0.011 sec (  5.250%)
 Dispersion                     ...        0 min,  0.018 sec (  8.478%)
 classical contributions        ...        0 min,  0.018 sec (  8.506%)
 integral evaluation            ...        0 min,  0.025 sec ( 11.926%)
 iterations                     ...        0 min,  0.007 sec (  3.266%)
 molecular gradient             ...        0 min,  0.133 sec ( 62.448%)
 printout                       ...        0 min,  0.000 sec (  0.092%)

         :::::::::::::::::::::::::::::::::::::::::::::::::::::
         ::                     SUMMARY                     ::
         :::::::::::::::::::::::::::::::::::::::::::::::::::::
         :: total energy             -41.956452723596 Eh    ::
         :: gradient norm              0.000289192422 Eh/a0 ::
         :: HOMO-LUMO gap              3.032284850845 eV    ::
         ::.................................................::
         :: SCC energy               -42.706601414570 Eh    ::
         :: -> isotropic ES            0.011969886731 Eh    ::
         :: -> anisotropic ES          0.004865266441 Eh    ::
         :: -> anisotropic XC          0.028210376729 Eh    ::
         :: -> dispersion             -0.029542989403 Eh    ::
         :: repulsion energy           0.750255626427 Eh    ::
         :: add. restraining           0.000000000000 Eh    ::
         :: total charge               0.000000000000 e     ::
         :::::::::::::::::::::::::::::::::::::::::::::::::::::

           -------------------------------------------------
          |                Property Printout                |
           -------------------------------------------------

    * Orbital Energies and Occupations

         #    Occupation            Energy/Eh            Energy/eV
      -------------------------------------------------------------
         1        2.0000           -0.6748458             -18.3635
       ...           ...                  ...                  ...
        27        2.0000           -0.4729232             -12.8689
        28        2.0000           -0.4618399             -12.5673
        29        2.0000           -0.4551520             -12.3853
        30        2.0000           -0.4539517             -12.3527
        31        2.0000           -0.4489052             -12.2153
        32        2.0000           -0.4359883             -11.8638
        33        2.0000           -0.4269187             -11.6170
        34        2.0000           -0.4230611             -11.5121
        35        2.0000           -0.4144193             -11.2769
        36        2.0000           -0.4070313             -11.0759
        37        2.0000           -0.3789236             -10.3110
        38        2.0000           -0.3750575             -10.2058
        39        2.0000           -0.3625932              -9.8667 (HOMO)
        40                         -0.2511588              -6.8344 (LUMO)
        41                         -0.2420538              -6.5866
        42                         -0.2253956              -6.1333
        43                         -0.1921504              -5.2287
        44                         -0.1541078              -4.1935
        45                         -0.1069507              -2.9103
        46                         -0.0684906              -1.8637
        47                          0.0244205               0.6645
        48                          0.0959262               2.6103
        49                          0.1198113               3.2602
        50                          0.1226309               3.3370
       ...                                ...                  ...
        76                          0.7351619              20.0048
      -------------------------------------------------------------
                  HL-Gap            0.1114344 Eh            3.0323 eV
             Fermi-level           -0.3068760 Eh           -8.3505 eV

     #   Z          covCN         q      C6AA      α(0)
     1   6 C        3.757    -0.110    22.649     6.785
     2   6 C        2.961     0.001    28.013     8.681
     3   6 C        2.935    -0.023    28.570     8.766
     4   6 C        2.913    -0.059    29.466     8.901
     5   6 C        2.911     0.052    26.843     8.496
     6   7 N        1.846    -0.246    27.278     7.741
     7   6 C        2.903     0.143    24.891     8.180
     8   7 N        2.832    -0.018    21.604     6.903
     9   6 C        3.037     0.001    27.963     8.674
    10   6 C        3.000    -0.069    29.701     8.940
    11   6 C        3.115    -0.007    28.040     8.674
    12   6 C        3.079     0.037    27.087     8.532
    13   6 C        2.909    -0.049    29.220     8.864
    14   6 C        2.924    -0.037    28.933     8.821
    15   6 C        2.920    -0.039    28.979     8.828
    16   6 C        2.912    -0.036    28.898     8.815
    17   1 H        0.925     0.047     2.364     2.404
    18   1 H        0.924     0.052     2.301     2.372
    19   1 H        0.925     0.046     2.367     2.406
    20   1 H        0.926     0.036     2.500     2.472
    21   1 H        0.926     0.044     2.398     2.422
    22   1 H        0.925     0.040     2.453     2.449
    23   1 H        0.926     0.053     2.284     2.363
    24   1 H        0.926     0.034     2.532     2.488
    25   1 H        0.926     0.026     2.644     2.543
    26   1 H        0.926     0.027     2.626     2.534
    27   1 H        0.926     0.027     2.629     2.535
    28   1 H        0.926     0.030     2.585     2.514

 Mol. C6AA /au·bohr⁶  :      10492.976865
 Mol. C8AA /au·bohr⁸  :     258427.951574
 Mol. α(0) /au        :        164.104324


Wiberg/Mayer (AO) data.
largest (>0.10) Wiberg bond orders for each atom

 ---------------------------------------------------------------------------
     #   Z sym  total        # sym  WBO       # sym  WBO       # sym  WBO
 ---------------------------------------------------------------------------
     1   6 C    3.995 --     2 C    1.027    19 H    0.981    17 H    0.981
                            18 H    0.966
     2   6 C    3.973 --     5 C    1.396     3 C    1.394     1 C    1.027
     3   6 C    3.990 --     4 C    1.470     2 C    1.394    20 H    0.968
     4   6 C    3.987 --     3 C    1.470     7 C    1.344    21 H    0.964
                             5 C    0.109
     5   6 C    3.981 --     6 N    1.445     2 C    1.396    22 H    0.962
                             4 C    0.109
     6   7 N    3.056 --     5 C    1.445     7 C    1.370
     7   6 C    3.970 --     6 N    1.370     4 C    1.344     8 N    1.078
     8   7 N    3.624 --     9 C    1.151    12 C    1.126     7 C    1.078
     9   6 C    3.952 --    10 C    1.642     8 N    1.151    23 H    0.967
    10   6 C    3.972 --     9 C    1.642    11 C    1.202    24 H    0.973
    11   6 C    3.982 --    16 C    1.342    12 C    1.254    10 C    1.202
    12   6 C    3.955 --    13 C    1.356    11 C    1.254     8 N    1.126
    13   6 C    3.987 --    14 C    1.478    12 C    1.356    25 H    0.964
                            16 C    0.110
    14   6 C    3.989 --    13 C    1.478    15 C    1.384    26 H    0.972
    15   6 C    3.985 --    16 C    1.492    14 C    1.384    27 H    0.972
    16   6 C    3.990 --    15 C    1.492    11 C    1.342    28 H    0.970
                            13 C    0.110
    17   1 H    0.997 --     1 C    0.981
    18   1 H    0.996 --     1 C    0.966
    19   1 H    0.997 --     1 C    0.981
    20   1 H    0.998 --     3 C    0.968
    21   1 H    0.998 --     4 C    0.964
    22   1 H    0.998 --     5 C    0.962
    23   1 H    0.996 --     9 C    0.967
    24   1 H    0.998 --    10 C    0.973
    25   1 H    0.999 --    13 C    0.964
    26   1 H    0.999 --    14 C    0.972
    27   1 H    0.999 --    15 C    0.972
    28   1 H    0.999 --    16 C    0.970
 ---------------------------------------------------------------------------

Topologies differ in total number of bonds
Writing topology from bond orders to xtbtopo.mol

molecular dipole:
                 x           y           z       tot (Debye)
 q only:        0.694       0.233       0.103
   full:        0.969       0.588       0.166       2.911
molecular quadrupole (traceless):
                xx          xy          yy          xz          yz          zz
 q only:        4.887       1.938      -1.207      -1.088      -0.574      -3.679
  q+dip:        8.446       2.567       0.477      -1.882      -1.260      -8.923
   full:        6.340       2.472      -1.919      -1.087      -1.568      -4.421

           -------------------------------------------------
          |                Geometry Summary                 |
           -------------------------------------------------

      molecular mass/u    :      208.2589980
   center of mass at/Å    :       -0.2477577      -0.1502328      -0.0900534
  moments of inertia/u·Å² :        0.3317261E+03   0.1654897E+04   0.1946910E+04
rotational constants/cm⁻¹ :        0.5081792E-01   0.1018651E-01   0.8658661E-02

 * 29 selected distances

     #   Z          #   Z                                           value/Å
     2   6 C        3   6 C                                       1.3924063
     3   6 C        4   6 C                                       1.3808440
     2   6 C        5   6 C                                       1.3901642
     5   6 C        6   7 N                                       1.3182021
     4   6 C        7   6 C                                       1.3966798
     6   7 N        7   6 C                                       1.3293609
     7   6 C        8   7 N                                       1.3887844
     8   7 N        9   6 C                                       1.3784959
     9   6 C       10   6 C                                       1.3546342
    10   6 C       11   6 C                                       1.4263094 (max)
     8   7 N       12   6 C                                       1.3799905
    11   6 C       12   6 C                                       1.4170067
    12   6 C       13   6 C                                       1.3893328
    13   6 C       14   6 C                                       1.3804827
    14   6 C       15   6 C                                       1.3949404
    11   6 C       16   6 C                                       1.3924345
    15   6 C       16   6 C                                       1.3772955
     1   6 C       17   1 H                                       1.0875968
     1   6 C       18   1 H                                       1.0906775
     1   6 C       19   1 H                                       1.0878266
     3   6 C       20   1 H                                       1.0812046
     4   6 C       21   1 H                                       1.0772341
     5   6 C       22   1 H                                       1.0829501
     9   6 C       23   1 H                                       1.0719982
    10   6 C       24   1 H                                       1.0717942 (min)
    13   6 C       25   1 H                                       1.0789356
    14   6 C       26   1 H                                       1.0801179
    15   6 C       27   1 H                                       1.0801295
    16   6 C       28   1 H                                       1.0798225

 * 3 distinct bonds (by element types)

   Z      Z             #   av. dist./Å        max./Å        min./Å
   1 H    6 C          12     1.0808573     1.0906775     1.0717942
   6 C    6 C          12     1.3910442     1.4263094     1.3546342
   6 C    7 N           5     1.3589668     1.3887844     1.3182021


optimized geometry written to: xtbopt.xyz


           -------------------------------------------------
          | TOTAL ENERGY              -41.956452723596 Eh   |
          | GRADIENT NORM               0.000289192422 Eh/α |
          | HOMO-LUMO GAP               3.032284850845 eV   |
           -------------------------------------------------

------------------------------------------------------------------------
 * finished run on 2022/03/17 at 02:20:31.771     
------------------------------------------------------------------------
 total:
 * wall-time:     0 d,  0 h,  0 min,  4.284 sec
 *  cpu-time:     0 d,  0 h,  2 min, 16.542 sec
 * ratio c/w:    31.875 speedup
 SCF:
 * wall-time:     0 d,  0 h,  0 min,  0.239 sec
 *  cpu-time:     0 d,  0 h,  0 min,  7.341 sec
 * ratio c/w:    30.779 speedup
 ANC optimizer:
 * wall-time:     0 d,  0 h,  0 min,  3.935 sec
 *  cpu-time:     0 d,  0 h,  2 min,  5.557 sec
 * ratio c/w:    31.910 speedup

