28
 energy: -41.947765752887 gnorm: 0.076644789997 xtb: 6.3.3 (4ae9cef)
C         4.93416900000000    0.33552300000000   -0.42484100000000
C         3.47037400000000    0.06799900000000   -0.28224900000000
C         2.57471400000000    1.07953800000000    0.05762700000000
C         1.20894900000000    0.80229000000000    0.14811900000000
C         2.94159700000000   -1.19063900000000   -0.52681100000000
N         1.62596600000000   -1.48921600000000   -0.44229400000000
C         0.76273100000000   -0.48486800000000   -0.12889800000000
N        -0.62727900000000   -0.82684400000000   -0.03850400000000
C        -1.06030700000000   -2.13389700000000    0.12318100000000
C        -2.41316600000000   -2.13965900000000    0.34942900000000
C        -2.86907200000000   -0.80578500000000    0.22066800000000
C        -1.75824700000000   -0.00146800000000   -0.08250900000000
C        -1.93828700000000    1.36079700000000   -0.40273700000000
C        -3.22123700000000    1.91431400000000   -0.32532200000000
C        -4.31312900000000    1.13803900000000    0.03746900000000
C        -4.15072600000000   -0.22288100000000    0.30118200000000
H         5.52089800000000   -0.55390300000000   -0.17195900000000
H         5.16354400000000    0.62913900000000   -1.45378700000000
H         5.25265500000000    1.13691000000000    0.25012100000000
H         2.93168800000000    2.08445900000000    0.27063000000000
H         0.54913400000000    1.58825200000000    0.48957600000000
H         3.57808000000000   -2.02669400000000   -0.80521900000000
H        -0.34528800000000   -2.94665300000000    0.12075900000000
H        -3.01455100000000   -3.01543700000000    0.55403400000000
H        -1.12013500000000    1.98765300000000   -0.73909000000000
H        -3.36544400000000    2.96564400000000   -0.56454400000000
H        -5.30348400000000    1.58278200000000    0.09056100000000
H        -5.01415000000000   -0.83539700000000    0.54573400000000
28
 energy: -41.954478935043 gnorm: 0.030263184165 xtb: 6.3.3 (4ae9cef)
C         4.91635957938187    0.32528321426382   -0.42166863716793
C         3.44591373849340    0.06796960819442   -0.29130936060464
C         2.55962076411403    1.07905759376236    0.06294999854386
C         1.20222610313871    0.81150337067930    0.15127920292766
C         2.89514579442622   -1.18440555869142   -0.52812363461404
N         1.59469474627429   -1.46127888137207   -0.45953622007051
C         0.74940692061150   -0.46999403490681   -0.14619924002135
N        -0.61585587872608   -0.81178463808762   -0.06126850545734
C        -1.04725344636278   -2.10947924736696    0.14979114452753
C        -2.39446776419505   -2.13493649079457    0.34072097313191
C        -2.86179131489329   -0.79983535418116    0.21162873759201
C        -1.73987128980878    0.01081355007028   -0.07676213729248
C        -1.91658293703010    1.35892190847542   -0.38792169016375
C        -3.19384257314488    1.89348606834362   -0.32317310808918
C        -4.29043081066925    1.11545657089311    0.03574255155249
C        -4.13798351400194   -0.23307370809160    0.28890760070369
H         5.49771396201393   -0.56511526198888   -0.18240866189399
H         5.15581526330672    0.62084503291506   -1.44389076038322
H         5.23308718454794    1.12982242830603    0.24290113745045
H         2.92446239025820    2.07447286103232    0.28056341488659
H         0.53523777627139    1.59006061936020    0.48265124866102
H         3.52368013522283   -2.02827230722399   -0.78846611785101
H        -0.33375486708052   -2.91191404393346    0.15356149912117
H        -2.99039492580035   -3.00752711792993    0.53927338362674
H        -1.10247593032789    1.98309153352410   -0.72373674971937
H        -3.33923874358450    2.93868572752875   -0.56461951603997
H        -5.27433561427164    1.56312745304309    0.09352608195061
H        -4.99508774816396   -0.84498289582341    0.53591336469305
28
 energy: -41.955834758437 gnorm: 0.006436285377 xtb: 6.3.3 (4ae9cef)
C         4.89896951642781    0.31337878601305   -0.42380855491102
C         3.42719648965927    0.06765320031893   -0.29834396853093
C         2.54853413975326    1.08289877666997    0.06664860034360
C         1.19499251428138    0.82656186544499    0.15994108308640
C         2.86114296769575   -1.17983476342684   -0.53485594208109
N         1.56998306112612   -1.43766775313567   -0.46843671808065
C         0.73626631057263   -0.45530833515702   -0.14509726566455
N        -0.60864255368083   -0.80020945891404   -0.07199890727395
C        -1.03157566886095   -2.09429413346210    0.15833442493443
C        -2.37247284733960   -2.13413237297437    0.34212815865309
C        -2.85355406516004   -0.79986771231356    0.20260499118093
C        -1.72831679260568    0.01491934380388   -0.08294323333153
C        -1.90279964139712    1.35664566834357   -0.39258263363988
C        -3.17613688167255    1.88376938004387   -0.32451200504323
C        -4.27471200503358    1.10228722219069    0.03116464752378
C        -4.12687409051859   -0.24284501118823    0.27808413394825
H         5.46791031918112   -0.58328993544001   -0.19014879358570
H         5.14217408281801    0.60981805593904   -1.44452442701234
H         5.21234515035083    1.11613413593997    0.24036648683996
H         2.92417359281419    2.06966874351506    0.29663665157364
H         0.52379077841899    1.59603556536860    0.49790561124912
H         3.48319600860019   -2.02909952006386   -0.78952804204998
H        -0.30996806732680   -2.88556103074153    0.17822924596673
H        -2.96290270994163   -3.00376942045061    0.54972646035072
H        -1.08625105183742    1.98430595110945   -0.71135652407089
H        -3.32359421879648    2.92722978382702   -0.56017113204998
H        -5.25368471197832    1.55479215783050    0.08840234904552
H        -4.97919262554993   -0.86022118909075    0.51846130262957
28
 energy: -41.955991826036 gnorm: 0.003431119573 xtb: 6.3.3 (4ae9cef)
C         4.89475602437675    0.30718508082223   -0.42720505057291
C         3.42386568703074    0.06683768472180   -0.29969177473323
C         2.54892970737009    1.08367406659798    0.07339825274863
C         1.19467298121287    0.83388925841837    0.16709081292408
C         2.85532241837875   -1.17848444221752   -0.54152124672043
N         1.56350623899715   -1.42951038148464   -0.47604769725455
C         0.73211576302474   -0.44654521946663   -0.14623017297047
N        -0.60865513589944   -0.79473577266312   -0.07132395418165
C        -1.02384567259382   -2.08936595827428    0.16694303668429
C        -2.36487603331057   -2.13481449796405    0.34686720028260
C        -2.85208794123885   -0.80207335939454    0.19955273319997
C        -1.72861742258732    0.01574244925971   -0.08361852530566
C        -1.90217952709147    1.35843927820736   -0.39298190065047
C        -3.17669896438852    1.88384235197569   -0.32647520822833
C        -4.27483404414681    1.09889938026785    0.02370219425339
C        -4.12649175256464   -0.24766896616673    0.26961036170821
H         5.45731709944951   -0.59428027244173   -0.19666747610095
H         5.13705449871605    0.60473615776980   -1.44804365768219
H         5.21125536638412    1.10606416391767    0.23974087484180
H         2.93015720771254    2.06772769953024    0.30766365517083
H         0.52382745316279    1.59927444707877    0.51582913813544
H         3.47448642746267   -2.02778234286558   -0.80264576026894
H        -0.29480142939618   -2.87465901231255    0.19646916004951
H        -2.95344267294479   -3.00485787167794    0.55827671231264
H        -1.08454092075862    1.98608488209570   -0.71012799274227
H        -3.32596787665160    2.92780338049015   -0.55881345444685
H        -5.25281605944725    1.55310298483245    0.08023882134746
H        -4.97741442025881   -0.86852716905645    0.50633691820008
28
 energy: -41.956106607454 gnorm: 0.003396020986 xtb: 6.3.3 (4ae9cef)
C         4.89215657533048    0.29942469275477   -0.43306967035654
C         3.42138591643245    0.06715524209076   -0.30349710371242
C         2.55195942822857    1.08429856546991    0.08396681615377
C         1.19701515081674    0.84109669194250    0.18211016685828
C         2.84971281785683   -1.17416677932056   -0.55685365526036
N         1.55673632550123   -1.41909652478227   -0.48741677630300
C         0.72915081891612   -0.43611877330533   -0.14211610720149
N        -0.60952124869366   -0.78756676561552   -0.06447596196221
C        -1.01600884810840   -2.08311449808286    0.18086325592083
C        -2.35759965100850   -2.13468213523352    0.35595437492800
C        -2.85186215650626   -0.80484029626784    0.19661283995425
C        -1.73132870153242    0.01644407409999   -0.08444973458583
C        -1.90383896531440    1.36025557055604   -0.39459596534464
C        -3.18023834178865    1.88350902257009   -0.33101848468274
C        -4.27757486570581    1.09430945747807    0.01185092147168
C        -4.12824523304233   -0.25333349077658    0.25778752423244
H         5.44716698771016   -0.60861835667419   -0.20875778463979
H         5.13358778925704    0.60001213258481   -1.45332971099127
H         5.21643705438658    1.09139164279961    0.23836385536346
H         2.94088334347113    2.06383209146042    0.32718208560893
H         0.52713420785321    1.60218599331535    0.54376061910592
H         3.46487967775629   -2.02332254693976   -0.82759623618142
H        -0.27789397545396   -2.86032464385776    0.22231530210616
H        -2.94392426645608   -3.00527853033609    0.57296582377425
H        -1.08384904741678    1.98765129047324   -0.70742337056917
H        -3.33193877747688    2.92830331042794   -0.55911702100275
H        -5.25579027637572    1.54870511248046    0.06301580425752
H        -4.97859473863693   -0.87811354931168    0.48729419305819
28
 energy: -41.956172356052 gnorm: 0.003606288117 xtb: 6.3.3 (4ae9cef)
C         4.89222595293555    0.29497168355994   -0.43822491606227
C         3.42103002144078    0.06796753145441   -0.30552526199237
C         2.55556395283886    1.08370842826139    0.09409938333364
C         1.20020980344404    0.84333648771538    0.19465469590933
C         2.84650741854997   -1.16978184153607   -0.56929815622057
N         1.55297877133247   -1.41223195281940   -0.49660487193404
C         0.72880156896060   -0.43029802807631   -0.13852620583502
N        -0.60986437158657   -0.78291734427161   -0.05587946187496
C        -1.01253642796434   -2.07871175322839    0.19414071082963
C        -2.35473736403078   -2.13343496860485    0.36443671194835
C        -2.85253691124000   -0.80605778868904    0.19604033687261
C        -1.73356730668270    0.01737358606956   -0.08279782976917
C        -1.90556935864637    1.36133584545167   -0.39397440468635
C        -3.18335612818496    1.88249614570129   -0.33585055941358
C        -4.28071333902848    1.09055883478375    0.00059859101622
C        -4.13058384319028   -0.25667961801068    0.24864423804059
H         5.44325342361128   -0.61713586074941   -0.21991221355939
H         5.13259939670067    0.59900573495045   -1.45772333238986
H         5.22322794371513    1.08148625434569    0.23646978710962
H         2.94902832827382    2.05975900571743    0.34447160812501
H         0.53143821049615    1.60168223533208    0.56497796942701
H         3.45811890695980   -2.01710494029078   -0.85337260318248
H        -0.27023086995546   -2.85129009100171    0.24200086502924
H        -2.93990029412780   -3.00431666268736    0.58404302132638
H        -1.08358222282699    1.98818277680379   -0.70285155639940
H        -3.33658414009553    2.92739115120449   -0.56294248693468
H        -5.26000201277434    1.54366788200587    0.04592621279284
H        -4.98122210892442   -0.88296473339156    0.47330572849374
28
 energy: -41.956255870760 gnorm: 0.002819589526 xtb: 6.3.3 (4ae9cef)
C         4.89364755246807    0.29049691288497   -0.44538971763216
C         3.42142088691128    0.06955475948976   -0.30920501581899
C         2.56103956370165    1.08200039992639    0.10830814674510
C         1.20533865080949    0.84320646336858    0.21237694562248
C         2.84223360994001   -1.16262270995335   -0.58923107877739
N         1.54875496488192   -1.40406628785926   -0.50991467446877
C         0.72982713403372   -0.42511457188888   -0.13209802094174
N        -0.60969504321327   -0.77776265675847   -0.04099259767950
C        -1.01012468725462   -2.07336267295350    0.21331549716616
C        -2.35319372084577   -2.13091296163479    0.37622387351847
C        -2.85365751643638   -0.80664077231203    0.19707442989160
C        -1.73582512358190    0.01909693256029   -0.07816659787893
C        -1.90765309710024    1.36259415190167   -0.39114353196395
C        -3.18717950864081    1.88047578795408   -0.34387746440717
C        -4.28517369295152    1.08556576132072   -0.01608703048160
C        -4.13380979415301   -0.26011874231967    0.23720577631112
H         5.44072040157977   -0.62619256999379   -0.23599394210656
H         5.13255968239862    0.60061822441115   -1.46336369550329
H         5.23258261637219    1.06973970273824    0.23398252026480
H         2.95907298536643    2.05326270375614    0.36953610997142
H         0.53859488395558    1.59888439371064    0.59221713392948
H         3.44944319791708   -2.00702160476546   -0.89139141294656
H        -0.26495793239145   -2.84195431151891    0.26854460663145
H        -2.93712970942356   -3.00201720710553    0.59827555460723
H        -1.08281030992477    1.98931259188680   -0.69256434390143
H        -3.34205695225032    2.92483044976577   -0.57237950585484
H        -5.26668036412860    1.53544281171102    0.01896158770307
H        -4.98529167803944   -0.88729697832252    0.45610244800061
28
 energy: -41.956329166794 gnorm: 0.002117380673 xtb: 6.3.3 (4ae9cef)
C         4.89535433476635    0.28596742203833   -0.45485161024089
C         3.42207360168983    0.07103331906852   -0.31436478132508
C         2.56806163030619    1.07888381533087    0.12601529828426
C         1.21198554823211    0.84137474176809    0.23478827535701
C         2.83619700977775   -1.15371782168390   -0.61436064856605
N         1.54327153306843   -1.39448808450939   -0.52660441571589
C         0.73137343698970   -0.42021246570735   -0.12355174540171
N        -0.60875336567253   -0.77197752320063   -0.02055033380692
C        -1.00809116872739   -2.06698697973700    0.23745976273614
C        -2.35216405857380   -2.12734975028865    0.39097953221568
C        -2.85456656116878   -0.80629680892396    0.20003946196474
C        -1.73708003663870    0.02200037759929   -0.06950636159217
C        -1.90944948360921    1.36436245480307   -0.38544597757052
C        -3.19115507902215    1.87755800307495   -0.35533584028567
C        -4.29040756232835    1.07941078170155   -0.03856815509331
C        -4.13713072425456   -0.26379779537786    0.22365938760658
H         5.43862929287999   -0.63555347360989   -0.25701297651058
H         5.13201775849050    0.60470825300520   -1.47065752674345
H         5.24192802249962    1.05654571251262    0.23057225103992
H         2.97072635065700    2.04411832236691    0.40161796767957
H         0.54896776012534    1.59424188475156    0.62713288401481
H         3.43795417271823   -1.99330759453079   -0.94119735800490
H        -0.26153881847916   -2.83310158896435    0.30142180339605
H        -2.93467349045820   -2.99885195973238    0.61473138565812
H        -1.08152287093984    1.99237537777784   -0.67564784694735
H        -3.34770578133395    2.92056335330451   -0.58852528460790
H        -5.27486053424102    1.52436221657964   -0.01836356587092
H        -4.98944391675322   -0.89186618941672    0.43645241833062
28
 energy: -41.956363680052 gnorm: 0.001531368438 xtb: 6.3.3 (4ae9cef)
C         4.89559127586383    0.28416311259338   -0.46231546177509
C         3.42208487505378    0.07164004657116   -0.31866074042522
C         2.57252306294232    1.07582602428545    0.13806890957477
C         1.21636057851882    0.83906960145837    0.25116046964421
C         2.83135968312061   -1.14763299713297   -0.63154493486572
N         1.53916745307503   -1.38831657382014   -0.53685691323998
C         0.73215456375203   -0.41806397002439   -0.11616441911779
N        -0.60778487344555   -0.76893137669039   -0.00545941928659
C        -1.00734719320547   -2.06338354209691    0.25328872292553
C        -2.35204585870627   -2.12505796290345    0.40071964625228
C        -2.85471423645635   -0.80541910158888    0.20333919245863
C        -1.73662502263030    0.02403577856395   -0.06156957921984
C        -1.90943616014775    1.36538792810429   -0.38033508819295
C        -3.19246018868002    1.87539642233069   -0.36416735473598
C        -4.29289401760023    1.07567645203859   -0.05501940700851
C        -4.13846144875999   -0.26570550933796    0.21509970990259
H         5.43733813037159   -0.63991851940518   -0.27296147886699
H         5.13003940016951    0.60973576547254   -1.47643647616469
H         5.24571711878091    1.04894598000232    0.22758183764838
H         2.97775199884328    2.03703408381351    0.42296671231015
H         0.55677857631576    1.59012998735147    0.65284558543997
H         3.42973159982505   -1.98332578298031   -0.97387273052419
H        -0.26146487072944   -2.82971749666667    0.32260959234052
H        -2.93389041283818   -2.99691545682969    0.62431300390044
H        -1.07991002481319    1.99539206628752   -0.66173035628422
H        -3.34945971840692    2.91714686636702   -0.60244487727479
H        -5.27899271006729    1.51727889092787   -0.04635802997459
H        -4.99111458014535   -0.89447271669107    0.42422988455990
28
 energy: -41.956386590379 gnorm: 0.000912929017 xtb: 6.3.3 (4ae9cef)
C         4.89423686084437    0.28526405880396   -0.46984068417642
C         3.42139156761241    0.07175907698742   -0.32203297478837
C         2.57507362999232    1.07244632501656    0.14731955182147
C         1.21917846194929    0.83584138628242    0.26526140706568
C         2.82739673517581   -1.14346838872903   -0.64254327703528
N         1.53591457907806   -1.38454464835065   -0.54217904491572
C         0.73235959471074   -0.41819556023402   -0.10853249579788
N        -0.60688642650918   -0.76841362829484    0.00735027752147
C        -1.00790154809196   -2.06234623958877    0.26450655823306
C        -2.35314378726670   -2.12380086392474    0.40769018703777
C        -2.85450668714669   -0.80409805356562    0.20750977159467
C        -1.73480138110347    0.02509957367515   -0.05289756614087
C        -1.90723934656136    1.36549068124464   -0.37500085232010
C        -3.19089625375443    1.87362592681799   -0.37193407896966
C        -4.29287602010478    1.07393676261590   -0.06877399649214
C        -4.13846951497941   -0.26600168783820    0.20923554995344
H         5.43682882868648   -0.63962220069489   -0.28809078176727
H         5.12526020009080    0.61721120670854   -1.48260793478671
H         5.24561658799074    1.04589837181389    0.22362749333560
H         2.98164888181745    2.03085274193667    0.43849634374344
H         0.56302892403594    1.58515904209464    0.67554968588921
H         3.42343998406134   -1.97509204928720   -0.99714772476337
H        -0.26465660900874   -2.83128336689469    0.33641485036232
H        -2.93525003620338   -2.99593198282190    0.62917630355313
H        -1.07697429577536    1.99773931521578   -0.64901076434283
H        -3.34684082252685    2.91409168790006   -0.61640727182553
H        -5.27956069738250    1.51351573138641   -0.07083680509733
H        -4.99137440963065   -0.89513521827534    0.41602427310846
28
 energy: -41.956398031528 gnorm: 0.000638165396 xtb: 6.3.3 (4ae9cef)
C         4.89238254241620    0.28810417372526   -0.47400536764216
C         3.42035976335112    0.07202686448540   -0.32290258249126
C         2.57447022956416    1.07122919619701    0.15096825235637
C         1.21904587724971    0.83392454684979    0.27157468728851
C         2.82665226632745   -1.14298707586838   -0.64436967889968
N         1.53540659219775   -1.38480678941807   -0.54141717723624
C         0.73216746414318   -0.41983374956064   -0.10404859810802
N        -0.60677425711478   -0.77023196209450    0.01181958224875
C        -1.00896891493961   -2.06402639704501    0.26721900089375
C        -2.35453568414073   -2.12421886901807    0.40926692951107
C        -2.85459888021406   -0.80368715506967    0.20931962484927
C        -1.73358893525303    0.02431437034351   -0.04915160671829
C        -1.90427788782012    1.36449881628060   -0.37303301449494
C        -3.18773783560233    1.87325729032706   -0.37451398473698
C        -4.29103141250589    1.07479327454158   -0.07335442562761
C        -4.13815857309937   -0.26490608092490    0.20736360775444
H         5.43696843317068   -0.63647341172247   -0.29613746675021
H         5.12009362397859    0.62315759744378   -1.48649254778008
H         5.24417347704064    1.04750943655247    0.22069766926976
H         2.98110338691655    2.02948788050650    0.44268350626752
H         0.56352014275902    1.58198543115830    0.68499188209513
H         3.42250040610234   -1.97361459888622   -1.00105595187522
H        -0.26729269848005   -2.83476187264941    0.33894038352486
H        -2.93758742656122   -2.99615706860463    0.62918647951261
H        -1.07342013461894    1.99668606365602   -0.64529510380512
H        -3.34194187651016    2.91337846326948   -0.62152347953767
H        -5.27727301398570    1.51497930962614   -0.07948044779315
H        -4.99165967437114   -0.89362968410078    0.41307582792483
28
 energy: -41.956409802819 gnorm: 0.000702094099 xtb: 6.3.3 (4ae9cef)
C         4.88995885421489    0.29252690479862   -0.47819128327798
C         3.41905791831576    0.07252230431229   -0.32225352345953
C         2.57254228425020    1.07046324882143    0.15298162751590
C         1.21784936407899    0.83146614405216    0.27599864076856
C         2.82710284748129   -1.14389219960377   -0.64112555443559
N         1.53603388766272   -1.38695980218715   -0.53730858547238
C         0.73196100772883   -0.42272206588867   -0.10046345851751
N        -0.60683639055322   -0.77346068684309    0.01400142740163
C        -1.01078966825854   -2.06707116974779    0.26759225596895
C        -2.35658147374446   -2.12524992224623    0.40915791942623
C        -2.85483276301835   -0.80358375696604    0.21040345890265
C        -1.73236936491298    0.02264007851464   -0.04677935140830
C        -1.90041888472855    1.36284464840515   -0.37212738688225
C        -3.18316647866202    1.87345481261625   -0.37563043990596
C        -4.28799283127084    1.07685198398747   -0.07549841429876
C        -4.13759790974093   -0.26295407503748    0.20635802624450
H         5.43769711881827   -0.63093887364411   -0.30414268407075
H         5.11307443898572    0.63030654705787   -1.49078891141245
H         5.24231395751935    1.05144715020320    0.21678048398731
H         2.97879783193001    2.02923081630474    0.44421333898362
H         0.56196544379543    1.57763509101530    0.69227813626442
H         3.42332114216862   -1.97383806416741   -0.99917779342112
H        -0.27063120559464   -2.83948321074279    0.33810427234200
H        -2.94113705298791   -2.99662033542814    0.62757466826548
H        -1.06857680895585    1.99379860859005   -0.64413092595431
H        -3.33515333094374    2.91354965932596   -0.62417092961567
H        -5.27340641771388    1.51869407595941   -0.08407159070679
H        -4.99218851586395   -0.89065991146172    0.41074257676836
28
 energy: -41.956422384282 gnorm: 0.000806482961 xtb: 6.3.3 (4ae9cef)
C         4.88715131033599    0.29815868434117   -0.48358603493581
C         3.41753224822820    0.07356356902336   -0.32213176887720
C         2.57004113172733    1.06961486145733    0.15618152985975
C         1.21626546706636    0.82788525620231    0.28211789362535
C         2.82799390176529   -1.14480897345445   -0.63850546982046
N         1.53735165892940   -1.39019093605483   -0.53247829630904
C         0.73200408861262   -0.42682341576570   -0.09548078676449
N        -0.60695561028867   -0.77756979022090    0.01634744282977
C        -1.01321518497581   -2.07081739579700    0.26820832886464
C        -2.35930502209080   -2.12657627828950    0.40854351206815
C        -2.85529605133861   -0.80383470211717    0.21033797548027
C        -1.73115647469141    0.02037986409953   -0.04521376746184
C        -1.89579312964383    1.36077742042534   -0.37176469727409
C        -3.17756091684365    1.87400417894561   -0.37679382327732
C        -4.28426253475713    1.07955207521240   -0.07778788282493
C        -4.13705108929937   -0.26055660345144    0.20434470624521
H         5.43840032370727   -0.62440655246629   -0.31533879830324
H         5.10428889793132    0.64032263972100   -1.49609970116856
H         5.24063506830751    1.05575730664021    0.21239103132816
H         2.97537688175723    2.02921037720289    0.44611714946909
H         0.55928450783720    1.57175664307835    0.70054150271989
H         3.42540221159806   -1.97482797437792   -0.99369631374158
H        -0.27419743204556   -2.84444456709039    0.33841791248831
H        -2.94574959399934   -2.99698787462772    0.62592704738514
H        -1.06223055837974    1.98937633502338   -0.64393599013351
H        -3.32710489356483    2.91431347785448   -0.62598136461322
H        -5.26863857728121    1.52369899019559   -0.08769964642679
H        -4.99321362860359   -0.88652861570944    0.40734430956864
28
 energy: -41.956434028242 gnorm: 0.000601255266 xtb: 6.3.3 (4ae9cef)
C         4.88407909594286    0.30438897838209   -0.48965733353048
C         3.41600038280524    0.07467455239450   -0.32122586449051
C         2.56741634104348    1.06849601841197    0.15971683201052
C         1.21462425541238    0.82333667766518    0.28854335198973
C         2.82910430466532   -1.14590305339021   -0.63412071161435
N         1.53894224206782   -1.39402455768048   -0.52709812241282
C         0.73220011443798   -0.43162423714319   -0.09056042328030
N        -0.60706234847576   -0.78204459638826    0.01887265974241
C        -1.01596234441811   -2.07463188283568    0.27004588477995
C        -2.36248582994314   -2.12791361431410    0.40788025280265
C        -2.85579128066090   -0.80426187959536    0.20914763576189
C        -1.72986503146296    0.01785049099457   -0.04476548489651
C        -1.89097355545486    1.35847829784454   -0.37213561719465
C        -3.17145485712735    1.87469617949564   -0.37830647234240
C        -4.28010583509368    1.08258686960881   -0.08017067630631
C        -4.13634524081843   -0.25795412501232    0.20154314036824
H         5.43923879547633   -0.61706033849257   -0.32857641876009
H         5.09432409738941    0.65169381393970   -1.50192519199364
H         5.23908403045502    1.06026132437004    0.20744151975364
H         2.97140482530897    2.02870403317818    0.44962854270441
H         0.55654235527234    1.56461300656775    0.70995170677516
H         3.42787385153482   -1.97502861682054   -0.99006042989597
H        -0.27802205830442   -2.84919766261220    0.34127686771635
H        -2.95101508091195   -2.99718208099628    0.62426231346870
H        -1.05530500423522    1.98446139833005   -0.64396637859600
H        -3.31855456349605    2.91532313651980   -0.62757936238324
H        -5.26348326307182    1.52905068240557   -0.09092101839474
H        -4.99441139833712   -0.88179081482699    0.40308479821866
28
 energy: -41.956443066788 gnorm: 0.000357491886 xtb: 6.3.3 (4ae9cef)
C         4.88091812975574    0.31051796940844   -0.49595456251788
C         3.41441379036604    0.07586345027287   -0.32067184029989
C         2.56505153234755    1.06703231391138    0.16408656479374
C         1.21321514379999    0.81835010318263    0.29564962004739
C         2.82969371392846   -1.14633452327385   -0.63157027709396
N         1.54028275470534   -1.39756261107612   -0.52249289052558
C         0.73241203979146   -0.43647836523899   -0.08564086161817
N        -0.60710828160375   -0.78648505987481    0.02201919290447
C        -1.01874033862803   -2.07814701867668    0.27308256764793
C        -2.36560784379413   -2.12910315373865    0.40792839117067
C        -2.85625888243352   -0.80484524556155    0.20713082883685
C        -1.72845033431869    0.01521611199203   -0.04485673733009
C        -1.88609296421536    1.35611342796142   -0.37275893446921
C        -3.16526279564812    1.87529635154711   -0.38025914071585
C        -4.27596128441687    1.08544092755555   -0.08338745643418
C        -4.13559612282617   -0.25552159812817    0.19786007596835
H         5.43977510290406   -0.61006965960530   -0.34344729776616
H         5.08404238905667    0.66430942654724   -1.50747770718927
H         5.23783124493677    1.06366868971283    0.20309403194237
H         2.96748622723173    2.02769860997626    0.45443426925772
H         0.55426618309806    1.55702902000734    0.72036620665879
H         3.43003672755759   -1.97431875448410   -0.98725288266687
H        -0.28194353676336   -2.85342567098320    0.34656918215060
H        -2.95618600310714   -2.99717552976503    0.62345855308269
H        -1.04836523984137    1.97952133569498   -0.64408753470728
H        -3.30995168254594    2.91630890877276   -0.62930120646046
H        -5.25831539106132    1.53420338238147   -0.09430496213680
H        -4.99558727827548   -0.87710483851764    0.39811080747043
28
 energy: -41.956448587965 gnorm: 0.000317066486 xtb: 6.3.3 (4ae9cef)
C         4.87875456787345    0.31440408090972   -0.50054996254944
C         3.41332449128009    0.07673043786052   -0.32079455656505
C         2.56379783415815    1.06579877398955    0.16810795684003
C         1.21256557135014    0.81485427456879    0.30194631926449
C         2.82978059559331   -1.14611780788429   -0.63152369715647
N         1.54083656636603   -1.39929642504700   -0.52104009649942
C         0.73260356960775   -0.43950751993428   -0.08161841851308
N        -0.60710661198329   -0.78925129496742    0.02541421217039
C        -1.02040885193116   -2.08015991293495    0.27704464381918
C        -2.36775226970873   -2.12975136282775    0.40864418633197