      -----------------------------------------------------------      
     |                   =====================                   |     
     |                           x T B                           |     
     |                   =====================                   |     
     |                         S. Grimme                         |     
     |          Mulliken Center for Theoretical Chemistry        |     
     |                    University of Bonn                     |     
      -----------------------------------------------------------      

   * xtb version 6.3.3 (4ae9cef) compiled by 'conda@95abc7406d43' on 2020-10-14

   xtb is free software: you can redistribute it and/or modify it under
   the terms of the GNU Lesser General Public License as published by
   the Free Software Foundation, either version 3 of the License, or
   (at your option) any later version.
   
   xtb is distributed in the hope that it will be useful,
   but WITHOUT ANY WARRANTY; without even the implied warranty of
   MERCHANTABILITY or FITNESS FOR A PARTICULAR PURPOSE.  See the
   GNU Lesser General Public License for more details.
   
   Cite this work as:
   * C. Bannwarth, E. Caldeweyher, S. Ehlert, A. Hansen, P. Pracht,
     J. Seibert, S. Spicher, S. Grimme, WIREs Comput. Mol. Sci., 2020,
     e01493. DOI: 10.1002/wcms.1493
   
   for GFN2-xTB:
   * S. Grimme, C. Bannwarth, P. Shushkov, J. Chem. Theory Comput., 2017,
     13, 1989-2009. DOI: 10.1021/acs.jctc.7b00118
   for GFN1-xTB:
   * C. Bannwarth, S. Ehlert and S. Grimme., J. Chem. Theory Comput., 2019,
     15, 1652-1671. DOI: 10.1021/acs.jctc.8b01176
   for GFN0-xTB:
   * P. Pracht, E. Caldeweyher, S. Ehlert, S. Grimme, ChemRxiv, 2019, preprint.
     DOI: 10.26434/chemrxiv.8326202.v1
   for GFN-FF:
   * S. Spicher and S. Grimme, Angew. Chem. Int. Ed., 2020, 59, 15665-15673.
     DOI: 10.1002/anie.202004239
   
   for DFT-D4:
   * E. Caldeweyher, C. Bannwarth and S. Grimme, J. Chem. Phys., 2017,
     147, 034112. DOI: 10.1063/1.4993215
   * E. Caldeweyher, S. Ehlert, A. Hansen, H. Neugebauer, S. Spicher,
     C. Bannwarth and S. Grimme, J. Chem. Phys., 2019, 150, 154122.
     DOI: 10.1063/1.5090222
   * E. Caldeweyher, J.-M. Mewes, S. Ehlert and S. Grimme, Phys. Chem. Chem. Phys.
     2020, 22, 8499-8512. DOI: 10.1039/D0CP00502A
   
   for sTDA-xTB:
   * S. Grimme and C. Bannwarth, J. Chem. Phys., 2016, 145, 054103.
     DOI: 10.1063/1.4959605
   
   in the mass-spec context:
   * V. Asgeirsson, C. Bauer and S. Grimme, Chem. Sci., 2017, 8, 4879.
     DOI: 10.1039/c7sc00601b
   * J. Koopman and S. Grimme, ACS Omega 2019, 4, 12, 15120-15133.
     DOI: 10.1021/acsomega.9b02011
   
   for metadynamics refer to:
   * S. Grimme, J. Chem. Theory Comput., 2019, 155, 2847-2862
     DOI: 10.1021/acs.jctc.9b00143
   
   with help from (in alphabetical order)
   C. Bannwarth, F. Bohle, G. Brandenburg, E. Caldeweyher, M. Checinski,
   S. Dohm, S. Ehlert, S. Ehrlich, F. März, H. Neugebauer, J. Pisarek,
   P. Pracht, P. Shushkov, and S. Spicher.
   
 * started run on 2022/03/16 at 21:29:25.601     

           -------------------------------------------------
          |                Calculation Setup                |
           -------------------------------------------------

          program call               : xtb acid_118.xyz --opt --chrg 0 --uhf 0 --gfn 2
          coordinate file            : acid_118.xyz
          omp threads                :                    64
          number of atoms            :                    60
          number of electrons        :                   230
          charge                     :                     0
          spin                       :                   0.0
          first test random number   :      0.62818201663944

   ID    Z sym.   atoms
    1    6 C      1, 2, 6-15, 19-22, 24-28, 32, 33, 37-41
    2    9 F      3-5, 16-18
    3    7 N      23, 36
    4   35 Br     29, 42
    5   16 S      30, 43
    6    8 O      31, 34, 35, 44
    7    1 H      45-60

           -------------------------------------------------
          |                 G F N 2 - x T B                 |
           -------------------------------------------------

        Reference                      10.1021/acs.jctc.8b01176
      * Hamiltonian:
        H0-scaling (s, p, d)           1.850000    2.230000    2.230000
        zeta-weighting                 0.500000
      * Dispersion:
        s8                             2.700000
        a1                             0.520000
        a2                             5.000000
        s9                             5.000000
      * Repulsion:
        kExp                           1.500000    1.000000
        rExp                           1.000000
      * Coulomb:
        alpha                          2.000000
        third order                    shell-resolved
        anisotropic                    true
        a3                             3.000000
        a5                             4.000000
        cn-shift                       1.200000
        cn-exp                         4.000000
        max-rad                        5.000000


          ...................................................
          :                      SETUP                      :
          :.................................................:
          :  # basis functions                 216          :
          :  # atomic orbitals                 212          :
          :  # shells                          108          :
          :  # electrons                       230          :
          :  max. iterations                   250          :
          :  Hamiltonian                  GFN2-xTB          :
          :  restarted?                      false          :
          :  GBSA solvation                  false          :
          :  PC potential                    false          :
          :  electronic temp.          300.0000000     K    :
          :  accuracy                    1.0000000          :
          :  -> integral cutoff          0.2500000E+02      :
          :  -> integral neglect         0.1000000E-07      :
          :  -> SCF convergence          0.1000000E-05 Eh   :
          :  -> wf. convergence          0.1000000E-03 e    :
          :  Broyden damping             0.4000000          :
          ...................................................

 iter      E             dE          RMSdq      gap      omega  full diag
   1   -134.2918984 -0.134292E+03  0.515E+00    2.36       0.0  T
   2   -134.5101391 -0.218241E+00  0.316E+00    2.26       1.0  T
   3   -134.4922752  0.178639E-01  0.168E+00    2.46       1.0  T
   4   -134.5424840 -0.502088E-01  0.689E-01    2.27       1.0  T
   5   -134.5582611 -0.157771E-01  0.300E-01    2.29       1.0  T
   6   -134.5594497 -0.118855E-02  0.160E-01    2.32       1.0  T
   7   -134.5599626 -0.512875E-03  0.951E-02    2.32       1.0  T
   8   -134.5600339 -0.713409E-04  0.749E-02    2.31       1.0  T
   9   -134.5600795 -0.456328E-04  0.506E-02    2.32       1.0  T
  10   -134.5601167 -0.371665E-04  0.193E-02    2.32       1.0  T
  11   -134.5601270 -0.103477E-04  0.111E-02    2.32       1.2  T
  12   -134.5601282 -0.111636E-05  0.536E-03    2.32       2.4  T
  13   -134.5601289 -0.785360E-06  0.222E-03    2.32       5.8  T
  14   -134.5601290 -0.725623E-07  0.123E-03    2.32      10.5  T
  15   -134.5601290 -0.178501E-07  0.686E-04    2.32      18.8  T
  16   -134.5601290 -0.648791E-08  0.378E-04    2.32      34.1  T

   *** convergence criteria satisfied after 16 iterations ***

         #    Occupation            Energy/Eh            Energy/eV
      -------------------------------------------------------------
         1        2.0000           -0.8856838             -24.1007
       ...           ...                  ...                  ...
       109        2.0000           -0.4309757             -11.7274
       110        2.0000           -0.4290122             -11.6740
       111        2.0000           -0.4211164             -11.4592
       112        2.0000           -0.4209535             -11.4547
       113        2.0000           -0.4129813             -11.2378
       114        2.0000           -0.4094615             -11.1420
       115        2.0000           -0.4065809             -11.0636 (HOMO)
       116                         -0.3213880              -8.7454 (LUMO)
       117                         -0.2913980              -7.9293
       118                         -0.2892499              -7.8709
       119                         -0.2877814              -7.8309
       120                         -0.2795020              -7.6056
       ...                                ...                  ...
       212                          0.6610510              17.9881
      -------------------------------------------------------------
                  HL-Gap            0.0851929 Eh            2.3182 eV
             Fermi-level           -0.3639845 Eh           -9.9045 eV

 SCC (total)                   0 d,  0 h,  0 min,  0.661 sec
 SCC setup                      ...        0 min,  0.012 sec (  1.788%)
 Dispersion                     ...        0 min,  0.024 sec (  3.607%)
 classical contributions        ...        0 min,  0.020 sec (  3.021%)
 integral evaluation            ...        0 min,  0.089 sec ( 13.399%)
 iterations                     ...        0 min,  0.360 sec ( 54.380%)
 molecular gradient             ...        0 min,  0.140 sec ( 21.200%)
 printout                       ...        0 min,  0.017 sec (  2.591%)

         :::::::::::::::::::::::::::::::::::::::::::::::::::::
         ::                     SUMMARY                     ::
         :::::::::::::::::::::::::::::::::::::::::::::::::::::
         :: total energy            -133.286029585107 Eh    ::
         :: gradient norm              0.120664709623 Eh/a0 ::
         :: HOMO-LUMO gap              2.318215928690 eV    ::
         ::.................................................::
         :: SCC energy              -134.560129038813 Eh    ::
         :: -> isotropic ES            0.211607903593 Eh    ::
         :: -> anisotropic ES         -0.004571678742 Eh    ::
         :: -> anisotropic XC         -0.001882969318 Eh    ::
         :: -> dispersion             -0.097288260816 Eh    ::
         :: repulsion energy           1.270462685046 Eh    ::
         :: add. restraining           0.000000000000 Eh    ::
         :: total charge              -0.000000000000 e     ::
         :::::::::::::::::::::::::::::::::::::::::::::::::::::

      ----------------------------------------------------------- 
     |                   =====================                   |
     |                        A N C O P T                        |
     |                   =====================                   |
     |               Approximate Normal Coordinate               |
     |                Rational Function Optimizer                |
      ----------------------------------------------------------- 

          ...................................................
          :                      SETUP                      :
          :.................................................:
          :   optimization level            normal          :
          :   max. optcycles                   200          :
          :   ANC micro-cycles                  20          :
          :   degrees of freedom               174          :
          :.................................................:
          :   RF solver                   davidson          :
          :   write xtbopt.log                true          :
          :   linear?                        false          :
          :   energy convergence         0.5000000E-05 Eh   :
          :   grad. convergence          0.1000000E-02 Eh/α :
          :   maximium RF displ.         1.0000000          :
          :   Hlow (freq-cutoff)         0.1000000E-01      :
          :   Hmax (freq-cutoff)         5.0000000          :
          :   S6 in model hess.         20.0000000          :
          ...................................................

generating ANC from model Hessian ...
Using Lindh-Hessian (1995)
 Shifting diagonal of input Hessian by    9.7616504785658295E-003
 Lowest  eigenvalues of input Hessian
    0.000000    0.000000    0.000000    0.000000    0.000000    0.000000
    0.010000    0.010081    0.010167    0.010353    0.010413    0.010464
    0.010551    0.011087    0.011363    0.011531    0.011747    0.012793
 Highest eigenvalues
    1.923853    1.927535    1.948733    2.214649    2.227454    2.235205


........................................................................
.............................. CYCLE    1 ..............................
........................................................................
   1   -134.5601290 -0.134560E+03  0.226E-04    2.32       0.0  T
   2   -134.5601290 -0.363372E-09  0.175E-04    2.32      73.7  T
   3   -134.5601290 -0.200657E-09  0.141E-04    2.32      91.5  T
     SCC iter.                  ...        0 min,  0.072 sec
     gradient                   ...        0 min,  0.145 sec
 * total energy  :  -133.2860296 Eh     change       -0.1312600E-08 Eh
   gradient norm :     0.1206617 Eh/α   predicted     0.0000000E+00 (-100.00%)
   displ. norm   :     0.4431959 α      lambda       -0.2629101E-01
   maximum displ.:     0.1328240 α      in ANC's #19, #39, #35, ...

........................................................................
.............................. CYCLE    2 ..............................
........................................................................
   1   -134.6398698 -0.134640E+03  0.215E-01    2.35       0.0  T
   2   -134.6400464 -0.176640E-03  0.129E-01    2.34       1.0  T
   3   -134.6399996  0.468846E-04  0.536E-02    2.32       1.0  T
   4   -134.6400663 -0.667800E-04  0.281E-02    2.32       1.0  T
   5   -134.6400814 -0.150311E-04  0.167E-02    2.32       1.0  T
   6   -134.6400855 -0.414754E-05  0.117E-02    2.32       1.1  T
   7   -134.6400865 -0.949224E-06  0.808E-03    2.32       1.6  T
   8   -134.6400873 -0.845793E-06  0.457E-03    2.32       2.8  T
   9   -134.6400877 -0.386679E-06  0.179E-03    2.32       7.2  T
  10   -134.6400877 -0.293741E-07  0.987E-04    2.32      13.1  T
  11   -134.6400877 -0.174323E-07  0.484E-04    2.32      26.7  T
     SCC iter.                  ...        0 min,  0.253 sec
     gradient                   ...        0 min,  0.157 sec
 * total energy  :  -133.3048929 Eh     change       -0.1886329E-01 Eh
   gradient norm :     0.0533133 Eh/α   predicted    -0.1572758E-01 ( -16.62%)
   displ. norm   :     0.4578867 α      lambda       -0.1100169E-01
   maximum displ.:     0.2007526 α      in ANC's #19, #27, #35, ...

........................................................................
.............................. CYCLE    3 ..............................
........................................................................
   1   -134.6873911 -0.134687E+03  0.173E-01    2.34       0.0  T
   2   -134.6875184 -0.127262E-03  0.102E-01    2.33       1.0  T
   3   -134.6874956  0.227534E-04  0.447E-02    2.32       1.0  T
   4   -134.6875370 -0.414380E-04  0.223E-02    2.32       1.0  T
   5   -134.6875460 -0.890490E-05  0.135E-02    2.32       1.0  T
   6   -134.6875485 -0.249872E-05  0.970E-03    2.32       1.3  T
   7   -134.6875490 -0.568926E-06  0.704E-03    2.32       1.8  T
   8   -134.6875499 -0.839681E-06  0.341E-03    2.32       3.8  T
   9   -134.6875500 -0.146581E-06  0.146E-03    2.32       8.8  T
  10   -134.6875500 -0.395041E-07  0.669E-04    2.32      19.3  T
  11   -134.6875501 -0.856892E-08  0.402E-04    2.32      32.1  T
     SCC iter.                  ...        0 min,  0.245 sec
     gradient                   ...        0 min,  0.141 sec
 * total energy  :  -133.3118666 Eh     change       -0.6973706E-02 Eh
   gradient norm :     0.0168378 Eh/α   predicted    -0.6654157E-02 (  -4.58%)
   displ. norm   :     0.3836347 α      lambda       -0.3085371E-02
   maximum displ.:     0.2032017 α      in ANC's #19, #7, #26, ...

........................................................................
.............................. CYCLE    4 ..............................
........................................................................
   1   -134.6942906 -0.134694E+03  0.118E-01    2.31       0.0  T
   2   -134.6943377 -0.471081E-04  0.692E-02    2.30       1.0  T
   3   -134.6943245  0.131414E-04  0.246E-02    2.31       1.0  T
   4   -134.6943434 -0.189141E-04  0.853E-03    2.30       1.5  T
   5   -134.6943464 -0.299476E-05  0.431E-03    2.30       3.0  T
   6   -134.6943467 -0.290210E-06  0.267E-03    2.30       4.8  T
   7   -134.6943468 -0.647065E-07  0.199E-03    2.30       6.5  T
   8   -134.6943468 -0.528161E-07  0.132E-03    2.30       9.8  T
   9   -134.6943469 -0.171524E-07  0.746E-04    2.30      17.3  T
  10   -134.6943469 -0.646918E-08  0.381E-04    2.30      33.9  T
     SCC iter.                  ...        0 min,  0.225 sec
     gradient                   ...        0 min,  0.124 sec
 * total energy  :  -133.3139321 Eh     change       -0.2065488E-02 Eh
   gradient norm :     0.0138391 Eh/α   predicted    -0.1769732E-02 ( -14.32%)
   displ. norm   :     0.3715497 α      lambda       -0.1632386E-02
   maximum displ.:     0.1699502 α      in ANC's #19, #7, #13, ...

........................................................................
.............................. CYCLE    5 ..............................
........................................................................
   1   -134.6957086 -0.134696E+03  0.104E-01    2.32       0.0  T
   2   -134.6957378 -0.292791E-04  0.612E-02    2.32       1.0  T
   3   -134.6957079  0.298950E-04  0.283E-02    2.33       1.0  T
   4   -134.6957424 -0.344494E-04  0.987E-03    2.32       1.3  T
   5   -134.6957474 -0.501658E-05  0.290E-03    2.32       4.5  T
   6   -134.6957476 -0.161220E-06  0.147E-03    2.32       8.8  T
   7   -134.6957476 -0.198204E-07  0.818E-04    2.32      15.8  T
   8   -134.6957476 -0.971181E-08  0.514E-04    2.32      25.1  T
     SCC iter.                  ...        0 min,  0.184 sec
     gradient                   ...        0 min,  0.148 sec
 * total energy  :  -133.3150893 Eh     change       -0.1157261E-02 Eh
   gradient norm :     0.0132726 Eh/α   predicted    -0.9288711E-03 ( -19.74%)
   displ. norm   :     0.4139588 α      lambda       -0.1233706E-02
   maximum displ.:     0.1837024 α      in ANC's #7, #13, #19, ...

........................................................................
.............................. CYCLE    6 ..............................
........................................................................
   1   -134.6950825 -0.134695E+03  0.111E-01    2.36       0.0  T
   2   -134.6951018 -0.193239E-04  0.641E-02    2.36       1.0  T
   3   -134.6950583  0.435007E-04  0.305E-02    2.37       1.0  T
   4   -134.6951081 -0.498650E-04  0.873E-03    2.37       1.5  T
   5   -134.6951109 -0.277192E-05  0.356E-03    2.37       3.6  T
   6   -134.6951111 -0.156194E-06  0.203E-03    2.37       6.4  T
   7   -134.6951111 -0.492210E-07  0.129E-03    2.37      10.0  T
   8   -134.6951111 -0.122663E-07  0.914E-04    2.37      14.1  T
   9   -134.6951111 -0.467398E-08  0.462E-04    2.37      28.0  T
     SCC iter.                  ...        0 min,  0.210 sec
     gradient                   ...        0 min,  0.143 sec
 * total energy  :  -133.3160547 Eh     change       -0.9653371E-03 Eh
   gradient norm :     0.0113317 Eh/α   predicted    -0.7225746E-03 ( -25.15%)
   displ. norm   :     0.5183360 α      lambda       -0.1292526E-02
   maximum displ.:     0.2267646 α      in ANC's #7, #13, #3, ...

........................................................................
.............................. CYCLE    7 ..............................
........................................................................
   1   -134.6939534 -0.134694E+03  0.149E-01    2.42       0.0  T
   2   -134.6939963 -0.429341E-04  0.840E-02    2.43       1.0  T
   3   -134.6939485  0.478524E-04  0.355E-02    2.45       1.0  T
   4   -134.6940024 -0.539200E-04  0.134E-02    2.45       1.0  T
   5   -134.6940092 -0.679984E-05  0.585E-03    2.45       2.2  T
   6   -134.6940096 -0.383075E-06  0.355E-03    2.45       3.6  T
   7   -134.6940097 -0.124101E-06  0.239E-03    2.45       5.4  T
   8   -134.6940097 -0.308190E-07  0.168E-03    2.45       7.7  T
   9   -134.6940097 -0.285756E-07  0.773E-04    2.45      16.7  T
  10   -134.6940097 -0.788725E-08  0.475E-04    2.45      27.2  T
     SCC iter.                  ...        0 min,  0.229 sec
     gradient                   ...        0 min,  0.140 sec
 * total energy  :  -133.3170764 Eh     change       -0.1021733E-02 Eh
   gradient norm :     0.0102583 Eh/α   predicted    -0.8198997E-03 ( -19.75%)
   displ. norm   :     0.5481900 α      lambda       -0.1179650E-02
   maximum displ.:     0.2321841 α      in ANC's #7, #3, #13, ...

........................................................................
.............................. CYCLE    8 ..............................
........................................................................
   1   -134.6948183 -0.134695E+03  0.158E-01    2.52       0.0  T
   2   -134.6948588 -0.404608E-04  0.880E-02    2.53       1.0  T
   3   -134.6948030  0.557551E-04  0.382E-02    2.54       1.0  T
   4   -134.6948676 -0.645338E-04  0.135E-02    2.54       1.0  T
   5   -134.6948733 -0.579442E-05  0.655E-03    2.54       2.0  T
   6   -134.6948738 -0.458111E-06  0.400E-03    2.54       3.2  T
   7   -134.6948740 -0.176637E-06  0.277E-03    2.54       4.7  T
   8   -134.6948740 -0.483816E-07  0.186E-03    2.54       6.9  T
   9   -134.6948741 -0.314820E-07  0.872E-04    2.54      14.8  T
  10   -134.6948741 -0.110331E-07  0.539E-04    2.54      24.0  T
     SCC iter.                  ...        0 min,  0.227 sec
     gradient                   ...        0 min,  0.164 sec
 * total energy  :  -133.3180018 Eh     change       -0.9254406E-03 Eh
   gradient norm :     0.0095807 Eh/α   predicted    -0.7670797E-03 ( -17.11%)
   displ. norm   :     0.5539444 α      lambda       -0.1067235E-02
   maximum displ.:     0.2670847 α      in ANC's #3, #7, #10, ...

........................................................................
.............................. CYCLE    9 ..............................
........................................................................
   1   -134.6956516 -0.134696E+03  0.159E-01    2.58       0.0  T
   2   -134.6957249 -0.732941E-04  0.890E-02    2.60       1.0  T
   3   -134.6956987  0.262043E-04  0.326E-02    2.62       1.0  T
   4   -134.6957291 -0.303958E-04  0.142E-02    2.62       1.0  T
   5   -134.6957373 -0.816691E-05  0.697E-03    2.62       1.9  T
   6   -134.6957381 -0.791952E-06  0.399E-03    2.62       3.2  T
   7   -134.6957382 -0.141420E-06  0.267E-03    2.62       4.8  T
   8   -134.6957383 -0.306831E-07  0.187E-03    2.62       6.9  T
   9   -134.6957383 -0.477516E-07  0.838E-04    2.62      15.4  T
  10   -134.6957383 -0.689045E-08  0.521E-04    2.62      24.8  T
     SCC iter.                  ...        0 min,  0.229 sec
     gradient                   ...        0 min,  0.147 sec
 * total energy  :  -133.3188317 Eh     change       -0.8298337E-03 Eh
   gradient norm :     0.0148104 Eh/α   predicted    -0.6973897E-03 ( -15.96%)
   displ. norm   :     0.5511438 α      lambda       -0.1210126E-02
   maximum displ.:     0.2990319 α      in ANC's #3, #7, #2, ...

........................................................................
.............................. CYCLE   10 ..............................
........................................................................
   1   -134.7026313 -0.134703E+03  0.148E-01    2.70       0.0  T
   2   -134.7026657 -0.343686E-04  0.837E-02    2.71       1.0  T
   3   -134.7025880  0.777200E-04  0.439E-02    2.71       1.0  T
   4   -134.7026818 -0.937834E-04  0.122E-02    2.72       1.1  T
   5   -134.7026850 -0.321560E-05  0.669E-03    2.72       1.9  T
   6   -134.7026856 -0.610694E-06  0.371E-03    2.72       3.5  T
   7   -134.7026857 -0.125000E-06  0.271E-03    2.72       4.8  T
   8   -134.7026858 -0.648903E-07  0.174E-03    2.72       7.4  T
   9   -134.7026858 -0.827708E-08  0.897E-04    2.72      14.4  T
  10   -134.7026858 -0.233623E-07  0.454E-04    2.72      28.4  T
     SCC iter.                  ...        0 min,  0.224 sec
     gradient                   ...        0 min,  0.145 sec
 * total energy  :  -133.3195958 Eh     change       -0.7640780E-03 Eh
   gradient norm :     0.0139498 Eh/α   predicted    -0.7888700E-03 (   3.24%)
   displ. norm   :     0.5630486 α      lambda       -0.1008983E-02
   maximum displ.:     0.3138797 α      in ANC's #3, #7, #2, ...

........................................................................
.............................. CYCLE   11 ..............................
........................................................................
   1   -134.6988306 -0.134699E+03  0.152E-01    2.73       0.0  T
   2   -134.6989164 -0.857413E-04  0.861E-02    2.75       1.0  T
   3   -134.6988941  0.223153E-04  0.324E-02    2.76       1.0  T
   4   -134.6989240 -0.299199E-04  0.133E-02    2.76       1.0  T
   5   -134.6989307 -0.672624E-05  0.709E-03    2.76       1.8  T
   6   -134.6989316 -0.920229E-06  0.392E-03    2.76       3.3  T
   7   -134.6989318 -0.127471E-06  0.266E-03    2.76       4.9  T
   8   -134.6989318 -0.467561E-07  0.194E-03    2.76       6.6  T
   9   -134.6989318 -0.464326E-07  0.776E-04    2.76      16.6  T
  10   -134.6989319 -0.636189E-08  0.507E-04    2.76      25.4  T
     SCC iter.                  ...        0 min,  0.221 sec
     gradient                   ...        0 min,  0.124 sec
 * total energy  :  -133.3203085 Eh     change       -0.7127675E-03 Eh
   gradient norm :     0.0142795 Eh/α   predicted    -0.6644417E-03 (  -6.78%)
   displ. norm   :     0.4366979 α      lambda       -0.8579211E-03
   maximum displ.:     0.2575076 α      in ANC's #3, #2, #4, ...

........................................................................
.............................. CYCLE   12 ..............................
........................................................................
   1   -134.7030778 -0.134703E+03  0.111E-01    2.76       0.0  T
   2   -134.7031088 -0.309999E-04  0.619E-02    2.76       1.0  T
   3   -134.7030898  0.190140E-04  0.274E-02    2.77       1.0  T
   4   -134.7031159 -0.260819E-04  0.104E-02    2.76       1.2  T
   5   -134.7031189 -0.299436E-05  0.552E-03    2.76       2.3  T
   6   -134.7031193 -0.392761E-06  0.282E-03    2.76       4.6  T
   7   -134.7031193 -0.825704E-07  0.202E-03    2.76       6.4  T
   8   -134.7031194 -0.267552E-07  0.133E-03    2.76       9.7  T
   9   -134.7031194 -0.198549E-07  0.445E-04    2.76      29.0  T
  10   -134.7031194 -0.327799E-08  0.275E-04    2.76      46.9  T
     SCC iter.                  ...        0 min,  0.226 sec
     gradient                   ...        0 min,  0.138 sec
 * total energy  :  -133.3208731 Eh     change       -0.5646084E-03 Eh
   gradient norm :     0.0166747 Eh/α   predicted    -0.5107663E-03 (  -9.54%)
   displ. norm   :     0.5554590 α      lambda       -0.1081620E-02
   maximum displ.:     0.3255139 α      in ANC's #3, #4, #2, ...

........................................................................
.............................. CYCLE   13 ..............................
........................................................................
   1   -134.6994409 -0.134699E+03  0.141E-01    2.80       0.0  T
   2   -134.6994619 -0.210814E-04  0.803E-02    2.79       1.0  T
   3   -134.6993661  0.958127E-04  0.461E-02    2.80       1.0  T
   4   -134.6994796 -0.113501E-03  0.103E-02    2.79       1.3  T
   5   -134.6994805 -0.889085E-06  0.608E-03    2.79       2.1  T
   6   -134.6994812 -0.657243E-06  0.328E-03    2.79       3.9  T
   7   -134.6994813 -0.925635E-07  0.240E-03    2.79       5.4  T
   8   -134.6994813 -0.441019E-07  0.156E-03    2.79       8.3  T
   9   -134.6994813 -0.117890E-07  0.791E-04    2.79      16.3  T
  10   -134.6994813 -0.164999E-07  0.407E-04    2.79      31.7  T
     SCC iter.                  ...        0 min,  0.228 sec
     gradient                   ...        0 min,  0.132 sec
 * total energy  :  -133.3215471 Eh     change       -0.6739661E-03 Eh
   gradient norm :     0.0151171 Eh/α   predicted    -0.7076689E-03 (   5.00%)
   displ. norm   :     0.4371660 α      lambda       -0.6486127E-03
   maximum displ.:     0.2687589 α      in ANC's #3, #2, #4, ...

........................................................................
.............................. CYCLE   14 ..............................
........................................................................
   1   -134.6980056 -0.134698E+03  0.101E-01    2.80       0.0  T
   2   -134.6980165 -0.108611E-04  0.560E-02    2.80       1.0  T
   3   -134.6979958  0.206406E-04  0.233E-02    2.80       1.0  T
   4   -134.6980201 -0.242190E-04  0.803E-03    2.80       1.6  T
   5   -134.6980212 -0.113301E-05  0.446E-03    2.80       2.9  T
   6   -134.6980215 -0.272900E-06  0.248E-03    2.80       5.2  T
   7   -134.6980215 -0.627314E-07  0.182E-03    2.80       7.1  T
   8   -134.6980215 -0.216211E-07  0.110E-03    2.80      11.7  T
   9   -134.6980216 -0.129511E-07  0.445E-04    2.80      29.0  T
  10   -134.6980216 -0.428039E-08  0.288E-04    2.80      44.9  T
     SCC iter.                  ...        0 min,  0.228 sec
     gradient                   ...        0 min,  0.131 sec
 * total energy  :  -133.3220177 Eh     change       -0.4706318E-03 Eh
   gradient norm :     0.0126226 Eh/α   predicted    -0.3862880E-03 ( -17.92%)
   displ. norm   :     0.5257889 α      lambda       -0.8560284E-03
   maximum displ.:     0.3288687 α      in ANC's #3, #2, #4, ...

........................................................................
.............................. CYCLE   15 ..............................
........................................................................
   1   -134.7036098 -0.134704E+03  0.113E-01    2.80       0.0  T
   2   -134.7036507 -0.409199E-04  0.623E-02    2.81       1.0  T
   3   -134.7036381  0.125951E-04  0.249E-02    2.81       1.0  T
   4   -134.7036568 -0.187171E-04  0.106E-02    2.80       1.2  T
   5   -134.7036596 -0.276168E-05  0.566E-03    2.80       2.3  T
   6   -134.7036600 -0.376016E-06  0.329E-03    2.80       3.9  T
   7   -134.7036601 -0.172101E-06  0.218E-03    2.80       5.9  T
   8   -134.7036602 -0.322788E-07  0.138E-03    2.80       9.3  T
   9   -134.7036602 -0.189820E-07  0.521E-04    2.80      24.8  T
  10   -134.7036602 -0.342851E-08  0.284E-04    2.80      45.5  T
     SCC iter.                  ...        0 min,  0.227 sec
     gradient                   ...        0 min,  0.144 sec
 * total energy  :  -133.3225300 Eh     change       -0.5123076E-03 Eh
   gradient norm :     0.0145558 Eh/α   predicted    -0.5463433E-03 (   6.64%)
   displ. norm   :     0.5479067 α      lambda       -0.6816237E-03
   maximum displ.:     0.3548775 α      in ANC's #3, #2, #4, ...

........................................................................
.............................. CYCLE   16 ..............................
........................................................................
   1   -134.6991829 -0.134699E+03  0.126E-01    2.79       0.0  T
   2   -134.6992254 -0.424895E-04  0.698E-02    2.80       1.0  T
   3   -134.6991995  0.258956E-04  0.294E-02    2.80       1.0  T
   4   -134.6992316 -0.321570E-04  0.116E-02    2.80       1.1  T
   5   -134.6992361 -0.449676E-05  0.584E-03    2.80       2.2  T
   6   -134.6992367 -0.535039E-06  0.309E-03    2.80       4.2  T
   7   -134.6992368 -0.960409E-07  0.211E-03    2.80       6.1  T
   8   -134.6992368 -0.264916E-07  0.145E-03    2.80       8.9  T
   9   -134.6992368 -0.243760E-07  0.574E-04    2.80      22.5  T
  10   -134.6992368 -0.385455E-08  0.332E-04    2.80      38.9  T
     SCC iter.                  ...        0 min,  0.225 sec
     gradient                   ...        0 min,  0.146 sec
 * total energy  :  -133.3230054 Eh     change       -0.4753164E-03 Eh
   gradient norm :     0.0119982 Eh/α   predicted    -0.4431299E-03 (  -6.77%)
   displ. norm   :     0.4672927 α      lambda       -0.5797157E-03
   maximum displ.:     0.3118371 α      in ANC's #3, #2, #4, ...

........................................................................
.............................. CYCLE   17 ..............................
........................................................................
   1   -134.7041131 -0.134704E+03  0.989E-02    2.82       0.0  T
   2   -134.7041292 -0.161051E-04  0.551E-02    2.82       1.0  T
   3   -134.7041054  0.237979E-04  0.256E-02    2.82       1.0  T
   4   -134.7041347 -0.293361E-04  0.808E-03    2.82       1.6  T
   5   -134.7041359 -0.120202E-05  0.453E-03    2.82       2.8  T
   6   -134.7041362 -0.309375E-06  0.261E-03    2.82       4.9  T
   7   -134.7041363 -0.950763E-07  0.174E-03    2.82       7.4  T
   8   -134.7041363 -0.195063E-07  0.117E-03    2.82      11.0  T
   9   -134.7041363 -0.736034E-08  0.544E-04    2.82      23.7  T
  10   -134.7041364 -0.857261E-08  0.296E-04    2.82      43.7  T
     SCC iter.                  ...        0 min,  0.225 sec
     gradient                   ...        0 min,  0.130 sec
 * total energy  :  -133.3233926 Eh     change       -0.3872554E-03 Eh
   gradient norm :     0.0107488 Eh/α   predicted    -0.3531531E-03 (  -8.81%)
   displ. norm   :     0.5907467 α      lambda       -0.4990047E-03
   maximum displ.:     0.4060714 α      in ANC's #3, #2, #4, ...

........................................................................
.............................. CYCLE   18 ..............................
........................................................................
   1   -134.7009330 -0.134701E+03  0.131E-01    2.82       0.0  T
   2   -134.7009556 -0.226669E-04  0.719E-02    2.82       1.0  T
   3   -134.7009177  0.379714E-04  0.310E-02    2.82       1.0  T
   4   -134.7009624 -0.447872E-04  0.113E-02    2.82       1.1  T
   5   -134.7009651 -0.264066E-05  0.619E-03    2.82       2.1  T
   6   -134.7009656 -0.492795E-06  0.365E-03    2.82       3.5  T
   7   -134.7009657 -0.155501E-06  0.260E-03    2.82       5.0  T
   8   -134.7009658 -0.285660E-07  0.154E-03    2.82       8.4  T
   9   -134.7009658 -0.336824E-07  0.730E-04    2.82      17.7  T
  10   -134.7009658 -0.102659E-07  0.418E-04    2.82      30.9  T
     SCC iter.                  ...        0 min,  0.222 sec
     gradient                   ...        0 min,  0.142 sec
 * total energy  :  -133.3237599 Eh     change       -0.3672516E-03 Eh
   gradient norm :     0.0082336 Eh/α   predicted    -0.3365746E-03 (  -8.35%)
   displ. norm   :     0.4683049 α      lambda       -0.4919546E-03
   maximum displ.:     0.3259689 α      in ANC's #3, #2, #1, ...

........................................................................
.............................. CYCLE   19 ..............................
........................................................................
   1   -134.7068339 -0.134707E+03  0.104E-01    2.83       0.0  T
   2   -134.7068572 -0.232639E-04  0.572E-02    2.83       1.0  T
   3   -134.7068492  0.794637E-05  0.194E-02    2.83       1.0  T
   4   -134.7068613 -0.120836E-04  0.724E-03    2.83       1.8  T
   5   -134.7068621 -0.827250E-06  0.412E-03    2.83       3.1  T
   6   -134.7068623 -0.194615E-06  0.255E-03    2.83       5.1  T
   7   -134.7068624 -0.698315E-07  0.184E-03    2.83       7.0  T
   8   -134.7068624 -0.215512E-07  0.116E-03    2.83      11.1  T
   9   -134.7068624 -0.181671E-07  0.423E-04    2.83      30.5  T
  10   -134.7068624 -0.314409E-08  0.229E-04    2.83      56.3  T
     SCC iter.                  ...        0 min,  0.224 sec
     gradient                   ...        0 min,  0.121 sec
 * total energy  :  -133.3240877 Eh     change       -0.3278032E-03 Eh
   gradient norm :     0.0101728 Eh/α   predicted    -0.2999226E-03 (  -8.51%)
   displ. norm   :     0.5774792 α      lambda       -0.4439113E-03
   maximum displ.:     0.4056666 α      in ANC's #3, #2, #1, ...

........................................................................
.............................. CYCLE   20 ..............................
........................................................................
   1   -134.7038903 -0.134704E+03  0.128E-01    2.83       0.0  T
   2   -134.7039134 -0.231345E-04  0.701E-02    2.83       1.0  T
   3   -134.7039001  0.132718E-04  0.213E-02    2.83       1.0  T
   4   -134.7039155 -0.153966E-04  0.101E-02    2.83       1.3  T
   5   -134.7039183 -0.273595E-05  0.529E-03    2.83       2.4  T
   6   -134.7039186 -0.375361E-06  0.305E-03    2.83       4.2  T
   7   -134.7039188 -0.152977E-06  0.205E-03    2.83       6.3  T
   8   -134.7039188 -0.144195E-07  0.124E-03    2.83      10.4  T
   9   -134.7039188 -0.212146E-07  0.430E-04    2.83      30.0  T
  10   -134.7039188 -0.420135E-08  0.225E-04    2.83      57.4  T
     SCC iter.                  ...        0 min,  0.248 sec
     gradient                   ...        0 min,  0.141 sec
 * total energy  :  -133.3243834 Eh     change       -0.2957113E-03 Eh
   gradient norm :     0.0141708 Eh/α   predicted    -0.2959772E-03 (   0.09%)
   displ. norm   :     0.4487774 α      lambda       -0.4510335E-03
   maximum displ.:     0.3094777 α      in ANC's #3, #1, #2, ...
 * RMSD in coord.:     0.9871103 α      energy gain  -0.3835379E-01 Eh

generating ANC from model Hessian ...
Using Lindh-Hessian (1995)
 Shifting diagonal of input Hessian by    9.7836863643283069E-003
 Lowest  eigenvalues of input Hessian
    0.000000    0.000000    0.000000    0.000000    0.000000    0.000000
    0.010000    0.010100    0.010348    0.010475    0.010532    0.010665
    0.010720    0.011271    0.011639    0.011795    0.012355    0.012995
 Highest eigenvalues
    2.005636    2.017529    2.027131    2.325674    2.339560    2.403244


........................................................................
.............................. CYCLE   21 ..............................
........................................................................
   1   -134.7060496 -0.134706E+03  0.102E-01    2.85       0.0  T
   2   -134.7060606 -0.109437E-04  0.557E-02    2.84       1.0  T
   3   -134.7060547  0.586970E-05  0.150E-02    2.85       1.0  T
   4   -134.7060622 -0.748542E-05  0.744E-03    2.84       1.7  T
   5   -134.7060632 -0.104825E-05  0.433E-03    2.84       3.0  T
   6   -134.7060636 -0.350031E-06  0.246E-03    2.84       5.2  T
   7   -134.7060636 -0.522542E-07  0.182E-03    2.84       7.1  T
   8   -134.7060637 -0.300059E-07  0.980E-04    2.84      13.2  T
   9   -134.7060637 -0.930470E-08  0.376E-04    2.84      34.3  T
     SCC iter.                  ...        0 min,  0.216 sec
     gradient                   ...        0 min,  0.130 sec
 * total energy  :  -133.3247273 Eh     change       -0.3438893E-03 Eh
   gradient norm :     0.0081036 Eh/α   predicted     0.0000000E+00 (-100.00%)
   displ. norm   :     0.0973375 α      lambda       -0.3061148E-03
   maximum displ.:     0.0386883 α      in ANC's #28, #3, #29, ...

........................................................................
.............................. CYCLE   22 ..............................
........................................................................
   1   -134.7065529 -0.134707E+03  0.360E-02    2.85       0.0  T
   2   -134.7065547 -0.179103E-05  0.210E-02    2.85       1.0  T
   3   -134.7065494  0.523728E-05  0.113E-02    2.85       1.1  T
   4   -134.7065557 -0.628693E-05  0.264E-03    2.85       4.9  T
   5   -134.7065559 -0.180192E-06  0.131E-03    2.85       9.8  T
   6   -134.7065559 -0.230073E-07  0.774E-04    2.85      16.7  T
   7   -134.7065559 -0.969581E-08  0.480E-04    2.85      26.9  T
     SCC iter.                  ...        0 min,  0.162 sec
     gradient                   ...        0 min,  0.145 sec
 * total energy  :  -133.3249666 Eh     change       -0.2392848E-03 Eh
   gradient norm :     0.0038436 Eh/α   predicted    -0.1546058E-03 ( -35.39%)
   displ. norm   :     0.2314442 α      lambda       -0.4059258E-03
   maximum displ.:     0.1047082 α      in ANC's #3, #28, #8, ...

........................................................................
.............................. CYCLE   23 ..............................
........................................................................
   1   -134.7063664 -0.134706E+03  0.715E-02    2.86       0.0  T
   2   -134.7063769 -0.104821E-04  0.414E-02    2.87       1.0  T
   3   -134.7063623  0.146108E-04  0.200E-02    2.86       1.0  T
   4   -134.7063803 -0.180090E-04  0.553E-03    2.87       2.3  T
   5   -134.7063814 -0.107273E-05  0.245E-03    2.86       5.3  T
   6   -134.7063815 -0.853807E-07  0.145E-03    2.87       8.9  T
   7   -134.7063815 -0.396605E-07  0.787E-04    2.87      16.4  T
   8   -134.7063815 -0.589350E-08  0.481E-04    2.87      26.9  T
     SCC iter.                  ...        0 min,  0.183 sec
     gradient                   ...        0 min,  0.126 sec
 * total energy  :  -133.3252353 Eh     change       -0.2686981E-03 Eh
   gradient norm :     0.0071754 Eh/α   predicted    -0.2138361E-03 ( -20.42%)
   displ. norm   :     0.2212254 α      lambda       -0.2308927E-03
   maximum displ.:     0.1183136 α      in ANC's #3, #8, #28, ...

........................................................................
.............................. CYCLE   24 ..............................
........................................................................
   1   -134.7063584 -0.134706E+03  0.566E-02    2.87       0.0  T
   2   -134.7063674 -0.900624E-05  0.324E-02    2.88       1.0  T
   3   -134.7063612  0.619073E-05  0.144E-02    2.87       1.0  T
   4   -134.7063695 -0.828457E-05  0.426E-03    2.87       3.0  T
   5   -134.7063701 -0.640990E-06  0.197E-03    2.87       6.6  T
   6   -134.7063702 -0.432246E-07  0.125E-03    2.87      10.3  T
   7   -134.7063702 -0.356128E-07  0.682E-04    2.87      18.9  T
   8   -134.7063702 -0.360743E-08  0.441E-04    2.87      29.2  T
     SCC iter.                  ...        0 min,  0.180 sec
     gradient                   ...        0 min,  0.142 sec
 * total energy  :  -133.3254296 Eh     change       -0.1943073E-03 Eh
   gradient norm :     0.0089702 Eh/α   predicted    -0.1210970E-03 ( -37.68%)
   displ. norm   :     0.4338884 α      lambda       -0.4766558E-03
   maximum displ.:     0.2406730 α      in ANC's #3, #8, #28, ...

........................................................................
.............................. CYCLE   25 ..............................
........................................................................
   1   -134.7062404 -0.134706E+03  0.102E-01    2.89       0.0  T
   2   -134.7062757 -0.353424E-04  0.583E-02    2.89       1.0  T
   3   -134.7062563  0.193858E-04  0.273E-02    2.89       1.0  T
   4   -134.7062842 -0.278888E-04  0.812E-03    2.89       1.6  T
   5   -134.7062865 -0.229328E-05  0.386E-03    2.89       3.3  T
   6   -134.7062867 -0.132739E-06  0.255E-03    2.89       5.1  T
   7   -134.7062868 -0.137286E-06  0.147E-03    2.89       8.8  T
   8   -134.7062868 -0.138626E-07  0.102E-03    2.89      12.6  T
   9   -134.7062868 -0.973964E-08  0.528E-04    2.89      24.5  T
  10   -134.7062868 -0.286192E-08  0.327E-04    2.89      39.5  T
     SCC iter.                  ...        0 min,  0.227 sec
     gradient                   ...        0 min,  0.139 sec
 * total energy  :  -133.3258164 Eh     change       -0.3868039E-03 Eh
   gradient norm :     0.0101783 Eh/α   predicted    -0.2831963E-03 ( -26.79%)
   displ. norm   :     0.4824652 α      lambda       -0.5223757E-03
   maximum displ.:     0.2863885 α      in ANC's #3, #8, #17, ...

........................................................................
.............................. CYCLE   26 ..............................
........................................................................
   1   -134.7066741 -0.134707E+03  0.104E-01    2.90       0.0  T
   2   -134.7067082 -0.340706E-04  0.595E-02    2.90       1.0  T
   3   -134.7066849  0.232734E-04  0.290E-02    2.90       1.0  T
   4   -134.7067188 -0.338816E-04  0.851E-03    2.90       1.5  T
   5   -134.7067208 -0.198343E-05  0.457E-03    2.90       2.8  T
   6   -134.7067210 -0.194524E-06  0.300E-03    2.90       4.3  T
   7   -134.7067211 -0.176370E-06  0.185E-03    2.90       7.0  T
   8   -134.7067212 -0.156831E-07  0.130E-03    2.90       9.9  T
   9   -134.7067212 -0.206479E-07  0.627E-04    2.90      20.6  T
  10   -134.7067212 -0.426726E-08  0.403E-04    2.90      32.0  T
     SCC iter.                  ...        0 min,  0.226 sec
     gradient                   ...        0 min,  0.143 sec
 * total energy  :  -133.3262240 Eh     change       -0.4076542E-03 Eh
   gradient norm :     0.0097082 Eh/α   predicted    -0.3220063E-03 ( -21.01%)
   displ. norm   :     0.4243036 α      lambda       -0.4321091E-03
   maximum displ.:     0.2698494 α      in ANC's #3, #8, #17, ...

........................................................................
.............................. CYCLE   27 ..............................
........................................................................
   1   -134.7084514 -0.134708E+03  0.877E-02    2.91       0.0  T
   2   -134.7084700 -0.185778E-04  0.495E-02    2.90       1.0  T
   3   -134.7084503  0.196873E-04  0.246E-02    2.90       1.0  T
   4   -134.7084776 -0.273267E-04  0.746E-03    2.90       1.7  T
   5   -134.7084786 -0.100493E-05  0.446E-03    2.90       2.9  T
   6   -134.7084789 -0.257768E-06  0.267E-03    2.90       4.8  T
   7   -134.7084790 -0.118402E-06  0.180E-03    2.90       7.2  T
   8   -134.7084790 -0.142573E-07  0.117E-03    2.90      11.1  T
   9   -134.7084790 -0.185950E-07  0.549E-04    2.90      23.5  T
  10   -134.7084790 -0.351383E-08  0.355E-04    2.90      36.4  T
     SCC iter.                  ...        0 min,  0.230 sec
     gradient                   ...        0 min,  0.148 sec
 * total energy  :  -133.3265553 Eh     change       -0.3312702E-03 Eh
   gradient norm :     0.0068618 Eh/α   predicted    -0.2549521E-03 ( -23.04%)
   displ. norm   :     0.4858255 α      lambda       -0.3522841E-03
   maximum displ.:     0.3103729 α      in ANC's #3, #8, #7, ...

........................................................................
.............................. CYCLE   28 ..............................
........................................................................
   1   -134.7072839 -0.134707E+03  0.106E-01    2.91       0.0  T
   2   -134.7073226 -0.386465E-04  0.592E-02    2.90       1.0  T
   3   -134.7073013  0.212874E-04  0.289E-02    2.90       1.0  T
   4   -134.7073354 -0.340860E-04  0.876E-03    2.90       1.5  T
   5   -134.7073373 -0.189882E-05  0.476E-03    2.90       2.7  T
   6   -134.7073374 -0.167293E-06  0.300E-03    2.90       4.3  T
   7   -134.7073376 -0.184590E-06  0.187E-03    2.90       6.9  T
   8   -134.7073376 -0.186273E-07  0.130E-03    2.90       9.9  T
   9   -134.7073377 -0.180365E-07  0.496E-04    2.90      26.1  T
  10   -134.7073377 -0.322919E-08  0.310E-04    2.90      41.6  T
     SCC iter.                  ...        0 min,  0.227 sec
     gradient                   ...        0 min,  0.149 sec
 * total energy  :  -133.3268192 Eh     change       -0.2639451E-03 Eh
   gradient norm :     0.0108727 Eh/α   predicted    -0.2177193E-03 ( -17.51%)
   displ. norm   :     0.4336011 α      lambda       -0.4733261E-03
   maximum displ.:     0.2991574 α      in ANC's #3, #8, #7, ...

........................................................................
.............................. CYCLE   29 ..............................
........................................................................
   1   -134.7121599 -0.134712E+03  0.979E-02    2.91       0.0  T
   2   -134.7121732 -0.132341E-04  0.545E-02    2.91       1.0  T
   3   -134.7121415  0.316823E-04  0.272E-02    2.91       1.0  T
   4   -134.7121808 -0.393120E-04  0.813E-03    2.91       1.6  T
   5   -134.7121818 -0.965414E-06  0.479E-03    2.91       2.7  T
   6   -134.7121821 -0.359146E-06  0.241E-03    2.91       5.4  T
   7   -134.7121822 -0.630220E-07  0.176E-03    2.91       7.3  T
   8   -134.7121822 -0.259779E-07  0.883E-04    2.91      14.6  T
   9   -134.7121822 -0.474662E-08  0.386E-04    2.91      33.4  T
     SCC iter.                  ...        0 min,  0.204 sec
     gradient                   ...        0 min,  0.136 sec
 * total energy  :  -133.3271165 Eh     change       -0.2972764E-03 Eh
   gradient norm :     0.0093052 Eh/α   predicted    -0.2812128E-03 (  -5.40%)
   displ. norm   :     0.5300215 α      lambda       -0.3884864E-03
   maximum displ.:     0.3594695 α      in ANC's #3, #8, #7, ...

........................................................................
.............................. CYCLE   30 ..............................
........................................................................
   1   -134.7097419 -0.134710E+03  0.117E-01    2.91       0.0  T
   2   -134.7097684 -0.264857E-04  0.651E-02    2.91       1.0  T
   3   -134.7097393  0.290664E-04  0.282E-02    2.90       1.0  T
   4   -134.7097795 -0.401726E-04  0.814E-03    2.90       1.6  T
   5   -134.7097805 -0.103140E-05  0.473E-03    2.90       2.7  T
   6   -134.7097807 -0.241993E-06  0.280E-03    2.90       4.6  T
   7   -134.7097809 -0.136691E-06  0.191E-03    2.90       6.8  T
   8   -134.7097809 -0.199892E-07  0.121E-03    2.90      10.7  T
   9   -134.7097809 -0.175000E-07  0.427E-04    2.90      30.3  T
  10   -134.7097809 -0.286383E-08  0.246E-04    2.90      52.4  T
     SCC iter.                  ...        0 min,  0.221 sec
     gradient                   ...        0 min,  0.148 sec
 * total energy  :  -133.3274263 Eh     change       -0.3098343E-03 Eh
   gradient norm :     0.0094760 Eh/α   predicted    -0.2488163E-03 ( -19.69%)
   displ. norm   :     0.4496046 α      lambda       -0.4243645E-03
   maximum displ.:     0.3194398 α      in ANC's #3, #8, #7, ...

........................................................................
.............................. CYCLE   31 ..............................
........................................................................
   1   -134.7095284 -0.134710E+03  0.108E-01    2.89       0.0  T
   2   -134.7095400 -0.115725E-04  0.602E-02    2.90       1.0  T
   3   -134.7095230  0.169200E-04  0.198E-02    2.89       1.0  T
   4   -134.7095448 -0.217821E-04  0.633E-03    2.89       2.0  T
   5   -134.7095452 -0.415000E-06  0.350E-03    2.89       3.7  T
   6   -134.7095454 -0.179902E-06  0.216E-03    2.89       6.0  T
   7   -134.7095454 -0.294782E-07  0.166E-03    2.89       7.8  T
   8   -134.7095455 -0.187782E-07  0.991E-04    2.89      13.0  T
   9   -134.7095455 -0.178340E-07  0.380E-04    2.89      34.0  T
     SCC iter.                  ...        0 min,  0.212 sec
     gradient                   ...        0 min,  0.135 sec
 * total energy  :  -133.3277544 Eh     change       -0.3280494E-03 Eh
   gradient norm :     0.0099544 Eh/α   predicted    -0.2550760E-03 ( -22.24%)
   displ. norm   :     0.4325594 α      lambda       -0.3795694E-03
   maximum displ.:     0.3157102 α      in ANC's #3, #8, #7, ...

........................................................................
.............................. CYCLE   32 ..............................
........................................................................
   1   -134.7106787 -0.134711E+03  0.111E-01    2.88       0.0  T
   2   -134.7106856 -0.682187E-05  0.624E-02    2.88       1.0  T
   3   -134.7106692  0.163908E-04  0.186E-02    2.88       1.0  T
   4   -134.7106888 -0.195994E-04  0.658E-03    2.88       2.0  T
   5   -134.7106892 -0.448587E-06  0.407E-03    2.88       3.2  T
   6   -134.7106896 -0.415386E-06  0.201E-03    2.88       6.4  T
   7   -134.7106897 -0.353740E-07  0.152E-03    2.88       8.5  T
   8   -134.7106897 -0.170633E-07  0.705E-04    2.88      18.3  T
   9   -134.7106897 -0.569295E-08  0.349E-04    2.88      37.0  T
     SCC iter.                  ...        0 min,  0.205 sec
     gradient                   ...        0 min,  0.137 sec
 * total energy  :  -133.3280285 Eh     change       -0.2741200E-03 Eh
   gradient norm :     0.0070755 Eh/α   predicted    -0.2253032E-03 ( -17.81%)
   displ. norm   :     0.4633131 α      lambda       -0.2501917E-03
   maximum displ.:     0.3528472 α      in ANC's #3, #8, #2, ...

........................................................................
.............................. CYCLE   33 ..............................
........................................................................
   1   -134.7091762 -0.134709E+03  0.107E-01    2.88       0.0  T
   2   -134.7091824 -0.621681E-05  0.594E-02    2.88       1.0  T
   3   -134.7091682  0.142298E-04  0.182E-02    2.88       1.0  T
   4   -134.7091855 -0.172846E-04  0.650E-03    2.87       2.0  T
   5   -134.7091857 -0.192968E-06  0.394E-03    2.88       3.3  T
   6   -134.7091862 -0.499762E-06  0.197E-03    2.88       6.6  T
   7   -134.7091862 -0.223695E-07  0.146E-03    2.88       8.8  T
   8   -134.7091862 -0.204786E-07  0.704E-04    2.88      18.3  T
   9   -134.7091862 -0.365898E-08  0.342E-04    2.88      37.7  T
     SCC iter.                  ...        0 min,  0.213 sec
     gradient                   ...        0 min,  0.141 sec
 * total energy  :  -133.3282159 Eh     change       -0.1873888E-03 Eh
   gradient norm :     0.0067771 Eh/α   predicted    -0.1519494E-03 ( -18.91%)
   displ. norm   :     0.3569382 α      lambda       -0.2222116E-03
   maximum displ.:     0.2787476 α      in ANC's #3, #2, #1, ...

........................................................................
.............................. CYCLE   34 ..............................
........................................................................
   1   -134.7120597 -0.134712E+03  0.822E-02    2.87       0.0  T
   2   -134.7120656 -0.586802E-05  0.463E-02    2.87       1.0  T
   3   -134.7120594  0.613107E-05  0.127E-02    2.87       1.0  T
   4   -134.7120666 -0.718935E-05  0.500E-03    2.87       2.6  T
   5   -134.7120673 -0.657336E-06  0.264E-03    2.87       4.9  T
   6   -134.7120674 -0.139802E-06  0.130E-03    2.87       9.9  T
   7   -134.7120675 -0.285485E-07  0.894E-04    2.87      14.4  T
   8   -134.7120675 -0.399467E-08  0.536E-04    2.87      24.1  T
     SCC iter.                  ...        0 min,  0.188 sec
     gradient                   ...        0 min,  0.128 sec
 * total energy  :  -133.3283802 Eh     change       -0.1643208E-03 Eh
   gradient norm :     0.0037634 Eh/α   predicted    -0.1252623E-03 ( -23.77%)
   displ. norm   :     0.4494654 α      lambda       -0.2033476E-03
   maximum displ.:     0.3543821 α      in ANC's #3, #2, #1, ...

........................................................................
.............................. CYCLE   35 ..............................
........................................................................
   1   -134.7114868 -0.134711E+03  0.940E-02    2.87       0.0  T
   2   -134.7114936 -0.674930E-05  0.529E-02    2.86       1.0  T
   3   -134.7114825  0.110753E-04  0.162E-02    2.86       1.0  T
   4   -134.7114959 -0.134123E-04  0.551E-03    2.86       2.3  T
   5   -134.7114964 -0.462871E-06  0.309E-03    2.86       4.2  T
   6   -134.7114966 -0.195413E-06  0.173E-03    2.86       7.5  T
   7   -134.7114966 -0.530101E-07  0.120E-03    2.86      10.7  T
   8   -134.7114966 -0.460221E-08  0.677E-04    2.86      19.1  T
   9   -134.7114966 -0.807222E-08  0.300E-04    2.86      43.0  T
     SCC iter.                  ...        0 min,  0.201 sec
     gradient                   ...        0 min,  0.137 sec
 * total energy  :  -133.3285310 Eh     change       -0.1507897E-03 Eh
   gradient norm :     0.0069696 Eh/α   predicted    -0.1222381E-03 ( -18.93%)
   displ. norm   :     0.5054349 α      lambda       -0.3108148E-03
   maximum displ.:     0.3797081 α      in ANC's #3, #2, #4, ...

........................................................................
.............................. CYCLE   36 ..............................
........................................................................
   1   -134.7151021 -0.134715E+03  0.105E-01    2.86       0.0  T
   2   -134.7151162 -0.140289E-04  0.594E-02    2.86       1.0  T
   3   -134.7151062  0.997355E-05  0.174E-02    2.86       1.0  T
   4   -134.7151182 -0.119881E-04  0.708E-03    2.86       1.8  T
   5   -134.7151193 -0.108124E-05  0.374E-03    2.86       3.5  T
   6   -134.7151196 -0.378223E-06  0.170E-03    2.86       7.6  T
   7   -134.7151197 -0.229617E-07  0.123E-03    2.86      10.5  T
   8   -134.7151197 -0.159835E-07  0.805E-04    2.86      16.0  T
   9   -134.7151197 -0.357807E-08  0.390E-04    2.86      33.1  T
     SCC iter.                  ...        0 min,  0.208 sec
     gradient                   ...        0 min,  0.118 sec
 * total energy  :  -133.3286791 Eh     change       -0.1480620E-03 Eh
   gradient norm :     0.0121792 Eh/α   predicted    -0.1951130E-03 (  31.78%)
   displ. norm   :     0.4017393 α      lambda       -0.2626428E-03
   maximum displ.:     0.2973663 α      in ANC's #3, #2, #4, ...

........................................................................
.............................. CYCLE   37 ..............................
........................................................................
   1   -134.7136109 -0.134714E+03  0.888E-02    2.86       0.0  T
   2   -134.7136293 -0.184191E-04  0.501E-02    2.85       1.0  T
   3   -134.7136204  0.891911E-05  0.178E-02    2.85       1.0  T
   4   -134.7136326 -0.121785E-04  0.583E-03    2.85       2.2  T
   5   -134.7136336 -0.106528E-05  0.295E-03    2.85       4.4  T
   6   -134.7136337 -0.940273E-07  0.174E-03    2.85       7.4  T
   7   -134.7136338 -0.392059E-07  0.121E-03    2.85      10.7  T
   8   -134.7136338 -0.538179E-08  0.888E-04    2.85      14.5  T
   9   -134.7136338 -0.120868E-07  0.320E-04    2.85      40.3  T
     SCC iter.                  ...        0 min,  0.204 sec
     gradient                   ...        0 min,  0.166 sec
 * total energy  :  -133.3288721 Eh     change       -0.1930525E-03 Eh
   gradient norm :     0.0067872 Eh/α   predicted    -0.1525196E-03 ( -21.00%)
   displ. norm   :     0.3582814 α      lambda       -0.2451036E-03
   maximum displ.:     0.2123505 α      in ANC's #3, #4, #2, ...

........................................................................
.............................. CYCLE   38 ..............................
........................................................................
   1   -134.7141357 -0.134714E+03  0.793E-02    2.85       0.0  T
   2   -134.7141405 -0.477148E-05  0.443E-02    2.85       1.0  T
   3   -134.7141368  0.369349E-05  0.109E-02    2.85       1.2  T
   4   -134.7141417 -0.492519E-05  0.475E-03    2.85       2.7  T
   5   -134.7141420 -0.292591E-06  0.258E-03    2.85       5.0  T
   6   -134.7141421 -0.130546E-06  0.153E-03    2.85       8.5  T
   7   -134.7141421 -0.192887E-07  0.115E-03    2.85      11.3  T
   8   -134.7141422 -0.950104E-08  0.681E-04    2.85      19.0  T
   9   -134.7141422 -0.660756E-08  0.262E-04    2.85      49.3  T
     SCC iter.                  ...        0 min,  0.205 sec
     gradient                   ...        0 min,  0.126 sec
 * total energy  :  -133.3290670 Eh     change       -0.1949037E-03 Eh
   gradient norm :     0.0077562 Eh/α   predicted    -0.1382874E-03 ( -29.05%)
   displ. norm   :     0.4199427 α      lambda       -0.2924248E-03
   maximum displ.:     0.2147032 α      in ANC's #4, #2, #3, ...

........................................................................
.............................. CYCLE   39 ..............................
........................................................................
   1   -134.7140093 -0.134714E+03  0.933E-02    2.85       0.0  T
   2   -134.7140131 -0.387754E-05  0.520E-02    2.85       1.0  T
   3   -134.7140096  0.354465E-05  0.114E-02    2.85       1.1  T
   4   -134.7140140 -0.438790E-05  0.631E-03    2.85       2.0  T
   5   -134.7140147 -0.742211E-06  0.298E-03    2.85       4.3  T
   6   -134.7140149 -0.199603E-06  0.185E-03    2.85       7.0  T
   7   -134.7140149 -0.230100E-07  0.135E-03    2.85       9.6  T
   8   -134.7140150 -0.170403E-07  0.683E-04    2.85      18.9  T
   9   -134.7140150 -0.525085E-08  0.305E-04    2.85      42.3  T
     SCC iter.                  ...        0 min,  0.201 sec
     gradient                   ...        0 min,  0.117 sec
 * total energy  :  -133.3292966 Eh     change       -0.2295223E-03 Eh
   gradient norm :     0.0071818 Eh/α   predicted    -0.1719999E-03 ( -25.06%)
   displ. norm   :     0.5056922 α      lambda       -0.2587058E-03
   maximum displ.:     0.2600704 α      in ANC's #3, #4, #2, ...

........................................................................
.............................. CYCLE   40 ..............................
........................................................................
   1   -134.7122019 -0.134712E+03  0.107E-01    2.85       0.0  T
   2   -134.7122086 -0.669583E-05  0.607E-02    2.85       1.0  T
   3   -134.7122064  0.216326E-05  0.116E-02    2.85       1.1  T
   4   -134.7122100 -0.358176E-05  0.590E-03    2.85       2.2  T
   5   -134.7122103 -0.324815E-06  0.346E-03    2.85       3.7  T
   6   -134.7122106 -0.328695E-06  0.175E-03    2.85       7.4  T
   7   -134.7122107 -0.223056E-07  0.129E-03    2.85      10.0  T
   8   -134.7122107 -0.636001E-08  0.708E-04    2.85      18.2  T
   9   -134.7122107 -0.111533E-07  0.301E-04    2.85      42.9  T
     SCC iter.                  ...        0 min,  0.203 sec
     gradient                   ...        0 min,  0.139 sec
 * total energy  :  -133.3295008 Eh     change       -0.2042100E-03 Eh
   gradient norm :     0.0064957 Eh/α   predicted    -0.1624330E-03 ( -20.46%)
   displ. norm   :     0.5076699 α      lambda       -0.2557742E-03
   maximum displ.:     0.2620130 α      in ANC's #4, #2, #3, ...

........................................................................
.............................. CYCLE   41 ..............................
........................................................................
   1   -134.7132288 -0.134713E+03  0.107E-01    2.86       0.0  T
   2   -134.7132341 -0.532680E-05  0.602E-02    2.85       1.0  T
   3   -134.7132312  0.292598E-05  0.115E-02    2.85       1.1  T
   4   -134.7132353 -0.410957E-05  0.615E-03    2.85       2.1  T
   5   -134.7132360 -0.668062E-06  0.327E-03    2.85       3.9  T
   6   -134.7132362 -0.277464E-06  0.171E-03    2.85       7.5  T
   7   -134.7132363 -0.219728E-07  0.128E-03    2.85      10.1  T
   8   -134.7132363 -0.135366E-07  0.670E-04    2.85      19.3  T
   9   -134.7132363 -0.579422E-08  0.291E-04    2.85      44.3  T
     SCC iter.                  ...        0 min,  0.204 sec
     gradient                   ...        0 min,  0.123 sec
 * total energy  :  -133.3296879 Eh     change       -0.1871855E-03 Eh
   gradient norm :     0.0061615 Eh/α   predicted    -0.1608493E-03 ( -14.07%)
   displ. norm   :     0.6074131 α      lambda       -0.2480124E-03
   maximum displ.:     0.3529032 α      in ANC's #3, #2, #4, ...

........................................................................
.............................. CYCLE   42 ..............................
........................................................................
   1   -134.7094355 -0.134709E+03  0.128E-01    2.85       0.0  T
   2   -134.7094426 -0.714864E-05  0.730E-02    2.85       1.0  T
   3   -134.7094404  0.226961E-05  0.122E-02    2.85       1.1  T
   4   -134.7094445 -0.411781E-05  0.568E-03    2.85       2.3  T
   5   -134.7094447 -0.183193E-06  0.331E-03    2.85       3.9  T
   6   -134.7094450 -0.358943E-06  0.171E-03    2.85       7.5  T
   7   -134.7094451 -0.229426E-07  0.123E-03    2.85      10.5  T
   8   -134.7094451 -0.892294E-08  0.709E-04    2.85      18.2  T
   9   -134.7094451 -0.715445E-08  0.308E-04    2.85      41.9  T
     SCC iter.                  ...        0 min,  0.204 sec
     gradient                   ...        0 min,  0.130 sec
 * total energy  :  -133.3298652 Eh     change       -0.1772301E-03 Eh
   gradient norm :     0.0071898 Eh/α   predicted    -0.1697655E-03 (  -4.21%)
   displ. norm   :     0.4085045 α      lambda       -0.2741979E-03
   maximum displ.:     0.2014004 α      in ANC's #4, #2, #1, ...
 * RMSD in coord.:     0.9983281 α      energy gain  -0.5481798E-02 Eh

generating ANC from model Hessian ...
Using Lindh-Hessian (1995)
 Shifting diagonal of input Hessian by    9.7931048416707335E-003
 Lowest  eigenvalues of input Hessian
    0.000000    0.000000    0.000000    0.000000    0.000000    0.000000
    0.010000    0.010107    0.010374    0.010491    0.010561    0.010634
    0.010712    0.011135    0.011659    0.011752    0.012396    0.012927
 Highest eigenvalues
    2.009981    2.019582    2.029529    2.328674    2.364196    2.400221


........................................................................
.............................. CYCLE   43 ..............................
........................................................................
   1   -134.7164025 -0.134716E+03  0.859E-02    2.85       0.0  T
   2   -134.7164105 -0.800918E-05  0.498E-02    2.85       1.0  T
   3   -134.7163983  0.121418E-04  0.176E-02    2.85       1.0  T
   4   -134.7164127 -0.143474E-04  0.660E-03    2.85       2.0  T
   5   -134.7164136 -0.888249E-06  0.390E-03    2.85       3.3  T
   6   -134.7164138 -0.186697E-06  0.261E-03    2.85       5.0  T
   7   -134.7164138 -0.566637E-07  0.196E-03    2.85       6.6  T
   8   -134.7164139 -0.410323E-07  0.120E-03    2.85      10.8  T
   9   -134.7164139 -0.163974E-07  0.547E-04    2.85      23.6  T
  10   -134.7164139 -0.624550E-08  0.313E-04    2.85      41.3  T
     SCC iter.                  ...        0 min,  0.224 sec
     gradient                   ...        0 min,  0.161 sec
 * total energy  :  -133.3300194 Eh     change       -0.1542184E-03 Eh
   gradient norm :     0.0086233 Eh/α   predicted     0.0000000E+00 (-100.00%)
   displ. norm   :     0.0650104 α      lambda       -0.1438347E-03
   maximum displ.:     0.0280852 α      in ANC's #3, #1, #13, ...

........................................................................
.............................. CYCLE   44 ..............................
........................................................................
   1   -134.7160874 -0.134716E+03  0.231E-02    2.85       0.0  T
   2   -134.7160903 -0.293866E-05  0.145E-02    2.85       1.0  T
   3   -134.7160894  0.851057E-06  0.826E-03    2.85       1.6  T
   4   -134.7160915 -0.207831E-05  0.394E-03    2.85       3.3  T
   5   -134.7160919 -0.421644E-06  0.188E-03    2.85       6.9  T
   6   -134.7160920 -0.296622E-07  0.125E-03    2.85      10.4  T
   7   -134.7160920 -0.113445E-07  0.929E-04    2.85      13.9  T
   8   -134.7160920 -0.912340E-08  0.589E-04    2.85      21.9  T
     SCC iter.                  ...        0 min,  0.188 sec
     gradient                   ...        0 min,  0.141 sec
 * total energy  :  -133.3301234 Eh     change       -0.1040225E-03 Eh
   gradient norm :     0.0037944 Eh/α   predicted    -0.7225238E-04 ( -30.54%)
   displ. norm   :     0.1173173 α      lambda       -0.1143993E-03
   maximum displ.:     0.0613197 α      in ANC's #3, #1, #8, ...

........................................................................
.............................. CYCLE   45 ..............................
........................................................................
   1   -134.7159471 -0.134716E+03  0.355E-02    2.85       0.0  T
   2   -134.7159517 -0.460525E-05  0.204E-02    2.85       1.0  T
   3   -134.7159487  0.304734E-05  0.110E-02    2.85       1.2  T
   4   -134.7159531 -0.445068E-05  0.467E-03    2.85       2.8  T
   5   -134.7159538 -0.641980E-06  0.227E-03    2.85       5.7  T
   6   -134.7159538 -0.470014E-07  0.144E-03    2.85       9.0  T
   7   -134.7159539 -0.172316E-07  0.106E-03    2.85      12.2  T
   8   -134.7159539 -0.107962E-07  0.712E-04    2.85      18.1  T
   9   -134.7159539 -0.549340E-08  0.327E-04    2.85      39.5  T
     SCC iter.                  ...        0 min,  0.205 sec
     gradient                   ...        0 min,  0.130 sec
 * total energy  :  -133.3302005 Eh     change       -0.7709963E-04 Eh
   gradient norm :     0.0025758 Eh/α   predicted    -0.5802293E-04 ( -24.74%)
   displ. norm   :     0.1265568 α      lambda       -0.6500138E-04
   maximum displ.:     0.0721342 α      in ANC's #3, #1, #8, ...

........................................................................
.............................. CYCLE   46 ..............................
........................................................................
   1   -134.7160584 -0.134716E+03  0.293E-02    2.85       0.0  T
   2   -134.7160597 -0.134108E-05  0.165E-02    2.85       1.0  T
   3   -134.7160588  0.902615E-06  0.555E-03    2.84       2.3  T
   4   -134.7160600 -0.116979E-05  0.216E-03    2.84       6.0  T
   5   -134.7160601 -0.109019E-06  0.123E-03    2.85      10.5  T
   6   -134.7160601 -0.311922E-07  0.630E-04    2.84      20.5  T
   7   -134.7160601 -0.413269E-08  0.454E-04    2.84      28.5  T
     SCC iter.                  ...        0 min,  0.158 sec
     gradient                   ...        0 min,  0.143 sec
 * total energy  :  -133.3302543 Eh     change       -0.5374599E-04 Eh
   gradient norm :     0.0040321 Eh/α   predicted    -0.3302931E-04 ( -38.55%)
   displ. norm   :     0.2123982 α      lambda       -0.1001716E-03
   maximum displ.:     0.1223414 α      in ANC's #3, #1, #8, ...

........................................................................
.............................. CYCLE   47 ..............................
........................................................................
   1   -134.7161138 -0.134716E+03  0.445E-02    2.85       0.0  T
   2   -134.7161149 -0.110026E-05  0.252E-02    2.84       1.0  T
   3   -134.7161134  0.149335E-05  0.655E-03    2.84       2.0  T
   4   -134.7161152 -0.183552E-05  0.276E-03    2.84       4.7  T
   5   -134.7161153 -0.117206E-06  0.152E-03    2.84       8.5  T
   6   -134.7161154 -0.537320E-07  0.826E-04    2.84      15.6  T
   7   -134.7161154 -0.583944E-08  0.602E-04    2.84      21.4  T
     SCC iter.                  ...        0 min,  0.166 sec
     gradient                   ...        0 min,  0.028 sec
 * total energy  :  -133.3303384 Eh     change       -0.8410219E-04 Eh
   gradient norm :     0.0044603 Eh/α   predicted    -0.5234963E-04 ( -37.75%)
   displ. norm   :     0.2863514 α      lambda       -0.1204500E-03
   maximum displ.:     0.1706204 α      in ANC's #3, #1, #8, ...

........................................................................
.............................. CYCLE   48 ..............................
........................................................................
   1   -134.7158625 -0.134716E+03  0.567E-02    2.84       0.0  T
   2   -134.7158635 -0.102484E-05  0.326E-02    2.84       1.0  T
   3   -134.7158575  0.593598E-05  0.114E-02    2.84       1.1  T
   4   -134.7158644 -0.684203E-05  0.322E-03    2.84       4.0  T
   5   -134.7158644 -0.550804E-07  0.170E-03    2.84       7.6  T
   6   -134.7158645 -0.688501E-07  0.106E-03    2.84      12.2  T
   7   -134.7158645 -0.534203E-08  0.733E-04    2.84      17.6  T
   8   -134.7158645 -0.435162E-08  0.415E-04    2.84      31.1  T
     SCC iter.                  ...        0 min,  0.181 sec
     gradient                   ...        0 min,  0.115 sec
 * total energy  :  -133.3304386 Eh     change       -0.1002684E-03 Eh
   gradient norm :     0.0038304 Eh/α   predicted    -0.6516400E-04 ( -35.01%)
   displ. norm   :     0.2988892 α      lambda       -0.1132660E-03
   maximum displ.:     0.1859266 α      in ANC's #3, #1, #8, ...

........................................................................
.............................. CYCLE   49 ..............................
........................................................................
   1   -134.7156088 -0.134716E+03  0.575E-02    2.84       0.0  T
   2   -134.7156098 -0.107090E-05  0.331E-02    2.84       1.0  T
   3   -134.7156022  0.766797E-05  0.127E-02    2.83       1.0  T
   4   -134.7156109 -0.870101E-05  0.320E-03    2.83       4.0  T
   5   -134.7156109 -0.824194E-07  0.165E-03    2.83       7.8  T
   6   -134.7156110 -0.513448E-07  0.980E-04    2.83      13.2  T
   7   -134.7156110 -0.535852E-08  0.723E-04    2.83      17.9  T
     SCC iter.                  ...        0 min,  0.160 sec
     gradient                   ...        0 min,  0.123 sec
 * total energy  :  -133.3305360 Eh     change       -0.9735047E-04 Eh
   gradient norm :     0.0029658 Eh/α   predicted    -0.6170261E-04 ( -36.62%)
   displ. norm   :     0.2890981 α      lambda       -0.1112050E-03
   maximum displ.:     0.1875982 α      in ANC's #3, #1, #8, ...

........................................................................
.............................. CYCLE   50 ..............................
........................................................................
   1   -134.7156925 -0.134716E+03  0.547E-02    2.83       0.0  T
   2   -134.7156936 -0.104690E-05  0.315E-02    2.83       1.0  T
   3   -134.7156868  0.677529E-05  0.120E-02    2.83       1.1  T
   4   -134.7156945 -0.766350E-05  0.300E-03    2.83       4.3  T
   5   -134.7156946 -0.905742E-07  0.154E-03    2.83       8.4  T
   6   -134.7156946 -0.467597E-07  0.887E-04    2.83      14.5  T
   7   -134.7156946 -0.713592E-08  0.634E-04    2.83      20.4  T
     SCC iter.                  ...        0 min,  0.157 sec
     gradient                   ...        0 min,  0.156 sec
 * total energy  :  -133.3306355 Eh     change       -0.9956583E-04 Eh
   gradient norm :     0.0026536 Eh/α   predicted    -0.6025459E-04 ( -39.48%)
   displ. norm   :     0.3077394 α      lambda       -0.1253389E-03
   maximum displ.:     0.2068208 α      in ANC's #3, #1, #8, ...

........................................................................
.............................. CYCLE   51 ..............................
........................................................................
   1   -134.7159375 -0.134716E+03  0.580E-02    2.83       0.0  T
   2   -134.7159386 -0.115352E-05  0.334E-02    2.83       1.0  T
   3   -134.7159323  0.638386E-05  0.117E-02    2.83       1.1  T
   4   -134.7159395 -0.726606E-05  0.298E-03    2.83       4.3  T
   5   -134.7159396 -0.646012E-07  0.160E-03    2.83       8.0  T
   6   -134.7159397 -0.773494E-07  0.827E-04    2.83      15.6  T
   7   -134.7159397 -0.713061E-08  0.570E-04    2.83      22.6  T
     SCC iter.                  ...        0 min,  0.160 sec
     gradient                   ...        0 min,  0.115 sec
 * total energy  :  -133.3307500 Eh     change       -0.1144218E-03 Eh
   gradient norm :     0.0031500 Eh/α   predicted    -0.6861120E-04 ( -40.04%)
   displ. norm   :     0.3504508 α      lambda       -0.1474042E-03
   maximum displ.:     0.2415279 α      in ANC's #3, #1, #8, ...

........................................................................
.............................. CYCLE   52 ..............................
........................................................................
   1   -134.7160595 -0.134716E+03  0.658E-02    2.83       0.0  T
   2   -134.7160611 -0.157963E-05  0.379E-02    2.83       1.0  T
   3   -134.7160541  0.701726E-05  0.123E-02    2.83       1.0  T
   4   -134.7160622 -0.808429E-05  0.322E-03    2.83       4.0  T
   5   -134.7160623 -0.639763E-07  0.186E-03    2.83       6.9  T
   6   -134.7160624 -0.113268E-06  0.903E-04    2.83      14.3  T
   7   -134.7160624 -0.930643E-08  0.645E-04    2.83      20.0  T
     SCC iter.                  ...        0 min,  0.167 sec
     gradient                   ...        0 min,  0.156 sec
 * total energy  :  -133.3308864 Eh     change       -0.1364319E-03 Eh
   gradient norm :     0.0038320 Eh/α   predicted    -0.8275631E-04 ( -39.34%)
   displ. norm   :     0.3954290 α      lambda       -0.1709047E-03
   maximum displ.:     0.2772181 α      in ANC's #3, #1, #8, ...

........................................................................
.............................. CYCLE   53 ..............................
........................................................................
   1   -134.7160381 -0.134716E+03  0.738E-02    2.83       0.0  T
   2   -134.7160404 -0.221410E-05  0.426E-02    2.84       1.0  T
   3   -134.7160326  0.770773E-05  0.129E-02    2.84       1.0  T
   4   -134.7160416 -0.897305E-05  0.348E-03    2.84       3.7  T
   5   -134.7160417 -0.113230E-06  0.205E-03    2.84       6.3  T
   6   -134.7160418 -0.119576E-06  0.100E-03    2.84      12.9  T
   7   -134.7160419 -0.151387E-07  0.720E-04    2.84      17.9  T
   8   -134.7160419 -0.406939E-08  0.425E-04    2.84      30.4  T
     SCC iter.                  ...        0 min,  0.180 sec
     gradient                   ...        0 min,  0.139 sec
 * total energy  :  -133.3310464 Eh     change       -0.1600261E-03 Eh
   gradient norm :     0.0042424 Eh/α   predicted    -0.9882049E-04 ( -38.25%)
   displ. norm   :     0.4434249 α      lambda       -0.1979964E-03
   maximum displ.:     0.3142935 α      in ANC's #3, #1, #8, ...

........................................................................
.............................. CYCLE   54 ..............................
........................................................................
   1   -134.7159155 -0.134716E+03  0.821E-02    2.84       0.0  T
   2   -134.7159184 -0.288162E-05  0.475E-02    2.84       1.0  T
   3   -134.7159104  0.805434E-05  0.133E-02    2.84       1.0  T
   4   -134.7159198 -0.944895E-05  0.369E-03    2.84       3.5  T
   5   -134.7159200 -0.176243E-06  0.214E-03    2.84       6.0  T
   6   -134.7159201 -0.120673E-06  0.101E-03    2.84      12.8  T
   7   -134.7159201 -0.192525E-07  0.692E-04    2.84      18.6  T
   8   -134.7159201 -0.376613E-08  0.422E-04    2.84      30.6  T
     SCC iter.                  ...        0 min,  0.186 sec
     gradient                   ...        0 min,  0.140 sec
 * total energy  :  -133.3312325 Eh     change       -0.1860645E-03 Eh
   gradient norm :     0.0043327 Eh/α   predicted    -0.1184663E-03 ( -36.33%)
   displ. norm   :     0.5028089 α      lambda       -0.2310860E-03
   maximum displ.:     0.3591083 α      in ANC's #3, #1, #8, ...

........................................................................
.............................. CYCLE   55 ..............................
........................................................................
   1   -134.7156823 -0.134716E+03  0.922E-02    2.84       0.0  T
   2   -134.7156858 -0.352434E-05  0.536E-02    2.84       1.0  T
   3   -134.7156775  0.831098E-05  0.137E-02    2.84       1.0  T
   4   -134.7156873 -0.980633E-05  0.397E-03    2.84       3.3  T
   5   -134.7156876 -0.250054E-06  0.223E-03    2.84       5.8  T
[...]
       212                          0.6482062              17.6386
      -------------------------------------------------------------
                  HL-Gap            0.1097344 Eh            2.9860 eV
             Fermi-level           -0.3528758 Eh           -9.6022 eV

 SCC (total)                   0 d,  0 h,  0 min,  0.386 sec
 SCC setup                      ...        0 min,  0.027 sec (  6.975%)
 Dispersion                     ...        0 min,  0.016 sec (  4.119%)
 classical contributions        ...        0 min,  0.008 sec (  2.064%)
 integral evaluation            ...        0 min,  0.110 sec ( 28.443%)
 iterations                     ...        0 min,  0.068 sec ( 17.696%)
 molecular gradient             ...        0 min,  0.139 sec ( 36.118%)
 printout                       ...        0 min,  0.018 sec (  4.563%)

         :::::::::::::::::::::::::::::::::::::::::::::::::::::
         ::                     SUMMARY                     ::
         :::::::::::::::::::::::::::::::::::::::::::::::::::::
         :: total energy            -133.338152606459 Eh    ::
         :: gradient norm              0.000873966815 Eh/a0 ::
         :: HOMO-LUMO gap              2.986025063490 eV    ::
         ::.................................................::
         :: SCC energy              -134.726497995994 Eh    ::
         :: -> isotropic ES            0.207975576347 Eh    ::
         :: -> anisotropic ES         -0.005176389462 Eh    ::
         :: -> anisotropic XC         -0.011865725463 Eh    ::
         :: -> dispersion             -0.103082383753 Eh    ::
         :: repulsion energy           1.384824745673 Eh    ::
         :: add. restraining           0.000000000000 Eh    ::
         :: total charge               0.000000000000 e     ::
         :::::::::::::::::::::::::::::::::::::::::::::::::::::

           -------------------------------------------------
          |                Property Printout                |
           -------------------------------------------------

    * Orbital Energies and Occupations

         #    Occupation            Energy/Eh            Energy/eV
      -------------------------------------------------------------
         1        2.0000           -0.8974010             -24.4195
       ...           ...                  ...                  ...
       103        2.0000           -0.4542554             -12.3609
       104        2.0000           -0.4480668             -12.1925
       105        2.0000           -0.4455062             -12.1228
       106        2.0000           -0.4412135             -12.0060
       107        2.0000           -0.4386792             -11.9371
       108        2.0000           -0.4358230             -11.8593
       109        2.0000           -0.4327789             -11.7765
       110        2.0000           -0.4315587             -11.7433
       111        2.0000           -0.4288723             -11.6702
       112        2.0000           -0.4222144             -11.4890
       113        2.0000           -0.4198294             -11.4241
       114        2.0000           -0.4164914             -11.3333
       115        2.0000           -0.4077430             -11.0953 (HOMO)
       116                         -0.2980086              -8.1092 (LUMO)
       117                         -0.2875261              -7.8240
       118                         -0.2868753              -7.8063
       119                         -0.2773918              -7.5482
       120                         -0.2748015              -7.4777
       121                         -0.2710675              -7.3761
       122                         -0.2627941              -7.1510
       123                         -0.2569522              -6.9920
       124                         -0.2496518              -6.7934
       125                         -0.2471510              -6.7253
       126                         -0.2405268              -6.5451
       ...                                ...                  ...
       212                          0.6482062              17.6386
      -------------------------------------------------------------
                  HL-Gap            0.1097344 Eh            2.9860 eV
             Fermi-level           -0.3528758 Eh           -9.6022 eV

     #   Z          covCN         q      C6AA      α(0)
     1   6 C        2.974    -0.030    28.742     8.794
     2   6 C        3.336     0.487    17.265     6.580
     3   9 F        0.791    -0.215    11.395     3.988
     4   9 F        0.791    -0.211    11.345     3.979
     5   9 F        0.793    -0.199    11.227     3.958
     6   6 C        2.926    -0.022    28.550     8.763
     7   6 C        2.920    -0.020    28.497     8.754
     8   6 C        2.918    -0.014    28.364     8.733
     9   6 C        2.931    -0.027    28.678     8.782
    10   6 C        2.966     0.007    27.855     8.657
    11   6 C        3.816     0.040    19.893     6.348
    12   6 C        3.820     0.050    19.715     6.319
    13   6 C        2.972     0.020    27.557     8.611
    14   6 C        2.975    -0.026    28.639     8.778
    15   6 C        3.335     0.485    17.307     6.590
    16   9 F        0.791    -0.199    11.226     3.958
    17   9 F        0.791    -0.229    11.536     4.012
    18   9 F        0.792    -0.199    11.222     3.957
    19   6 C        2.923    -0.021    28.520     8.758
    20   6 C        2.920    -0.021    28.539     8.760
    21   6 C        2.919    -0.016    28.418     8.742
    22   6 C        2.925    -0.029    28.729     8.790
    23   7 N        2.764    -0.111    23.417     7.187
    24   6 C        2.788     0.274    22.368     7.747
    25   6 C        2.995    -0.024    28.595     8.772
    26   6 C        3.115    -0.042    28.866     8.801
    27   6 C        3.135    -0.049    28.979     8.811
    28   6 C        2.942     0.079    26.227     8.399
    29  35 Br       1.137    -0.116   188.233    22.121
    30  16 S        2.464     0.049   139.059    19.847
    31   8 O        0.859    -0.404    21.768     6.255
    32   6 C        3.761     0.094    19.067     6.225
    33   6 C        2.689     0.364    20.821     7.468
    34   8 O        1.659    -0.347    19.844     6.014
    35   8 O        0.856    -0.393    21.536     6.222
    36   7 N        2.764    -0.113    23.460     7.194
    37   6 C        2.785     0.277    22.309     7.737
    38   6 C        2.991    -0.017    28.419     8.745
    39   6 C        3.119    -0.036    28.718     8.777
    40   6 C        3.137    -0.051    29.037     8.820
    41   6 C        2.941     0.081    26.196     8.394
    42  35 Br       1.142    -0.113   188.165    22.117
    43  16 S        2.466     0.019   140.285    19.935
    44   8 O        0.860    -0.409    21.868     6.270
    45   1 H        0.926     0.072     2.063     2.246
    46   1 H        0.926     0.066     2.135     2.285
    47   1 H        0.926     0.067     2.115     2.274
    48   1 H        0.926     0.056     2.248     2.344
    49   1 H        0.923     0.066     2.125     2.280
    50   1 H        0.924     0.074     2.042     2.235
    51   1 H        0.926     0.069     2.095     2.264
    52   1 H        0.926     0.060     2.201     2.320
    53   1 H        0.926     0.061     2.190     2.314
    54   1 H        0.926     0.069     2.092     2.262
    55   1 H        0.926     0.059     2.205     2.322
    56   1 H        0.926     0.070     2.088     2.259
    57   1 H        0.923     0.087     1.906     2.159
    58   1 H        0.804     0.353     0.580     1.197
    59   1 H        0.926     0.074     2.039     2.233
    60   1 H        0.926     0.069     2.098     2.265

 Mol. C6AA /au·bohr⁶  :      69076.491798
 Mol. C8AA /au·bohr⁸  :    2051488.931563
 Mol. α(0) /au        :        411.726472


Wiberg/Mayer (AO) data.
largest (>0.10) Wiberg bond orders for each atom

 ---------------------------------------------------------------------------
     #   Z sym  total        # sym  WBO       # sym  WBO       # sym  WBO
 ---------------------------------------------------------------------------
     1   6 C    3.970 --     6 C    1.408    10 C    1.390     2 C    0.950
                             8 C    0.105
     2   6 C    3.822 --     5 F    0.955     1 C    0.950     4 F    0.944
                             3 F    0.934
     3   9 F    1.064 --     2 C    0.934
     4   9 F    1.071 --     2 C    0.944
     5   9 F    1.079 --     2 C    0.955
     6   6 C    3.987 --     7 C    1.447     1 C    1.408    45 H    0.965
                             9 C    0.108
     7   6 C    3.988 --     6 C    1.447     8 C    1.430    46 H    0.968
                            10 C    0.108
     8   6 C    3.988 --     9 C    1.449     7 C    1.430    47 H    0.967
                             1 C    0.105
     9   6 C    3.988 --     8 C    1.449    10 C    1.405    48 H    0.965
                             6 C    0.108
    10   6 C    3.986 --     9 C    1.405     1 C    1.390    11 C    0.993
                             7 C    0.108
    11   6 C    3.967 --    10 C    0.993    36 N    0.966    12 C    0.950
                            49 H    0.945
    12   6 C    3.964 --    13 C    0.990    23 N    0.957    50 H    0.952
                            11 C    0.950
    13   6 C    3.986 --    22 C    1.409    14 C    1.386    12 C    0.990
                            20 C    0.108
    14   6 C    3.969 --    19 C    1.412    13 C    1.386    15 C    0.951
                            21 C    0.105
    15   6 C    3.821 --    18 F    0.958    16 F    0.952    14 C    0.951
                            17 F    0.922
    16   9 F    1.083 --    15 C    0.952
    17   9 F    1.049 --    15 C    0.922
    18   9 F    1.081 --    15 C    0.958
    19   6 C    3.987 --    20 C    1.443    14 C    1.412    51 H    0.965
                            22 C    0.109
    20   6 C    3.988 --    19 C    1.443    21 C    1.433    52 H    0.968
                            13 C    0.108
    21   6 C    3.989 --    22 C    1.447    20 C    1.433    53 H    0.968
                            14 C    0.105
    22   6 C    3.987 --    21 C    1.447    13 C    1.409    54 H    0.960
                            19 C    0.109
    23   7 N    3.464 --    24 C    1.199    32 C    0.986    12 C    0.957
                            31 O    0.193
    24   6 C    3.951 --    31 O    1.692    23 N    1.199    25 C    0.981
    25   6 C    3.946 --    26 C    1.572    30 S    1.159    24 C    0.981
                            28 C    0.104
    26   6 C    3.985 --    25 C    1.572    27 C    1.282    55 H    0.960
    27   6 C    3.982 --    28 C    1.564    26 C    1.282    56 H    0.961
    28   6 C    3.907 --    27 C    1.564    30 S    1.177    29 Br   1.020
                            25 C    0.104
    29  35 Br   1.170 --    28 C    1.020
    30  16 S    2.649 --    28 C    1.177    25 C    1.159
    31   8 O    2.042 --    24 C    1.692    23 N    0.193
    32   6 C    3.959 --    23 N    0.986    36 N    0.976    57 H    0.942
                            33 C    0.903
    33   6 C    3.922 --    35 O    1.763    34 O    1.180    32 C    0.903
    34   8 O    2.241 --    33 C    1.180    58 H    0.848    35 O    0.184
    35   8 O    2.055 --    33 C    1.763    34 O    0.184
    36   7 N    3.458 --    37 C    1.204    32 C    0.976    11 C    0.966
                            44 O    0.189
    37   6 C    3.949 --    44 O    1.678    36 N    1.204    38 C    0.985
    38   6 C    3.945 --    39 C    1.581    43 S    1.147    37 C    0.985
                            41 C    0.105
    39   6 C    3.984 --    38 C    1.581    40 C    1.276    59 H    0.958
    40   6 C    3.982 --    41 C    1.570    39 C    1.276    60 H    0.961
    41   6 C    3.908 --    40 C    1.570    43 S    1.167    42 Br   1.022
                            38 C    0.105
    42  35 Br   1.173 --    41 C    1.022
    43  16 S    2.640 --    41 C    1.167    38 C    1.147
    44   8 O    2.041 --    37 C    1.678    36 N    0.189
    45   1 H    0.994 --     6 C    0.965
    46   1 H    0.995 --     7 C    0.968
    47   1 H    0.995 --     8 C    0.967
    48   1 H    0.996 --     9 C    0.965
    49   1 H    0.995 --    11 C    0.945
    50   1 H    0.993 --    12 C    0.952
    51   1 H    0.995 --    19 C    0.965
    52   1 H    0.995 --    20 C    0.968
    53   1 H    0.996 --    21 C    0.968
    54   1 H    0.995 --    22 C    0.960
    55   1 H    0.996 --    26 C    0.960
    56   1 H    0.995 --    27 C    0.961
    57   1 H    0.992 --    32 C    0.942
    58   1 H    0.874 --    34 O    0.848
    59   1 H    0.994 --    39 C    0.958
    60   1 H    0.995 --    40 C    0.961
 ---------------------------------------------------------------------------

Topologies differ in total number of bonds
Writing topology from bond orders to xtbtopo.mol

molecular dipole:
                 x           y           z       tot (Debye)
 q only:        1.365      -0.134      -1.296
   full:        1.535      -0.147      -0.476       4.101
molecular quadrupole (traceless):
                xx          xy          yy          xz          yz          zz
 q only:        4.439     -13.549     -14.575       8.746      11.020      10.137
  q+dip:      -14.222      -3.299      -9.025      19.953      10.043      23.247
   full:      -11.294      -1.647      -7.843      17.294       9.049      19.137

           -------------------------------------------------
          |                Geometry Summary                 |
           -------------------------------------------------

      molecular mass/u    :      782.3657326
   center of mass at/Å    :       -0.2538524       0.4769338       0.0021637
  moments of inertia/u·Å² :        0.5873685E+04   0.1415282E+05   0.1605783E+05
rotational constants/cm⁻¹ :        0.2870026E-02   0.1191115E-02   0.1049808E-02

 * 56 selected distances

     #   Z          #   Z                                           value/Å
     2   6 C        3   9 F                                       1.3502229
     2   6 C        4   9 F                                       1.3424942
     2   6 C        5   9 F                                       1.3398209
     1   6 C        6   6 C                                       1.3928133
     6   6 C        7   6 C                                       1.3807594
     7   6 C        8   6 C                                       1.3832823
     8   6 C        9   6 C                                       1.3805544
     1   6 C       10   6 C                                       1.3975356
     9   6 C       10   6 C                                       1.3929316
    13   6 C       14   6 C                                       1.3954450
    15   6 C       16   9 F                                       1.3404111
    15   6 C       17   9 F                                       1.3581940
    15   6 C       18   9 F                                       1.3378078
    14   6 C       19   6 C                                       1.3899332
    19   6 C       20   6 C                                       1.3821247
    20   6 C       21   6 C                                       1.3842073
    13   6 C       22   6 C                                       1.3910657
    21   6 C       22   6 C                                       1.3819267
    12   6 C       23   7 N                                       1.4579711
    23   7 N       24   6 C                                       1.3593121
    25   6 C       26   6 C                                       1.3643581
    26   6 C       27   6 C                                       1.4088440
    27   6 C       28   6 C                                       1.3606276
    28   6 C       29  35 Br                                      1.8734323 (max)
    25   6 C       30  16 S                                       1.7281441
    28   6 C       30  16 S                                       1.7309013
    24   6 C       31   8 O                                       1.2108915
    23   7 N       32   6 C                                       1.4393032
    33   6 C       34   8 O                                       1.3188680
    33   6 C       35   8 O                                       1.2004822
    11   6 C       36   7 N                                       1.4498843
    32   6 C       36   7 N                                       1.4478120
    36   7 N       37   6 C                                       1.3595667
    38   6 C       39   6 C                                       1.3635661
    39   6 C       40   6 C                                       1.4096888
    40   6 C       41   6 C                                       1.3594855
    41   6 C       42  35 Br                                      1.8721279
    38   6 C       43  16 S                                       1.7311961
    41   6 C       43  16 S                                       1.7299909
    37   6 C       44   8 O                                       1.2135980
     6   6 C       45   1 H                                       1.0787647
     7   6 C       46   1 H                                       1.0782378
     8   6 C       47   1 H                                       1.0785255
     9   6 C       48   1 H                                       1.0797023
    11   6 C       49   1 H                                       1.1001758
    12   6 C       50   1 H                                       1.0936730
    19   6 C       51   1 H                                       1.0787443
    20   6 C       52   1 H                                       1.0787364
    21   6 C       53   1 H                                       1.0790826
    22   6 C       54   1 H                                       1.0805248
    26   6 C       55   1 H                                       1.0748914
    27   6 C       56   1 H                                       1.0742610
    32   6 C       57   1 H                                       1.0987916
    34   8 O       58   1 H                                       0.9721281 (min)
    39   6 C       59   1 H                                       1.0742096
    40   6 C       60   1 H                                       1.0742427

 * 8 distinct bonds (by element types)

   Z      Z             #   av. dist./Å        max./Å        min./Å
   1 H    6 C          15     1.0815042     1.1001758     1.0742096
   6 C    6 C          18     1.3843972     1.4096888     1.3594855
   6 C    7 N           6     1.4189749     1.4579711     1.3593121
   1 H    8 O           1     0.9721281     0.9721281     0.9721281
   6 C    8 O           4     1.2359599     1.3188680     1.2004822
   6 C    9 F           6     1.3448251     1.3581940     1.3378078
   6 C   16 S           4     1.7300581     1.7311961     1.7281441
   6 C   35 Br          2     1.8727801     1.8734323     1.8721279


optimized geometry written to: xtbopt.xyz


           -------------------------------------------------
          | TOTAL ENERGY             -133.338152606459 Eh   |
          | GRADIENT NORM               0.000873966815 Eh/α |
          | HOMO-LUMO GAP               2.986025063490 eV   |
           -------------------------------------------------

------------------------------------------------------------------------
 * finished run on 2022/03/16 at 21:30:20.091     
------------------------------------------------------------------------
 total:
 * wall-time:     0 d,  0 h,  0 min, 54.489 sec
 *  cpu-time:     0 d,  0 h, 17 min, 42.854 sec
 * ratio c/w:    19.506 speedup
 SCF:
 * wall-time:     0 d,  0 h,  0 min,  0.662 sec
 *  cpu-time:     0 d,  0 h,  0 min,  9.641 sec
 * ratio c/w:    14.569 speedup
 ANC optimizer:
 * wall-time:     0 d,  0 h,  0 min, 53.657 sec
 *  cpu-time:     0 d,  0 h, 17 min, 28.746 sec
 * ratio c/w:    19.545 speedup

