      -----------------------------------------------------------      
     |                   =====================                   |     
     |                           x T B                           |     
     |                   =====================                   |     
     |                         S. Grimme                         |     
     |          Mulliken Center for Theoretical Chemistry        |     
     |                    University of Bonn                     |     
      -----------------------------------------------------------      

   * xtb version 6.3.3 (4ae9cef) compiled by 'conda@95abc7406d43' on 2020-10-14

   xtb is free software: you can redistribute it and/or modify it under
   the terms of the GNU Lesser General Public License as published by
   the Free Software Foundation, either version 3 of the License, or
   (at your option) any later version.
   
   xtb is distributed in the hope that it will be useful,
   but WITHOUT ANY WARRANTY; without even the implied warranty of
   MERCHANTABILITY or FITNESS FOR A PARTICULAR PURPOSE.  See the
   GNU Lesser General Public License for more details.
   
   Cite this work as:
   * C. Bannwarth, E. Caldeweyher, S. Ehlert, A. Hansen, P. Pracht,
     J. Seibert, S. Spicher, S. Grimme, WIREs Comput. Mol. Sci., 2020,
     e01493. DOI: 10.1002/wcms.1493
   
   for GFN2-xTB:
   * S. Grimme, C. Bannwarth, P. Shushkov, J. Chem. Theory Comput., 2017,
     13, 1989-2009. DOI: 10.1021/acs.jctc.7b00118
   for GFN1-xTB:
   * C. Bannwarth, S. Ehlert and S. Grimme., J. Chem. Theory Comput., 2019,
     15, 1652-1671. DOI: 10.1021/acs.jctc.8b01176
   for GFN0-xTB:
   * P. Pracht, E. Caldeweyher, S. Ehlert, S. Grimme, ChemRxiv, 2019, preprint.
     DOI: 10.26434/chemrxiv.8326202.v1
   for GFN-FF:
   * S. Spicher and S. Grimme, Angew. Chem. Int. Ed., 2020, 59, 15665-15673.
     DOI: 10.1002/anie.202004239
   
   for DFT-D4:
   * E. Caldeweyher, C. Bannwarth and S. Grimme, J. Chem. Phys., 2017,
     147, 034112. DOI: 10.1063/1.4993215
   * E. Caldeweyher, S. Ehlert, A. Hansen, H. Neugebauer, S. Spicher,
     C. Bannwarth and S. Grimme, J. Chem. Phys., 2019, 150, 154122.
     DOI: 10.1063/1.5090222
   * E. Caldeweyher, J.-M. Mewes, S. Ehlert and S. Grimme, Phys. Chem. Chem. Phys.
     2020, 22, 8499-8512. DOI: 10.1039/D0CP00502A
   
   for sTDA-xTB:
   * S. Grimme and C. Bannwarth, J. Chem. Phys., 2016, 145, 054103.
     DOI: 10.1063/1.4959605
   
   in the mass-spec context:
   * V. Asgeirsson, C. Bauer and S. Grimme, Chem. Sci., 2017, 8, 4879.
     DOI: 10.1039/c7sc00601b
   * J. Koopman and S. Grimme, ACS Omega 2019, 4, 12, 15120-15133.
     DOI: 10.1021/acsomega.9b02011
   
   for metadynamics refer to:
   * S. Grimme, J. Chem. Theory Comput., 2019, 155, 2847-2862
     DOI: 10.1021/acs.jctc.9b00143
   
   with help from (in alphabetical order)
   C. Bannwarth, F. Bohle, G. Brandenburg, E. Caldeweyher, M. Checinski,
   S. Dohm, S. Ehlert, S. Ehrlich, F. März, H. Neugebauer, J. Pisarek,
   P. Pracht, P. Shushkov, and S. Spicher.
   
 * started run on 2022/03/16 at 23:26:30.096     

           -------------------------------------------------
          |                Calculation Setup                |
           -------------------------------------------------

          program call               : xtb acid_291.xyz --opt --chrg 0 --uhf 0 --gfn 2
          coordinate file            : acid_291.xyz
          omp threads                :                    64
          number of atoms            :                    76
          number of electrons        :                   226
          charge                     :                     0
          spin                       :                   0.0
          first test random number   :      0.96620092533873

   ID    Z sym.   atoms
    1    6 C      1, 3-16, 18, 20-22, 24-28, 30, 31, 35-41, 43
    2    8 O      2, 17, 23, 29, 32, 33, 42, 44
    3    7 N      19, 34
    4    1 H      45-76

           -------------------------------------------------
          |                 G F N 2 - x T B                 |
           -------------------------------------------------

        Reference                      10.1021/acs.jctc.8b01176
      * Hamiltonian:
        H0-scaling (s, p, d)           1.850000    2.230000    2.230000
        zeta-weighting                 0.500000
      * Dispersion:
        s8                             2.700000
        a1                             0.520000
        a2                             5.000000
        s9                             5.000000
      * Repulsion:
        kExp                           1.500000    1.000000
        rExp                           1.000000
      * Coulomb:
        alpha                          2.000000
        third order                    shell-resolved
        anisotropic                    true
        a3                             3.000000
        a5                             4.000000
        cn-shift                       1.200000
        cn-exp                         4.000000
        max-rad                        5.000000


          ...................................................
          :                      SETUP                      :
          :.................................................:
          :  # basis functions                 208          :
          :  # atomic orbitals                 208          :
          :  # shells                          120          :
          :  # electrons                       226          :
          :  max. iterations                   250          :
          :  Hamiltonian                  GFN2-xTB          :
          :  restarted?                      false          :
          :  GBSA solvation                  false          :
          :  PC potential                    false          :
          :  electronic temp.          300.0000000     K    :
          :  accuracy                    1.0000000          :
          :  -> integral cutoff          0.2500000E+02      :
          :  -> integral neglect         0.1000000E-07      :
          :  -> SCF convergence          0.1000000E-05 Eh   :
          :  -> wf. convergence          0.1000000E-03 e    :
          :  Broyden damping             0.4000000          :
          ...................................................

 iter      E             dE          RMSdq      gap      omega  full diag
   1   -128.9275885 -0.128928E+03  0.468E+00    2.17       0.0  T
   2   -129.1071997 -0.179611E+00  0.264E+00    2.41       1.0  T
   3   -129.0994713  0.772841E-02  0.130E+00    2.31       1.0  T
   4   -129.1292926 -0.298214E-01  0.319E-01    2.35       1.0  T
   5   -129.1335623 -0.426964E-02  0.999E-02    2.35       1.0  T
   6   -129.1338630 -0.300744E-03  0.512E-02    2.35       1.0  T
   7   -129.1338977 -0.346748E-04  0.218E-02    2.34       1.0  T
   8   -129.1339047 -0.701674E-05  0.857E-03    2.34       1.3  T
   9   -129.1339086 -0.392144E-05  0.348E-03    2.34       3.3  T
  10   -129.1339091 -0.505784E-06  0.141E-03    2.34       8.1  T
  11   -129.1339092 -0.411355E-07  0.709E-04    2.34      16.2  T
  12   -129.1339092 -0.104729E-07  0.274E-04    2.34      41.9  T

   *** convergence criteria satisfied after 12 iterations ***

         #    Occupation            Energy/Eh            Energy/eV
      -------------------------------------------------------------
         1        2.0000           -0.7264716             -19.7683
       ...           ...                  ...                  ...
       107        2.0000           -0.3992566             -10.8643
       108        2.0000           -0.3967257             -10.7955
       109        2.0000           -0.3901575             -10.6167
       110        2.0000           -0.3879398             -10.5564
       111        2.0000           -0.3872464             -10.5375
       112        2.0000           -0.3844730             -10.4620
       113        2.0000           -0.3630895              -9.8802 (HOMO)
       114                         -0.2770194              -7.5381 (LUMO)
       115                         -0.2490788              -6.7778
       116                         -0.2397893              -6.5250
       117                         -0.2384993              -6.4899
       118                         -0.2359730              -6.4212
       ...                                ...                  ...
       208                          0.6308118              17.1653
      -------------------------------------------------------------
                  HL-Gap            0.0860700 Eh            2.3421 eV
             Fermi-level           -0.3200544 Eh           -8.7091 eV

 SCC (total)                   0 d,  0 h,  0 min,  0.565 sec
 SCC setup                      ...        0 min,  0.017 sec (  2.955%)
 Dispersion                     ...        0 min,  0.024 sec (  4.269%)
 classical contributions        ...        0 min,  0.011 sec (  1.932%)
 integral evaluation            ...        0 min,  0.114 sec ( 20.132%)
 iterations                     ...        0 min,  0.260 sec ( 45.946%)
 molecular gradient             ...        0 min,  0.136 sec ( 24.080%)
 printout                       ...        0 min,  0.004 sec (  0.669%)

         :::::::::::::::::::::::::::::::::::::::::::::::::::::
         ::                     SUMMARY                     ::
         :::::::::::::::::::::::::::::::::::::::::::::::::::::
         :: total energy            -127.499124150279 Eh    ::
         :: gradient norm              0.110378207319 Eh/a0 ::
         :: HOMO-LUMO gap              2.342085215424 eV    ::
         ::.................................................::
         :: SCC energy              -129.133909178747 Eh    ::
         :: -> isotropic ES            0.178078813215 Eh    ::
         :: -> anisotropic ES          0.009564136031 Eh    ::
         :: -> anisotropic XC          0.040412885624 Eh    ::
         :: -> dispersion             -0.106384230078 Eh    ::
         :: repulsion energy           1.628965766177 Eh    ::
         :: add. restraining           0.000000000000 Eh    ::
         :: total charge              -0.000000000000 e     ::
         :::::::::::::::::::::::::::::::::::::::::::::::::::::

      ----------------------------------------------------------- 
     |                   =====================                   |
     |                        A N C O P T                        |
     |                   =====================                   |
     |               Approximate Normal Coordinate               |
     |                Rational Function Optimizer                |
      ----------------------------------------------------------- 

          ...................................................
          :                      SETUP                      :
          :.................................................:
          :   optimization level            normal          :
          :   max. optcycles                   228          :
          :   ANC micro-cycles                  20          :
          :   degrees of freedom               222          :
          :.................................................:
          :   RF solver                   davidson          :
          :   write xtbopt.log                true          :
          :   linear?                        false          :
          :   energy convergence         0.5000000E-05 Eh   :
          :   grad. convergence          0.1000000E-02 Eh/α :
          :   maximium RF displ.         1.0000000          :
          :   Hlow (freq-cutoff)         0.1000000E-01      :
          :   Hmax (freq-cutoff)         5.0000000          :
          :   S6 in model hess.         20.0000000          :
          ...................................................

generating ANC from model Hessian ...
Using Lindh-Hessian (1995)
 Shifting diagonal of input Hessian by    9.8547874683132669E-003
 Lowest  eigenvalues of input Hessian
    0.000000    0.000000    0.000000    0.000000    0.000000    0.000000
    0.010000    0.010065    0.010130    0.010203    0.010261    0.010385
    0.010438    0.010558    0.010628    0.011176    0.011679    0.011933
 Highest eigenvalues
    2.017450    2.019633    2.046149    2.179823    2.201640    2.227512


........................................................................
.............................. CYCLE    1 ..............................
........................................................................
   1   -129.1339092 -0.129134E+03  0.118E-04    2.34       0.0  T
   2   -129.1339092 -0.167717E-09  0.753E-05    2.34     152.3  T
   3   -129.1339092 -0.911768E-10  0.509E-05    2.34     225.2  T
     SCC iter.                  ...        0 min,  0.073 sec
     gradient                   ...        0 min,  0.132 sec
 * total energy  :  -127.4991242 Eh     change       -0.2879801E-08 Eh
   gradient norm :     0.1103843 Eh/α   predicted     0.0000000E+00 (-100.00%)
   displ. norm   :     0.3880030 α      lambda       -0.2221592E-01
   maximum displ.:     0.0953452 α      in ANC's #46, #25, #66, ...

........................................................................
.............................. CYCLE    2 ..............................
........................................................................
   1   -129.2175454 -0.129218E+03  0.177E-01    2.40       0.0  T
   2   -129.2176881 -0.142762E-03  0.106E-01    2.39       1.0  T
   3   -129.2176476  0.405069E-04  0.457E-02    2.39       1.0  T
   4   -129.2177227 -0.750575E-04  0.783E-03    2.39       1.5  T
   5   -129.2177253 -0.263794E-05  0.364E-03    2.39       3.2  T
   6   -129.2177257 -0.335044E-06  0.166E-03    2.39       6.9  T
   7   -129.2177257 -0.230997E-07  0.572E-04    2.39      20.1  T
   8   -129.2177257 -0.565711E-08  0.296E-04    2.39      38.8  T
     SCC iter.                  ...        0 min,  0.181 sec
     gradient                   ...        0 min,  0.144 sec
 * total energy  :  -127.5144496 Eh     change       -0.1532543E-01 Eh
   gradient norm :     0.0424383 Eh/α   predicted    -0.1278023E-01 ( -16.61%)
   displ. norm   :     0.4299077 α      lambda       -0.8010064E-02
   maximum displ.:     0.1399606 α      in ANC's #25, #20, #18, ...

........................................................................
.............................. CYCLE    3 ..............................
........................................................................
   1   -129.2607949 -0.129261E+03  0.152E-01    2.40       0.0  T
   2   -129.2609210 -0.126165E-03  0.912E-02    2.43       1.0  T
   3   -129.2608715  0.495015E-04  0.448E-02    2.41       1.0  T
   4   -129.2609592 -0.876788E-04  0.888E-03    2.42       1.3  T
   5   -129.2609650 -0.582262E-05  0.317E-03    2.42       3.6  T
   6   -129.2609654 -0.361647E-06  0.157E-03    2.42       7.3  T
   7   -129.2609654 -0.286130E-07  0.761E-04    2.42      15.1  T
   8   -129.2609655 -0.208308E-07  0.237E-04    2.42      48.3  T
     SCC iter.                  ...        0 min,  0.204 sec
     gradient                   ...        0 min,  0.160 sec
 * total energy  :  -127.5195517 Eh     change       -0.5102079E-02 Eh
   gradient norm :     0.0195071 Eh/α   predicted    -0.4745247E-02 (  -6.99%)
   displ. norm   :     0.4465446 α      lambda       -0.3572710E-02
   maximum displ.:     0.1607224 α      in ANC's #18, #25, #20, ...

........................................................................
.............................. CYCLE    4 ..............................
........................................................................
   1   -129.2701333 -0.129270E+03  0.133E-01    2.41       0.0  T
   2   -129.2702280 -0.946843E-04  0.801E-02    2.46       1.0  T
   3   -129.2701721  0.559199E-04  0.376E-02    2.44       1.0  T
   4   -129.2702544 -0.823697E-04  0.854E-03    2.45       1.3  T
   5   -129.2702603 -0.584655E-05  0.262E-03    2.45       4.4  T
   6   -129.2702605 -0.197906E-06  0.145E-03    2.45       7.9  T
   7   -129.2702605 -0.276642E-07  0.606E-04    2.45      18.9  T
   8   -129.2702605 -0.122569E-07  0.189E-04    2.45      60.6  T
     SCC iter.                  ...        0 min,  0.181 sec
     gradient                   ...        0 min,  0.149 sec
 * total energy  :  -127.5219468 Eh     change       -0.2395152E-02 Eh
   gradient norm :     0.0164191 Eh/α   predicted    -0.2142559E-02 ( -10.55%)
   displ. norm   :     0.5222854 α      lambda       -0.2703958E-02
   maximum displ.:     0.2384572 α      in ANC's #18, #4, #20, ...

........................................................................
.............................. CYCLE    5 ..............................
........................................................................
   1   -129.2687279 -0.129269E+03  0.145E-01    2.44       0.0  T
   2   -129.2688688 -0.140915E-03  0.871E-02    2.51       1.0  T
   3   -129.2688120  0.568418E-04  0.438E-02    2.48       1.0  T
   4   -129.2689086 -0.966504E-04  0.108E-02    2.50       1.1  T
   5   -129.2689190 -0.103304E-04  0.262E-03    2.50       4.4  T
   6   -129.2689192 -0.197450E-06  0.149E-03    2.50       7.7  T
   7   -129.2689192 -0.292234E-07  0.611E-04    2.50      18.8  T
   8   -129.2689192 -0.124066E-07  0.200E-04    2.50      57.4  T
     SCC iter.                  ...        0 min,  0.175 sec
     gradient                   ...        0 min,  0.156 sec
 * total energy  :  -127.5240586 Eh     change       -0.2111776E-02 Eh
   gradient norm :     0.0173937 Eh/α   predicted    -0.1720786E-02 ( -18.51%)
   displ. norm   :     0.6066388 α      lambda       -0.2524542E-02
   maximum displ.:     0.3140699 α      in ANC's #18, #4, #15, ...

........................................................................
.............................. CYCLE    6 ..............................
........................................................................
   1   -129.2654646 -0.129265E+03  0.157E-01    2.52       0.0  T
   2   -129.2655903 -0.125735E-03  0.939E-02    2.58       1.0  T
   3   -129.2655097  0.806797E-04  0.446E-02    2.55       1.0  T
   4   -129.2656254 -0.115709E-03  0.104E-02    2.57       1.1  T
   5   -129.2656354 -0.997752E-05  0.265E-03    2.57       4.3  T
   6   -129.2656355 -0.157421E-06  0.155E-03    2.57       7.4  T
   7   -129.2656355 -0.363067E-07  0.577E-04    2.57      19.9  T
   8   -129.2656356 -0.117056E-07  0.209E-04    2.57      55.0  T
     SCC iter.                  ...        0 min,  0.175 sec
     gradient                   ...        0 min,  0.154 sec
 * total energy  :  -127.5261101 Eh     change       -0.2051461E-02 Eh
   gradient norm :     0.0170619 Eh/α   predicted    -0.1726802E-02 ( -15.83%)
   displ. norm   :     0.6451281 α      lambda       -0.2245861E-02
   maximum displ.:     0.3383058 α      in ANC's #18, #4, #9, ...

........................................................................
.............................. CYCLE    7 ..............................
........................................................................
   1   -129.2647957 -0.129265E+03  0.163E-01    2.60       0.0  T
   2   -129.2649535 -0.157762E-03  0.966E-02    2.68       1.0  T
   3   -129.2648853  0.682269E-04  0.452E-02    2.65       1.0  T
   4   -129.2649852 -0.998956E-04  0.119E-02    2.67       1.0  T
   5   -129.2649991 -0.139781E-04  0.273E-03    2.67       4.2  T
   6   -129.2649993 -0.160969E-06  0.158E-03    2.67       7.3  T
   7   -129.2649994 -0.480296E-07  0.622E-04    2.67      18.4  T
   8   -129.2649994 -0.113073E-07  0.251E-04    2.67      45.6  T
     SCC iter.                  ...        0 min,  0.176 sec
     gradient                   ...        0 min,  0.129 sec
 * total energy  :  -127.5279595 Eh     change       -0.1849449E-02 Eh
   gradient norm :     0.0162278 Eh/α   predicted    -0.1590289E-02 ( -14.01%)
   displ. norm   :     0.6516798 α      lambda       -0.2027746E-02
   maximum displ.:     0.3605296 α      in ANC's #4, #18, #9, ...

........................................................................
.............................. CYCLE    8 ..............................
........................................................................
   1   -129.2695206 -0.129270E+03  0.153E-01    2.73       0.0  T
   2   -129.2695929 -0.722812E-04  0.898E-02    2.78       1.0  T
   3   -129.2695176  0.752260E-04  0.366E-02    2.76       1.0  T
   4   -129.2696112 -0.936004E-04  0.818E-03    2.78       1.4  T
   5   -129.2696174 -0.618416E-05  0.257E-03    2.78       4.5  T
   6   -129.2696175 -0.121511E-06  0.141E-03    2.78       8.2  T
   7   -129.2696176 -0.381402E-07  0.538E-04    2.78      21.3  T
   8   -129.2696176 -0.791454E-08  0.223E-04    2.78      51.4  T
     SCC iter.                  ...        0 min,  0.176 sec
     gradient                   ...        0 min,  0.146 sec
 * total energy  :  -127.5296194 Eh     change       -0.1659933E-02 Eh
   gradient norm :     0.0123143 Eh/α   predicted    -0.1444453E-02 ( -12.98%)
   displ. norm   :     0.6831997 α      lambda       -0.1897222E-02
   maximum displ.:     0.4049908 α      in ANC's #4, #18, #9, ...

........................................................................
.............................. CYCLE    9 ..............................
........................................................................
   1   -129.2723812 -0.129272E+03  0.170E-01    2.81       0.0  T
   2   -129.2726045 -0.223322E-03  0.101E-01    2.89       1.0  T
   3   -129.2725587  0.458452E-04  0.475E-02    2.86       1.0  T
   4   -129.2726369 -0.781735E-04  0.141E-02    2.88       1.0  T
   5   -129.2726574 -0.204857E-04  0.297E-03    2.88       3.9  T
   6   -129.2726576 -0.196423E-06  0.166E-03    2.88       6.9  T
   7   -129.2726576 -0.621780E-07  0.706E-04    2.88      16.2  T
   8   -129.2726576 -0.126542E-07  0.308E-04    2.88      37.2  T
     SCC iter.                  ...        0 min,  0.176 sec
     gradient                   ...        0 min,  0.139 sec
 * total energy  :  -127.5310484 Eh     change       -0.1428949E-02 Eh
   gradient norm :     0.0234529 Eh/α   predicted    -0.1391388E-02 (  -2.63%)
   displ. norm   :     0.6120739 α      lambda       -0.1885493E-02
   maximum displ.:     0.4004085 α      in ANC's #4, #18, #9, ...

........................................................................
.............................. CYCLE   10 ..............................
........................................................................
   1   -129.2833480 -0.129283E+03  0.137E-01    2.95       0.0  T
   2   -129.2833763 -0.283486E-04  0.808E-02    2.96       1.0  T
   3   -129.2833287  0.476019E-04  0.258E-02    2.96       1.0  T
   4   -129.2833853 -0.565753E-04  0.435E-03    2.96       2.6  T
   5   -129.2833862 -0.958169E-06  0.221E-03    2.96       5.2  T
   6   -129.2833864 -0.177407E-06  0.111E-03    2.96      10.4  T
   7   -129.2833864 -0.183747E-07  0.450E-04    2.96      25.5  T
   8   -129.2833864 -0.623140E-08  0.176E-04    2.96      65.0  T
     SCC iter.                  ...        0 min,  0.178 sec
     gradient                   ...        0 min,  0.144 sec
 * total energy  :  -127.5324546 Eh     change       -0.1406175E-02 Eh
   gradient norm :     0.0148121 Eh/α   predicted    -0.1295932E-02 (  -7.84%)
   displ. norm   :     0.6701318 α      lambda       -0.1517455E-02
   maximum displ.:     0.4471401 α      in ANC's #4, #18, #9, ...

........................................................................
.............................. CYCLE   11 ..............................
........................................................................
   1   -129.2803620 -0.129280E+03  0.154E-01    2.99       0.0  T
   2   -129.2804274 -0.654309E-04  0.915E-02    3.03       1.0  T
   3   -129.2803485  0.789406E-04  0.357E-02    3.01       1.0  T
   4   -129.2804461 -0.976490E-04  0.770E-03    3.03       1.5  T
   5   -129.2804516 -0.548158E-05  0.241E-03    3.03       4.8  T
   6   -129.2804517 -0.817371E-07  0.137E-03    3.03       8.4  T
   7   -129.2804517 -0.427838E-07  0.489E-04    3.03      23.5  T
   8   -129.2804517 -0.753207E-08  0.208E-04    3.03      55.2  T
     SCC iter.                  ...        0 min,  0.172 sec
     gradient                   ...        0 min,  0.149 sec
 * total energy  :  -127.5337428 Eh     change       -0.1288217E-02 Eh
   gradient norm :     0.0155785 Eh/α   predicted    -0.1099468E-02 ( -14.65%)
   displ. norm   :     0.6571063 α      lambda       -0.1850132E-02
   maximum displ.:     0.4770042 α      in ANC's #4, #9, #26, ...

........................................................................
.............................. CYCLE   12 ..............................
........................................................................
   1   -129.2873776 -0.129287E+03  0.144E-01    3.03       0.0  T
   2   -129.2874201 -0.425683E-04  0.861E-02    3.06       1.0  T
   3   -129.2873565  0.636752E-04  0.303E-02    3.04       1.0  T
   4   -129.2874331 -0.766807E-04  0.589E-03    3.06       1.9  T
   5   -129.2874361 -0.296000E-05  0.212E-03    3.06       5.4  T
   6   -129.2874362 -0.889689E-07  0.119E-03    3.06       9.7  T
   7   -129.2874362 -0.273193E-07  0.479E-04    3.06      24.0  T
   8   -129.2874362 -0.693305E-08  0.189E-04    3.06      60.7  T
     SCC iter.                  ...        0 min,  0.176 sec
     gradient                   ...        0 min,  0.136 sec
 * total energy  :  -127.5351784 Eh     change       -0.1435646E-02 Eh
   gradient norm :     0.0161281 Eh/α   predicted    -0.1324507E-02 (  -7.74%)
   displ. norm   :     0.7134288 α      lambda       -0.1732265E-02
   maximum displ.:     0.5196711 α      in ANC's #4, #26, #3, ...

........................................................................
.............................. CYCLE   13 ..............................
........................................................................
   1   -129.2811405 -0.129281E+03  0.151E-01    3.08       0.0  T
   2   -129.2811818 -0.412639E-04  0.892E-02    3.11       1.0  T
   3   -129.2811054  0.764079E-04  0.325E-02    3.09       1.0  T
   4   -129.2811970 -0.916432E-04  0.614E-03    3.10       1.9  T
   5   -129.2812000 -0.297876E-05  0.245E-03    3.10       4.7  T
   6   -129.2812001 -0.108072E-06  0.131E-03    3.10       8.8  T
   7   -129.2812001 -0.314702E-07  0.505E-04    3.10      22.7  T
   8   -129.2812001 -0.916936E-08  0.177E-04    3.10      64.6  T
     SCC iter.                  ...        0 min,  0.204 sec
     gradient                   ...        0 min,  0.154 sec
 * total energy  :  -127.5365281 Eh     change       -0.1349637E-02 Eh
   gradient norm :     0.0200227 Eh/α   predicted    -0.1306981E-02 (  -3.16%)
   displ. norm   :     0.6396577 α      lambda       -0.1681444E-02
   maximum displ.:     0.5042852 α      in ANC's #4, #10, #3, ...

........................................................................
.............................. CYCLE   14 ..............................
........................................................................
   1   -129.2818690 -0.129282E+03  0.118E-01    3.13       0.0  T
   2   -129.2819168 -0.477421E-04  0.691E-02    3.15       1.0  T
   3   -129.2818853  0.314672E-04  0.263E-02    3.14       1.0  T
   4   -129.2819248 -0.395201E-04  0.618E-03    3.15       1.9  T
   5   -129.2819283 -0.343930E-05  0.212E-03    3.15       5.4  T
   6   -129.2819284 -0.174202E-06  0.112E-03    3.15      10.2  T
   7   -129.2819285 -0.176375E-07  0.497E-04    3.15      23.1  T
   8   -129.2819285 -0.722744E-08  0.169E-04    3.15      67.8  T
     SCC iter.                  ...        0 min,  0.175 sec
     gradient                   ...        0 min,  0.144 sec
 * total energy  :  -127.5378234 Eh     change       -0.1295292E-02 Eh
   gradient norm :     0.0169074 Eh/α   predicted    -0.1184734E-02 (  -8.54%)
   displ. norm   :     0.7114586 α      lambda       -0.1889978E-02
   maximum displ.:     0.5538692 α      in ANC's #4, #10, #26, ...

........................................................................
.............................. CYCLE   15 ..............................
........................................................................
   1   -129.2799068 -0.129280E+03  0.139E-01    3.20       0.0  T
   2   -129.2800267 -0.119915E-03  0.833E-02    3.25       1.0  T
   3   -129.2799867  0.399575E-04  0.397E-02    3.22       1.0  T
   4   -129.2800520 -0.653317E-04  0.106E-02    3.24       1.1  T
   5   -129.2800640 -0.119939E-04  0.250E-03    3.24       4.6  T
   6   -129.2800642 -0.116180E-06  0.142E-03    3.24       8.1  T
   7   -129.2800642 -0.315318E-07  0.591E-04    3.23      19.4  T
   8   -129.2800642 -0.100746E-07  0.234E-04    3.24      48.9  T
     SCC iter.                  ...        0 min,  0.174 sec
     gradient                   ...        0 min,  0.112 sec
 * total energy  :  -127.5392082 Eh     change       -0.1384867E-02 Eh
   gradient norm :     0.0229952 Eh/α   predicted    -0.1423320E-02 (   2.78%)
   displ. norm   :     0.6378246 α      lambda       -0.2036552E-02
   maximum displ.:     0.4936416 α      in ANC's #4, #10, #20, ...

........................................................................
.............................. CYCLE   16 ..............................
........................................................................
   1   -129.2905920 -0.129291E+03  0.120E-01    3.30       0.0  T
   2   -129.2906353 -0.433346E-04  0.710E-02    3.32       1.0  T
   3   -129.2905888  0.464557E-04  0.301E-02    3.31       1.0  T
   4   -129.2906468 -0.579782E-04  0.705E-03    3.32       1.6  T
   5   -129.2906518 -0.497747E-05  0.204E-03    3.32       5.6  T
   6   -129.2906518 -0.504059E-07  0.110E-03    3.32      10.5  T
   7   -129.2906519 -0.160602E-07  0.376E-04    3.32      30.5  T
   8   -129.2906519 -0.480887E-08  0.149E-04    3.32      77.2  T
     SCC iter.                  ...        0 min,  0.180 sec
     gradient                   ...        0 min,  0.123 sec
 * total energy  :  -127.5406883 Eh     change       -0.1480078E-02 Eh
   gradient norm :     0.0177511 Eh/α   predicted    -0.1432535E-02 (  -3.21%)
   displ. norm   :     0.7242102 α      lambda       -0.1945980E-02
   maximum displ.:     0.5779567 α      in ANC's #4, #10, #3, ...

........................................................................
.............................. CYCLE   17 ..............................
........................................................................
   1   -129.2927675 -0.129293E+03  0.125E-01    3.38       0.0  T
   2   -129.2928174 -0.498960E-04  0.734E-02    3.40       1.0  T
   3   -129.2927730  0.444323E-04  0.304E-02    3.39       1.0  T
   4   -129.2928293 -0.563572E-04  0.702E-03    3.40       1.6  T
   5   -129.2928340 -0.464380E-05  0.222E-03    3.39       5.2  T
   6   -129.2928341 -0.114796E-06  0.117E-03    3.39       9.8  T
   7   -129.2928341 -0.167698E-07  0.507E-04    3.39      22.6  T
   8   -129.2928341 -0.638650E-08  0.166E-04    3.39      69.3  T
     SCC iter.                  ...        0 min,  0.176 sec
     gradient                   ...        0 min,  0.147 sec
 * total energy  :  -127.5422835 Eh     change       -0.1595197E-02 Eh
   gradient norm :     0.0185322 Eh/α   predicted    -0.1483307E-02 (  -7.01%)
   displ. norm   :     0.7629960 α      lambda       -0.2143432E-02
   maximum displ.:     0.6169544 α      in ANC's #4, #3, #10, ...

........................................................................
.............................. CYCLE   18 ..............................
........................................................................
   1   -129.2906862 -0.129291E+03  0.132E-01    3.42       0.0  T
   2   -129.2907886 -0.102399E-03  0.791E-02    3.45       1.0  T
   3   -129.2907495  0.391722E-04  0.362E-02    3.44       1.0  T
   4   -129.2908078 -0.583647E-04  0.101E-02    3.45       1.1  T
   5   -129.2908184 -0.105130E-04  0.247E-03    3.45       4.6  T
   6   -129.2908185 -0.154543E-06  0.136E-03    3.45       8.4  T
   7   -129.2908185 -0.239852E-07  0.617E-04    3.45      18.6  T
   8   -129.2908185 -0.118602E-07  0.221E-04    3.45      51.9  T
     SCC iter.                  ...        0 min,  0.176 sec
     gradient                   ...        0 min,  0.156 sec
 * total energy  :  -127.5439372 Eh     change       -0.1653732E-02 Eh
   gradient norm :     0.0209370 Eh/α   predicted    -0.1695634E-02 (   2.53%)
   displ. norm   :     0.6852209 α      lambda       -0.2082855E-02
   maximum displ.:     0.5210856 α      in ANC's #4, #10, #3, ...

........................................................................
.............................. CYCLE   19 ..............................
........................................................................
   1   -129.3004279 -0.129300E+03  0.121E-01    3.47       0.0  T
   2   -129.3004676 -0.396365E-04  0.716E-02    3.49       1.0  T
   3   -129.3004074  0.601805E-04  0.323E-02    3.48       1.0  T
   4   -129.3004834 -0.759669E-04  0.629E-03    3.48       1.8  T
   5   -129.3004870 -0.360330E-05  0.209E-03    3.48       5.5  T
   6   -129.3004871 -0.111769E-06  0.114E-03    3.48      10.0  T
   7   -129.3004871 -0.123769E-07  0.537E-04    3.48      21.4  T
   8   -129.3004871 -0.933218E-08  0.155E-04    3.48      74.2  T
     SCC iter.                  ...        0 min,  0.176 sec
     gradient                   ...        0 min,  0.129 sec
 * total energy  :  -127.5454361 Eh     change       -0.1498859E-02 Eh
   gradient norm :     0.0235290 Eh/α   predicted    -0.1530425E-02 (   2.11%)
   displ. norm   :     0.7559186 α      lambda       -0.2478229E-02
   maximum displ.:     0.6121348 α      in ANC's #4, #3, #10, ...

........................................................................
.............................. CYCLE   20 ..............................
........................................................................
   1   -129.2867900 -0.129287E+03  0.137E-01    3.48       0.0  T
   2   -129.2868401 -0.500820E-04  0.811E-02    3.49       1.0  T
   3   -129.2867708  0.692265E-04  0.366E-02    3.48       1.0  T
   4   -129.2868598 -0.889516E-04  0.723E-03    3.48       1.6  T
   5   -129.2868645 -0.469767E-05  0.229E-03    3.48       5.0  T
   6   -129.2868645 -0.597913E-07  0.127E-03    3.48       9.0  T
   7   -129.2868646 -0.367318E-07  0.463E-04    3.48      24.8  T
   8   -129.2868646 -0.578268E-08  0.182E-04    3.48      63.0  T
     SCC iter.                  ...        0 min,  0.175 sec
     gradient                   ...        0 min,  0.116 sec
 * total energy  :  -127.5471732 Eh     change       -0.1737138E-02 Eh
   gradient norm :     0.0267084 Eh/α   predicted    -0.1947164E-02 (  12.09%)
   displ. norm   :     0.5834043 α      lambda       -0.2284511E-02
   maximum displ.:     0.4411947 α      in ANC's #4, #22, #3, ...
 * RMSD in coord.:     1.1638054 α      energy gain  -0.4804907E-01 Eh

generating ANC from model Hessian ...
Using Lindh-Hessian (1995)
 Shifting diagonal of input Hessian by    9.8261816030454658E-003
 Lowest  eigenvalues of input Hessian
    0.000000    0.000000    0.000000    0.000000    0.000000    0.000000
    0.010000    0.010022    0.010199    0.010297    0.010414    0.010477
    0.010553    0.010815    0.011180    0.011426    0.012010    0.012280
 Highest eigenvalues
    2.109660    2.113392    2.120383    2.302474    2.309835    2.336882


........................................................................
.............................. CYCLE   21 ..............................
........................................................................
   1   -129.2910721 -0.129291E+03  0.106E-01    3.48       0.0  T
   2   -129.2911087 -0.365499E-04  0.616E-02    3.48       1.0  T
   3   -129.2910794  0.292297E-04  0.263E-02    3.48       1.0  T
   4   -129.2911184 -0.390147E-04  0.534E-03    3.48       2.1  T
   5   -129.2911206 -0.211964E-05  0.211E-03    3.48       5.4  T
   6   -129.2911207 -0.154845E-06  0.112E-03    3.48      10.3  T
   7   -129.2911207 -0.166500E-07  0.530E-04    3.48      21.6  T
   8   -129.2911208 -0.115824E-07  0.165E-04    3.48      69.7  T
     SCC iter.                  ...        0 min,  0.172 sec
     gradient                   ...        0 min,  0.146 sec
 * total energy  :  -127.5489425 Eh     change       -0.1769240E-02 Eh
   gradient norm :     0.0216022 Eh/α   predicted     0.0000000E+00 (-100.00%)
   displ. norm   :     0.2363713 α      lambda       -0.1682462E-02
   maximum displ.:     0.1016944 α      in ANC's #5, #24, #25, ...

........................................................................
.............................. CYCLE   22 ..............................
........................................................................
   1   -129.3003081 -0.129300E+03  0.629E-02    3.49       0.0  T
   2   -129.3003292 -0.211183E-04  0.365E-02    3.49       1.0  T
   3   -129.3003212  0.806936E-05  0.180E-02    3.49       1.0  T
   4   -129.3003337 -0.125313E-04  0.454E-03    3.49       2.5  T
   5   -129.3003359 -0.216180E-05  0.106E-03    3.49      10.8  T
   6   -129.3003359 -0.234056E-07  0.620E-04    3.49      18.5  T
   7   -129.3003359 -0.577538E-08  0.269E-04    3.49      42.6  T
     SCC iter.                  ...        0 min,  0.153 sec
     gradient                   ...        0 min,  0.141 sec
 * total energy  :  -127.5503259 Eh     change       -0.1383458E-02 Eh
   gradient norm :     0.0098377 Eh/α   predicted    -0.8882316E-03 ( -35.80%)
   displ. norm   :     0.5729395 α      lambda       -0.2647733E-02
   maximum displ.:     0.2487222 α      in ANC's #5, #24, #25, ...

........................................................................
.............................. CYCLE   23 ..............................
........................................................................
   1   -129.3074495 -0.129307E+03  0.130E-01    3.51       0.0  T
   2   -129.3075345 -0.849467E-04  0.746E-02    3.51       1.0  T
   3   -129.3074936  0.408803E-04  0.365E-02    3.50       1.0  T
   4   -129.3075545 -0.608800E-04  0.959E-03    3.51       1.2  T
   5   -129.3075637 -0.927199E-05  0.257E-03    3.51       4.5  T
   6   -129.3075638 -0.705289E-07  0.144E-03    3.51       7.9  T
   7   -129.3075638 -0.431762E-07  0.582E-04    3.51      19.7  T
   8   -129.3075639 -0.103087E-07  0.223E-04    3.51      51.4  T
     SCC iter.                  ...        0 min,  0.179 sec
     gradient                   ...        0 min,  0.131 sec
 * total energy  :  -127.5524892 Eh     change       -0.2163251E-02 Eh
   gradient norm :     0.0129650 Eh/α   predicted    -0.1758440E-02 ( -18.71%)
   displ. norm   :     0.6891018 α      lambda       -0.2420748E-02
   maximum displ.:     0.3123056 α      in ANC's #5, #24, #25, ...

........................................................................
.............................. CYCLE   24 ..............................
........................................................................
   1   -129.3032305 -0.129303E+03  0.153E-01    3.52       0.0  T
   2   -129.3033129 -0.824523E-04  0.894E-02    3.52       1.0  T
   3   -129.3032296  0.833119E-04  0.403E-02    3.50       1.0  T
   4   -129.3033391 -0.109547E-03  0.947E-03    3.51       1.2  T
   5   -129.3033470 -0.782131E-05  0.331E-03    3.51       3.5  T
   6   -129.3033471 -0.158576E-06  0.159E-03    3.51       7.2  T
   7   -129.3033472 -0.592257E-07  0.780E-04    3.51      14.7  T
   8   -129.3033472 -0.159824E-07  0.273E-04    3.51      42.0  T
     SCC iter.                  ...        0 min,  0.177 sec
     gradient                   ...        0 min,  0.141 sec
 * total energy  :  -127.5541084 Eh     change       -0.1619258E-02 Eh
   gradient norm :     0.0291724 Eh/α   predicted    -0.1785133E-02 (  10.24%)
   displ. norm   :     0.4078082 α      lambda       -0.1614776E-02
   maximum displ.:     0.2352898 α      in ANC's #5, #1, #11, ...

........................................................................
.............................. CYCLE   25 ..............................
........................................................................
   1   -129.3039645 -0.129304E+03  0.810E-02    3.49       0.0  T
   2   -129.3039969 -0.324308E-04  0.475E-02    3.50       1.0  T
   3   -129.3039917  0.521665E-05  0.149E-02    3.49       1.0  T
   4   -129.3039973 -0.561077E-05  0.537E-03    3.49       2.1  T
   5   -129.3040001 -0.278115E-05  0.168E-03    3.49       6.8  T
   6   -129.3040002 -0.796043E-07  0.934E-04    3.49      12.3  T
   7   -129.3040002 -0.954188E-08  0.360E-04    3.49      31.9  T
     SCC iter.                  ...        0 min,  0.157 sec
     gradient                   ...        0 min,  0.061 sec
 * total energy  :  -127.5551844 Eh     change       -0.1075930E-02 Eh
   gradient norm :     0.0215425 Eh/α   predicted    -0.9416969E-03 ( -12.48%)
   displ. norm   :     0.4076859 α      lambda        0.6970362E-04
   maximum displ.:     0.2352954 α      in ANC's #5, #1, #11, ...

........................................................................
.............................. CYCLE   26 ..............................
........................................................................
   1   -129.3014790 -0.129301E+03  0.820E-02    3.48       0.0  T
   2   -129.3015260 -0.470574E-04  0.478E-02    3.48       1.0  T
   3   -129.3015233  0.275245E-05  0.165E-02    3.48       1.0  T
   4   -129.3015260 -0.269699E-05  0.582E-03    3.48       2.0  T
   5   -129.3015292 -0.320406E-05  0.172E-03    3.48       6.7  T
   6   -129.3015293 -0.846116E-07  0.942E-04    3.48      12.2  T
   7   -129.3015293 -0.105969E-07  0.373E-04    3.48      30.8  T
     SCC iter.                  ...        0 min,  0.157 sec
     gradient                   ...        0 min,  0.143 sec
 * total energy  :  -127.5551130 Eh     change        0.7136003E-04 Eh
   gradient norm :     0.0384592 Eh/α   predicted     0.4064348E-04 ( -43.04%)
   displ. norm   :     0.2018085 α      lambda       -0.2066751E-02
   maximum displ.:     0.1235981 α      in ANC's #5, #1, #11, ...

........................................................................
.............................. CYCLE   27 ..............................
........................................................................
   1   -129.3010066 -0.129301E+03  0.754E-02    3.48       0.0  T
   2   -129.3011822 -0.175621E-03  0.408E-02    3.47       1.0  T
   3   -129.3011874 -0.524810E-05  0.227E-02    3.47       1.0  T
   4   -129.3011857  0.173188E-05  0.783E-03    3.47       1.5  T
   5   -129.3011891 -0.334703E-05  0.166E-03    3.47       6.9  T
   6   -129.3011893 -0.215287E-06  0.683E-04    3.47      16.8  T
   7   -129.3011893 -0.697833E-08  0.275E-04    3.47      41.7  T
     SCC iter.                  ...        0 min,  0.162 sec
     gradient                   ...        0 min,  0.152 sec
 * total energy  :  -127.5563261 Eh     change       -0.1213050E-02 Eh
   gradient norm :     0.0148950 Eh/α   predicted    -0.1075469E-02 ( -11.34%)
   displ. norm   :     0.3122787 α      lambda       -0.1174783E-02
   maximum displ.:     0.1946929 α      in ANC's #5, #1, #18, ...

........................................................................
.............................. CYCLE   28 ..............................
........................................................................
   1   -129.3036698 -0.129304E+03  0.705E-02    3.49       0.0  T
   2   -129.3036797 -0.987367E-05  0.411E-02    3.49       1.0  T
   3   -129.3036759  0.376761E-05  0.117E-02    3.49       1.0  T
   4   -129.3036819 -0.597152E-05  0.250E-03    3.49       4.6  T
   5   -129.3036821 -0.229175E-06  0.148E-03    3.49       7.8  T
   6   -129.3036822 -0.564352E-07  0.653E-04    3.49      17.6  T
   7   -129.3036822 -0.120682E-07  0.218E-04    3.49      52.7  T
     SCC iter.                  ...        0 min,  0.154 sec
     gradient                   ...        0 min,  0.149 sec
 * total energy  :  -127.5570662 Eh     change       -0.7401131E-03 Eh
   gradient norm :     0.0161112 Eh/α   predicted    -0.6446755E-03 ( -12.90%)
   displ. norm   :     0.3878221 α      lambda       -0.1004736E-02
   maximum displ.:     0.2759558 α      in ANC's #5, #1, #11, ...

........................................................................
.............................. CYCLE   29 ..............................
........................................................................
   1   -129.3094658 -0.129309E+03  0.675E-02    3.48       0.0  T
   2   -129.3094803 -0.144988E-04  0.402E-02    3.48       1.0  T
   3   -129.3094749  0.540183E-05  0.138E-02    3.48       1.0  T
   4   -129.3094832 -0.835183E-05  0.282E-03    3.48       4.1  T
   5   -129.3094835 -0.300062E-06  0.146E-03    3.48       7.8  T
   6   -129.3094836 -0.790986E-07  0.557E-04    3.48      20.6  T
   7   -129.3094836 -0.370753E-08  0.252E-04    3.48      45.6  T
     SCC iter.                  ...        0 min,  0.156 sec
     gradient                   ...        0 min,  0.142 sec
 * total energy  :  -127.5577079 Eh     change       -0.6417568E-03 Eh
   gradient norm :     0.0111837 Eh/α   predicted    -0.5779275E-03 (  -9.95%)
   displ. norm   :     0.5734804 α      lambda       -0.1024032E-02
   maximum displ.:     0.3850981 α      in ANC's #5, #1, #6, ...

........................................................................
.............................. CYCLE   30 ..............................
........................................................................
   1   -129.3031798 -0.129303E+03  0.109E-01    3.47       0.0  T
   2   -129.3031913 -0.115166E-04  0.642E-02    3.47       1.0  T
   3   -129.3031757  0.155439E-04  0.151E-02    3.46       1.0  T
   4   -129.3031949 -0.192078E-04  0.374E-03    3.47       3.1  T
   5   -129.3031956 -0.695009E-06  0.197E-03    3.47       5.8  T
   6   -129.3031957 -0.815688E-07  0.838E-04    3.47      13.7  T
   7   -129.3031957 -0.131711E-07  0.362E-04    3.47      31.7  T
     SCC iter.                  ...        0 min,  0.158 sec
     gradient                   ...        0 min,  0.146 sec
 * total energy  :  -127.5584266 Eh     change       -0.7186978E-03 Eh
   gradient norm :     0.0127346 Eh/α   predicted    -0.6804089E-03 (  -5.33%)
   displ. norm   :     0.4707966 α      lambda       -0.8060288E-03
   maximum displ.:     0.3332000 α      in ANC's #5, #1, #6, ...

........................................................................
.............................. CYCLE   31 ..............................
........................................................................
   1   -129.3046948 -0.129305E+03  0.845E-02    3.44       0.0  T
   2   -129.3047050 -0.101679E-04  0.495E-02    3.44       1.0  T
   3   -129.3046958  0.916906E-05  0.120E-02    3.43       1.0  T
   4   -129.3047067 -0.109000E-04  0.335E-03    3.43       3.4  T
   5   -129.3047076 -0.817772E-06  0.144E-03    3.43       8.0  T
   6   -129.3047076 -0.675455E-07  0.709E-04    3.43      16.2  T
   7   -129.3047076 -0.705433E-08  0.279E-04    3.43      41.1  T
     SCC iter.                  ...        0 min,  0.198 sec
     gradient                   ...        0 min,  0.136 sec
 * total energy  :  -127.5590167 Eh     change       -0.5900799E-03 Eh
   gradient norm :     0.0075078 Eh/α   predicted    -0.4923425E-03 ( -16.56%)
   displ. norm   :     0.5076037 α      lambda       -0.5751030E-03
   maximum displ.:     0.3673785 α      in ANC's #5, #1, #13, ...

........................................................................
.............................. CYCLE   32 ..............................
........................................................................
   1   -129.3061139 -0.129306E+03  0.853E-02    3.41       0.0  T
   2   -129.3061190 -0.505478E-05  0.501E-02    3.42       1.0  T
   3   -129.3061131  0.589870E-05  0.960E-03    3.41       1.2  T
   4   -129.3061204 -0.727261E-05  0.242E-03    3.41       4.7  T
   5   -129.3061206 -0.270836E-06  0.130E-03    3.41       8.8  T
   6   -129.3061207 -0.387122E-07  0.602E-04    3.41      19.0  T
   7   -129.3061207 -0.693507E-08  0.210E-04    3.41      54.5  T
     SCC iter.                  ...        0 min,  0.153 sec
     gradient                   ...        0 min,  0.142 sec
 * total energy  :  -127.5594682 Eh     change       -0.4514738E-03 Eh
   gradient norm :     0.0091753 Eh/α   predicted    -0.3616444E-03 ( -19.90%)
   displ. norm   :     0.5098725 α      lambda       -0.4971680E-03
   maximum displ.:     0.3699385 α      in ANC's #5, #1, #13, ...

........................................................................
.............................. CYCLE   33 ..............................
........................................................................
   1   -129.3085653 -0.129309E+03  0.873E-02    3.41       0.0  T
   2   -129.3085680 -0.267973E-05  0.513E-02    3.41       1.0  T
   3   -129.3085621  0.590746E-05  0.842E-03    3.41       1.4  T
   4   -129.3085693 -0.725276E-05  0.205E-03    3.41       5.6  T
   5   -129.3085694 -0.982998E-07  0.115E-03    3.41      10.0  T
   6   -129.3085694 -0.201105E-07  0.494E-04    3.41      23.2  T
   7   -129.3085694 -0.100952E-07  0.171E-04    3.41      67.1  T
     SCC iter.                  ...        0 min,  0.164 sec
     gradient                   ...        0 min,  0.144 sec
 * total energy  :  -127.5598573 Eh     change       -0.3890907E-03 Eh
   gradient norm :     0.0068461 Eh/α   predicted    -0.3132122E-03 ( -19.50%)
   displ. norm   :     0.5040948 α      lambda       -0.4016818E-03
   maximum displ.:     0.3727209 α      in ANC's #5, #1, #13, ...

........................................................................
.............................. CYCLE   34 ..............................
........................................................................
   1   -129.3103778 -0.129310E+03  0.857E-02    3.40       0.0  T
   2   -129.3103814 -0.357498E-05  0.504E-02    3.40       1.0  T
   3   -129.3103761  0.522806E-05  0.845E-03    3.40       1.4  T
   4   -129.3103826 -0.648279E-05  0.210E-03    3.40       5.5  T
   5   -129.3103828 -0.152124E-06  0.117E-03    3.40       9.8  T
   6   -129.3103828 -0.266663E-07  0.480E-04    3.40      23.9  T
   7   -129.3103828 -0.846637E-08  0.193E-04    3.40      59.5  T
     SCC iter.                  ...        0 min,  0.154 sec
     gradient                   ...        0 min,  0.137 sec
 * total energy  :  -127.5601716 Eh     change       -0.3142866E-03 Eh
   gradient norm :     0.0081265 Eh/α   predicted    -0.2518884E-03 ( -19.85%)
   displ. norm   :     0.4396020 α      lambda       -0.3193752E-03
   maximum displ.:     0.3266806 α      in ANC's #5, #1, #6, ...

........................................................................
.............................. CYCLE   35 ..............................
........................................................................
   1   -129.3127361 -0.129313E+03  0.763E-02    3.40       0.0  T
   2   -129.3127384 -0.234230E-05  0.448E-02    3.40       1.0  T
   3   -129.3127344  0.399938E-05  0.727E-03    3.40       1.6  T
   4   -129.3127392 -0.484727E-05  0.176E-03    3.40       6.5  T
   5   -129.3127394 -0.129807E-06  0.954E-04    3.40      12.0  T
   6   -129.3127394 -0.120350E-07  0.412E-04    3.40      27.8  T
     SCC iter.                  ...        0 min,  0.143 sec
     gradient                   ...        0 min,  0.134 sec
 * total energy  :  -127.5604318 Eh     change       -0.2602661E-03 Eh
   gradient norm :     0.0070254 Eh/α   predicted    -0.1905475E-03 ( -26.79%)
   displ. norm   :     0.4726588 α      lambda       -0.3254997E-03
   maximum displ.:     0.3526777 α      in ANC's #5, #1, #7, ...

........................................................................
.............................. CYCLE   36 ..............................
........................................................................
   1   -129.3129126 -0.129313E+03  0.842E-02    3.40       0.0  T
   2   -129.3129162 -0.359800E-05  0.496E-02    3.40       1.0  T
   3   -129.3129117  0.451927E-05  0.818E-03    3.40       1.4  T
   4   -129.3129172 -0.555173E-05  0.202E-03    3.40       5.7  T
   5   -129.3129174 -0.186786E-06  0.108E-03    3.40      10.7  T
   6   -129.3129175 -0.174790E-07  0.442E-04    3.40      26.0  T
   7   -129.3129175 -0.706592E-08  0.161E-04    3.40      71.2  T
     SCC iter.                  ...        0 min,  0.153 sec
     gradient                   ...        0 min,  0.152 sec
 * total energy  :  -127.5606930 Eh     change       -0.2612308E-03 Eh
   gradient norm :     0.0059622 Eh/α   predicted    -0.1991124E-03 ( -23.78%)
   displ. norm   :     0.4864723 α      lambda       -0.3410827E-03
   maximum displ.:     0.3502065 α      in ANC's #5, #1, #7, ...

........................................................................
.............................. CYCLE   37 ..............................
........................................................................
   1   -129.3152461 -0.129315E+03  0.882E-02    3.39       0.0  T
   2   -129.3152494 -0.331485E-05  0.521E-02    3.40       1.0  T
   3   -129.3152440  0.539801E-05  0.833E-03    3.40       1.4  T
   4   -129.3152504 -0.639356E-05  0.210E-03    3.40       5.5  T
   5   -129.3152506 -0.230288E-06  0.107E-03    3.40      10.7  T
   6   -129.3152506 -0.171961E-07  0.498E-04    3.40      23.0  T
   7   -129.3152506 -0.679117E-08  0.160E-04    3.40      71.7  T
     SCC iter.                  ...        0 min,  0.144 sec
     gradient                   ...        0 min,  0.132 sec
 * total energy  :  -127.5609452 Eh     change       -0.2521602E-03 Eh
   gradient norm :     0.0074927 Eh/α   predicted    -0.2109028E-03 ( -16.36%)
   displ. norm   :     0.5185890 α      lambda       -0.3059653E-03
   maximum displ.:     0.3744600 α      in ANC's #5, #1, #7, ...

........................................................................
.............................. CYCLE   38 ..............................
........................................................................
   1   -129.3113561 -0.129311E+03  0.958E-02    3.39       0.0  T
   2   -129.3113612 -0.510982E-05  0.566E-02    3.40       1.0  T
   3   -129.3113507  0.105284E-04  0.118E-02    3.40       1.0  T
   4   -129.3113631 -0.124269E-04  0.231E-03    3.40       5.0  T
   5   -129.3113633 -0.253646E-06  0.123E-03    3.40       9.3  T
   6   -129.3113634 -0.311349E-07  0.495E-04    3.40      23.2  T
   7   -129.3113634 -0.565660E-08  0.190E-04    3.40      60.5  T
     SCC iter.                  ...        0 min,  0.155 sec
     gradient                   ...        0 min,  0.159 sec
 * total energy  :  -127.5611489 Eh     change       -0.2036864E-03 Eh
   gradient norm :     0.0074410 Eh/α   predicted    -0.1941295E-03 (  -4.69%)
   displ. norm   :     0.3764128 α      lambda       -0.2773224E-03
   maximum displ.:     0.2167067 α      in ANC's #5, #1, #10, ...

........................................................................
.............................. CYCLE   39 ..............................
........................................................................
   1   -129.3144006 -0.129314E+03  0.714E-02    3.39       0.0  T
   2   -129.3144062 -0.556984E-05  0.423E-02    3.39       1.0  T
   3   -129.3144027  0.351383E-05  0.794E-03    3.40       1.4  T
   4   -129.3144070 -0.438485E-05  0.216E-03    3.40       5.3  T
   5   -129.3144073 -0.278817E-06  0.107E-03    3.39      10.7  T
   6   -129.3144073 -0.253999E-07  0.502E-04    3.39      22.9  T
   7   -129.3144074 -0.440468E-08  0.172E-04    3.39      66.7  T
     SCC iter.                  ...        0 min,  0.155 sec
     gradient                   ...        0 min,  0.138 sec
 * total energy  :  -127.5613331 Eh     change       -0.1842033E-03 Eh
   gradient norm :     0.0099044 Eh/α   predicted    -0.1583162E-03 ( -14.05%)
   displ. norm   :     0.3971460 α      lambda       -0.2996699E-03
   maximum displ.:     0.2210240 α      in ANC's #5, #1, #10, ...

........................................................................
.............................. CYCLE   40 ..............................
........................................................................
   1   -129.3116915 -0.129312E+03  0.742E-02    3.40       0.0  T
   2   -129.3116970 -0.551618E-05  0.439E-02    3.39       1.0  T
   3   -129.3116890  0.798392E-05  0.107E-02    3.39       1.1  T
   4   -129.3116985 -0.954341E-05  0.247E-03    3.39       4.6  T
   5   -129.3116989 -0.399104E-06  0.118E-03    3.39       9.7  T
   6   -129.3116990 -0.188821E-07  0.563E-04    3.39      20.4  T
   7   -129.3116990 -0.963419E-08  0.188E-04    3.39      61.0  T
     SCC iter.                  ...        0 min,  0.154 sec
     gradient                   ...        0 min,  0.138 sec
 * total energy  :  -127.5615369 Eh     change       -0.2037778E-03 Eh
   gradient norm :     0.0105611 Eh/α   predicted    -0.1734684E-03 ( -14.87%)
   displ. norm   :     0.3306430 α      lambda       -0.2687502E-03
   maximum displ.:     0.1298348 α      in ANC's #1, #13, #10, ...

........................................................................
.............................. CYCLE   41 ..............................
........................................................................
   1   -129.3135090 -0.129314E+03  0.650E-02    3.39       0.0  T
   2   -129.3135184 -0.946034E-05  0.380E-02    3.40       1.0  T
   3   -129.3135162  0.221546E-05  0.863E-03    3.40       1.3  T
   4   -129.3135192 -0.296313E-05  0.254E-03    3.40       4.5  T
   5   -129.3135196 -0.432544E-06  0.105E-03    3.40      10.9  T
   6   -129.3135196 -0.141859E-07  0.570E-04    3.40      20.1  T
   7   -129.3135196 -0.750273E-08  0.191E-04    3.40      60.2  T
     SCC iter.                  ...        0 min,  0.154 sec
     gradient                   ...        0 min,  0.105 sec
 * total energy  :  -127.5617064 Eh     change       -0.1695369E-03 Eh
   gradient norm :     0.0069268 Eh/α   predicted    -0.1490659E-03 ( -12.07%)
   displ. norm   :     0.3138405 α      lambda       -0.1927112E-03
   maximum displ.:     0.1614888 α      in ANC's #1, #5, #2, ...

........................................................................
.............................. CYCLE   42 ..............................
........................................................................
   1   -129.3111367 -0.129311E+03  0.552E-02    3.40       0.0  T
   2   -129.3111440 -0.727722E-05  0.323E-02    3.40       1.0  T
   3   -129.3111415  0.247395E-05  0.871E-03    3.40       1.3  T
   4   -129.3111447 -0.316651E-05  0.238E-03    3.40       4.8  T
   5   -129.3111450 -0.352299E-06  0.884E-04    3.40      13.0  T
   6   -129.3111450 -0.698512E-08  0.472E-04    3.40      24.3  T
     SCC iter.                  ...        0 min,  0.136 sec
     gradient                   ...        0 min,  0.134 sec
 * total energy  :  -127.5617875 Eh     change       -0.8105478E-04 Eh
   gradient norm :     0.0080254 Eh/α   predicted    -0.1058467E-03 (  30.59%)
   displ. norm   :     0.1437689 α      lambda       -0.1471975E-03
   maximum displ.:     0.0753296 α      in ANC's #1, #2, #5, ...
 * RMSD in coord.:     0.8727372 α      energy gain  -0.1461424E-01 Eh

generating ANC from model Hessian ...
Using Lindh-Hessian (1995)
 Shifting diagonal of input Hessian by    9.8748174243787467E-003
 Lowest  eigenvalues of input Hessian
    0.000000    0.000000    0.000000    0.000000    0.000000    0.000000
    0.010000    0.010062    0.010264    0.010321    0.010567    0.010724
    0.010805    0.010880    0.011189    0.011377    0.012187    0.012359
 Highest eigenvalues
    2.115371    2.117487    2.130505    2.310387    2.326673    2.372119


........................................................................
.............................. CYCLE   43 ..............................
........................................................................
   1   -129.3123579 -0.129312E+03  0.259E-02    3.40       0.0  T
   2   -129.3123590 -0.105289E-05  0.154E-02    3.41       1.0  T
   3   -129.3123575  0.148978E-05  0.495E-03    3.41       2.3  T
   4   -129.3123593 -0.185210E-05  0.836E-04    3.41      13.7  T
   5   -129.3123593 -0.272252E-07  0.452E-04    3.41      25.4  T
   6   -129.3123594 -0.342249E-08  0.220E-04    3.41      52.1  T
     SCC iter.                  ...        0 min,  0.137 sec
     gradient                   ...        0 min,  0.160 sec
 * total energy  :  -127.5618715 Eh     change       -0.8407625E-04 Eh
   gradient norm :     0.0051072 Eh/α   predicted     0.0000000E+00 (-100.00%)
   displ. norm   :     0.0480743 α      lambda       -0.7056457E-04
   maximum displ.:     0.0219103 α      in ANC's #2, #19, #6, ...

........................................................................
.............................. CYCLE   44 ..............................
........................................................................
   1   -129.3138596 -0.129314E+03  0.115E-02    3.41       0.0  T
   2   -129.3138602 -0.571048E-06  0.672E-03    3.41       1.7  T
   3   -129.3138600  0.156026E-06  0.258E-03    3.41       4.4  T
   4   -129.3138603 -0.229982E-06  0.634E-04    3.41      18.1  T
   5   -129.3138603 -0.272755E-07  0.211E-04    3.41      54.4  T
     SCC iter.                  ...        0 min,  0.111 sec
     gradient                   ...        0 min,  0.151 sec
 * total energy  :  -127.5619232 Eh     change       -0.5169797E-04 Eh
   gradient norm :     0.0023877 Eh/α   predicted    -0.3538406E-04 ( -31.56%)
   displ. norm   :     0.1104219 α      lambda       -0.8218275E-04
   maximum displ.:     0.0534072 α      in ANC's #2, #19, #6, ...

........................................................................
.............................. CYCLE   45 ..............................
........................................................................
   1   -129.3154735 -0.129315E+03  0.197E-02    3.41       0.0  T
   2   -129.3154750 -0.151183E-05  0.115E-02    3.41       1.0  T
   3   -129.3154745  0.526378E-06  0.441E-03    3.41       2.6  T
   4   -129.3154752 -0.732534E-06  0.106E-03    3.41      10.8  T
   5   -129.3154753 -0.764256E-07  0.343E-04    3.41      33.5  T
   6   -129.3154753 -0.179725E-08  0.184E-04    3.41      62.4  T
     SCC iter.                  ...        0 min,  0.136 sec
     gradient                   ...        0 min,  0.143 sec
 * total energy  :  -127.5619777 Eh     change       -0.5444335E-04 Eh
   gradient norm :     0.0026050 Eh/α   predicted    -0.4166258E-04 ( -23.48%)
   displ. norm   :     0.1248017 α      lambda       -0.5470833E-04
   maximum displ.:     0.0640958 α      in ANC's #2, #19, #6, ...

........................................................................
.............................. CYCLE   46 ..............................
........................................................................
   1   -129.3154661 -0.129315E+03  0.195E-02    3.41       0.0  T
   2   -129.3154666 -0.566198E-06  0.115E-02    3.41       1.0  T
   3   -129.3154662  0.441198E-06  0.313E-03    3.41       3.7  T
   4   -129.3154668 -0.560957E-06  0.727E-04    3.41      15.8  T
   5   -129.3154668 -0.270645E-07  0.331E-04    3.41      34.6  T
     SCC iter.                  ...        0 min,  0.110 sec
     gradient                   ...        0 min,  0.176 sec
 * total energy  :  -127.5620183 Eh     change       -0.4061453E-04 Eh
   gradient norm :     0.0035539 Eh/α   predicted    -0.2778374E-04 ( -31.59%)
   displ. norm   :     0.1571183 α      lambda       -0.5434206E-04
   maximum displ.:     0.0843768 α      in ANC's #2, #19, #6, ...

........................................................................
.............................. CYCLE   47 ..............................
........................................................................
   1   -129.3146253 -0.129315E+03  0.241E-02    3.41       0.0  T
   2   -129.3146256 -0.330235E-06  0.143E-02    3.41       1.0  T
   3   -129.3146251  0.532203E-06  0.283E-03    3.41       4.1  T
   4   -129.3146258 -0.653077E-06  0.661E-04    3.41      17.3  T
   5   -129.3146258 -0.158314E-07  0.365E-04    3.41      31.4  T
     SCC iter.                  ...        0 min,  0.111 sec
     gradient                   ...        0 min,  0.123 sec
 * total energy  :  -127.5620572 Eh     change       -0.3886260E-04 Eh
   gradient norm :     0.0029972 Eh/α   predicted    -0.2784225E-04 ( -28.36%)
   displ. norm   :     0.1174627 α      lambda       -0.3363697E-04
   maximum displ.:     0.0701078 α      in ANC's #2, #11, #6, ...

........................................................................
.............................. CYCLE   48 ..............................
........................................................................
   1   -129.3140422 -0.129314E+03  0.185E-02    3.41       0.0  T
   2   -129.3140424 -0.278741E-06  0.109E-02    3.41       1.0  T
   3   -129.3140421  0.301230E-06  0.209E-03    3.41       5.5  T
   4   -129.3140425 -0.345266E-06  0.604E-04    3.41      19.0  T
   5   -129.3140425 -0.290152E-07  0.262E-04    3.41      43.8  T
     SCC iter.                  ...        0 min,  0.155 sec
     gradient                   ...        0 min,  0.124 sec
 * total energy  :  -127.5620825 Eh     change       -0.2531713E-04 Eh
   gradient norm :     0.0018724 Eh/α   predicted    -0.1707424E-04 ( -32.56%)
   displ. norm   :     0.1456955 α      lambda       -0.2674341E-04
   maximum displ.:     0.0946789 α      in ANC's #2, #11, #6, ...

........................................................................
.............................. CYCLE   49 ..............................
........................................................................
   1   -129.3139135 -0.129314E+03  0.239E-02    3.40       0.0  T
   2   -129.3139142 -0.692789E-06  0.141E-02    3.40       1.0  T
   3   -129.3139137  0.493443E-06  0.310E-03    3.40       3.7  T
   4   -129.3139143 -0.590643E-06  0.822E-04    3.40      14.0  T
   5   -129.3139144 -0.468494E-07  0.344E-04    3.40      33.3  T
     SCC iter.                  ...        0 min,  0.112 sec
     gradient                   ...        0 min,  0.134 sec
 * total energy  :  -127.5621083 Eh     change       -0.2586014E-04 Eh
   gradient norm :     0.0020608 Eh/α   predicted    -0.1349954E-04 ( -47.80%)
   displ. norm   :     0.0971106 α      lambda        0.8662848E-05
   maximum displ.:     0.0631200 α      in ANC's #2, #11, #6, ...

........................................................................
.............................. CYCLE   50 ..............................
........................................................................
   1   -129.3137068 -0.129314E+03  0.160E-02    3.40       0.0  T
   2   -129.3137071 -0.313516E-06  0.939E-03    3.40       1.2  T
   3   -129.3137069  0.202842E-06  0.207E-03    3.40       5.5  T
   4   -129.3137072 -0.249144E-06  0.532E-04    3.40      21.5  T
   5   -129.3137072 -0.174381E-07  0.228E-04    3.40      50.3  T
     SCC iter.                  ...        0 min,  0.115 sec
     gradient                   ...        0 min,  0.155 sec
 * total energy  :  -127.5621099 Eh     change       -0.1525011E-05 Eh
   gradient norm :     0.0036467 Eh/α   predicted     0.4372145E-05 (-386.70%)
   displ. norm   :     0.0156900 α      lambda       -0.1347907E-04
   maximum displ.:     0.0068278 α      in ANC's #19, #20, #5, ...

........................................................................
.............................. CYCLE   51 ..............................
........................................................................
   1   -129.3141252 -0.129314E+03  0.428E-03    3.40       0.0  T
   2   -129.3141254 -0.141617E-06  0.251E-03    3.40       4.6  T
   3   -129.3141253  0.208066E-07  0.111E-03    3.40      10.3  T
   4   -129.3141254 -0.249484E-07  0.390E-04    3.40      29.4  T
   5   -129.3141254 -0.149516E-07  0.858E-05    3.40     133.7  T
     SCC iter.                  ...        0 min,  0.124 sec
     gradient                   ...        0 min,  0.129 sec
 * total energy  :  -127.5621211 Eh     change       -0.1126312E-04 Eh
   gradient norm :     0.0022038 Eh/α   predicted    -0.6765290E-05 ( -39.93%)
   displ. norm   :     0.0590091 α      lambda       -0.2536911E-04
   maximum displ.:     0.0358630 α      in ANC's #2, #5, #19, ...

........................................................................
.............................. CYCLE   52 ..............................
........................................................................
   1   -129.3148933 -0.129315E+03  0.113E-02    3.40       0.0  T
   2   -129.3148938 -0.545763E-06  0.665E-03    3.40       1.7  T
   3   -129.3148937  0.145170E-06  0.227E-03    3.39       5.1  T
   4   -129.3148938 -0.163911E-06  0.740E-04    3.40      15.5  T
   5   -129.3148939 -0.509658E-07  0.203E-04    3.39      56.6  T
     SCC iter.                  ...        0 min,  0.115 sec
     gradient                   ...        0 min,  0.135 sec
 * total energy  :  -127.5621373 Eh     change       -0.1612314E-04 Eh
   gradient norm :     0.0010215 Eh/α   predicted    -0.1272908E-04 ( -21.05%)
   displ. norm   :     0.0746589 α      lambda       -0.8252398E-05
   maximum displ.:     0.0545474 α      in ANC's #2, #5, #3, ...

........................................................................
.............................. CYCLE   53 ..............................
........................................................................
   1   -129.3149837 -0.129315E+03  0.110E-02    3.39       0.0  T
   2   -129.3149837 -0.746043E-07  0.646E-03    3.39       1.8  T
   3   -129.3149837  0.373221E-07  0.874E-04    3.39      13.1  T
   4   -129.3149838 -0.504381E-07  0.296E-04    3.39      38.8  T
     SCC iter.                  ...        0 min,  0.090 sec
     gradient                   ...        0 min,  0.134 sec
 * total energy  :  -127.5621470 Eh     change       -0.9781962E-05 Eh
   gradient norm :     0.0016828 Eh/α   predicted    -0.4137582E-05 ( -57.70%)
   displ. norm   :     0.0665702 α      lambda       -0.8311365E-05
   maximum displ.:     0.0490704 α      in ANC's #2, #5, #3, ...

........................................................................
.............................. CYCLE   54 ..............................
........................................................................
   1   -129.3146685 -0.129315E+03  0.926E-03    3.39       0.0  T
   2   -129.3146686 -0.783499E-07  0.545E-03    3.39       2.1  T
   3   -129.3146686  0.399053E-07  0.898E-04    3.39      12.8  T
   4   -129.3146686 -0.508269E-07  0.244E-04    3.39      47.1  T
     SCC iter.                  ...        0 min,  0.100 sec
     gradient                   ...        0 min,  0.147 sec
 * total energy  :  -127.5621579 Eh     change       -0.1087659E-04 Eh
   gradient norm :     0.0009977 Eh/α   predicted    -0.4164546E-05 ( -61.71%)
   displ. norm   :     0.0849883 α      lambda       -0.9436825E-05
   maximum displ.:     0.0624473 α      in ANC's #2, #5, #3, ...

........................................................................
.............................. CYCLE   55 ..............................
........................................................................
   1   -129.3144040 -0.129314E+03  0.114E-02    3.39       0.0  T
   2   -129.3144041 -0.153816E-06  0.670E-03    3.39       1.7  T
   3   -129.3144041  0.635524E-07  0.123E-03    3.39       9.3  T
   4   -129.3144041 -0.803528E-07  0.320E-04    3.39      35.8  T
   5   -129.3144042 -0.606238E-08  0.126E-04    3.39      90.9  T
     SCC iter.                  ...        0 min,  0.112 sec
     gradient                   ...        0 min,  0.141 sec
 * total energy  :  -127.5621701 Eh     change       -0.1220706E-04 Eh
   gradient norm :     0.0006331 Eh/α   predicted    -0.4734223E-05 ( -61.22%)
   displ. norm   :     0.0914587 α      lambda       -0.8678359E-05
   maximum displ.:     0.0674135 α      in ANC's #2, #5, #3, ...

........................................................................
.............................. CYCLE   56 ..............................
........................................................................
   1   -129.3143841 -0.129314E+03  0.120E-02    3.39       0.0  T
   2   -129.3143842 -0.108715E-06  0.706E-03    3.39       1.6  T
   3   -129.3143841  0.528241E-07  0.107E-03    3.39      10.7  T
   4   -129.3143842 -0.689942E-07  0.290E-04    3.39      39.6  T
   5   -129.3143842 -0.401695E-08  0.134E-04    3.39      85.8  T
     SCC iter.                  ...        0 min,  0.119 sec
     gradient                   ...        0 min,  0.139 sec
 * total energy  :  -127.5621815 Eh     change       -0.1134599E-04 Eh
   gradient norm :     0.0007961 Eh/α   predicted    -0.4359753E-05 ( -61.57%)
   displ. norm   :     0.0904420 α      lambda       -0.7624523E-05
   maximum displ.:     0.0668243 α      in ANC's #2, #5, #3, ...

........................................................................
.............................. CYCLE   57 ..............................
........................................................................
   1   -129.3144324 -0.129314E+03  0.119E-02    3.39       0.0  T
   2   -129.3144325 -0.635872E-07  0.698E-03    3.39       1.6  T
   3   -129.3144325  0.377116E-07  0.852E-04    3.40      13.5  T
   4   -129.3144325 -0.511112E-07  0.267E-04    3.40      42.9  T
     SCC iter.                  ...        0 min,  0.089 sec
     gradient                   ...        0 min,  0.130 sec
 * total energy  :  -127.5621920 Eh     change       -0.1055003E-04 Eh
   gradient norm :     0.0008159 Eh/α   predicted    -0.3828515E-05 ( -63.71%)
   displ. norm   :     0.0902294 α      lambda       -0.5935497E-05
   maximum displ.:     0.0668263 α      in ANC's #2, #5, #3, ...

........................................................................
.............................. CYCLE   58 ..............................
........................................................................
   1   -129.3144359 -0.129314E+03  0.118E-02    3.40       0.0  T
   2   -129.3144359 -0.624971E-07  0.697E-03    3.40       1.6  T
   3   -129.3144359  0.604801E-07  0.967E-04    3.40      11.9  T
   4   -129.3144359 -0.746157E-07  0.291E-04    3.40      39.4  T
     SCC iter.                  ...        0 min,  0.098 sec
     gradient                   ...        0 min,  0.125 sec
 * total energy  :  -127.5622004 Eh     change       -0.8393681E-05 Eh
   gradient norm :     0.0009682 Eh/α   predicted    -0.2981148E-05 ( -64.48%)
   displ. norm   :     0.0899577 α      lambda       -0.3729244E-05
   maximum displ.:     0.0668278 α      in ANC's #2, #5, #3, ...

........................................................................
.............................. CYCLE   59 ..............................
........................................................................
   1   -129.3143953 -0.129314E+03  0.118E-02    3.40       0.0  T
   2   -129.3143954 -0.619693E-07  0.695E-03    3.40       1.7  T
   3   -129.3143953  0.555290E-07  0.943E-04    3.40      12.2  T
   4   -129.3143954 -0.691101E-07  0.291E-04    3.40      39.4  T
     SCC iter.                  ...        0 min,  0.093 sec
     gradient                   ...        0 min,  0.156 sec
 * total energy  :  -127.5622067 Eh     change       -0.6251775E-05 Eh
   gradient norm :     0.0012069 Eh/α   predicted    -0.1876335E-05 ( -69.99%)
   displ. norm   :     0.0645409 α      lambda       -0.4861002E-05
   maximum displ.:     0.0497286 α      in ANC's #2, #5, #3, ...

........................................................................
.............................. CYCLE   60 ..............................
........................................................................
   1   -129.3146273 -0.129315E+03  0.825E-03    3.40       0.0  T
   2   -129.3146274 -0.208582E-07  0.489E-03    3.40       2.3  T
   3   -129.3146273  0.648270E-07  0.828E-04    3.40      13.9  T
   4   -129.3146274 -0.766356E-07  0.189E-04    3.40      60.8  T
     SCC iter.                  ...        0 min,  0.092 sec
     gradient                   ...        0 min,  0.132 sec
 * total energy  :  -127.5622134 Eh     change       -0.6787068E-05 Eh
   gradient norm :     0.0010265 Eh/α   predicted    -0.2437425E-05 ( -64.09%)
   displ. norm   :     0.0645865 α      lambda       -0.6375238E-05
   maximum displ.:     0.0495018 α      in ANC's #2, #3, #5, ...

........................................................................
.............................. CYCLE   61 ..............................
........................................................................
   1   -129.3146900 -0.129315E+03  0.839E-03    3.40       0.0  T
   2   -129.3146901 -0.332875E-07  0.498E-03    3.40       2.3  T
   3   -129.3146900  0.533986E-07  0.846E-04    3.40      13.6  T
   4   -129.3146901 -0.659184E-07  0.236E-04    3.40      48.5  T
     SCC iter.                  ...        0 min,  0.093 sec
     gradient                   ...        0 min,  0.161 sec
 * total energy  :  -127.5622218 Eh     change       -0.8390055E-05 Eh
   gradient norm :     0.0005443 Eh/α   predicted    -0.3193805E-05 ( -61.93%)
   displ. norm   :     0.0787334 α      lambda       -0.6580238E-05
   maximum displ.:     0.0606994 α      in ANC's #2, #3, #5, ...

........................................................................
.............................. CYCLE   62 ..............................
........................................................................
   1   -129.3147965 -0.129315E+03  0.102E-02    3.40       0.0  T
   2   -129.3147966 -0.446914E-07  0.603E-03    3.40       1.9  T
   3   -129.3147965  0.656717E-07  0.952E-04    3.40      12.0  T
   4   -129.3147966 -0.822964E-07  0.273E-04    3.40      42.0  T
     SCC iter.                  ...        0 min,  0.090 sec
     gradient                   ...        0 min,  0.152 sec
 * total energy  :  -127.5622298 Eh     change       -0.8014066E-05 Eh
   gradient norm :     0.0002736 Eh/α   predicted    -0.3299660E-05 ( -58.83%)
   displ. norm   :     0.0632031 α      lambda       -0.3841729E-05
   maximum displ.:     0.0501104 α      in ANC's #2, #3, #5, ...

........................................................................
.............................. CYCLE   63 ..............................
........................................................................
   1   -129.3149203 -0.129315E+03  0.803E-03    3.40       0.0  T
   2   -129.3149203 -0.173155E-07  0.476E-03    3.40       2.4  T
   3   -129.3149202  0.181878E-07  0.527E-04    3.40      21.8  T
   4   -129.3149203 -0.254266E-07  0.184E-04    3.40      62.3  T
     SCC iter.                  ...        0 min,  0.092 sec
     gradient                   ...        0 min,  0.150 sec
 * total energy  :  -127.5622348 Eh     change       -0.4942050E-05 Eh
   gradient norm :     0.0004610 Eh/α   predicted    -0.1928283E-05 ( -60.98%)
   displ. norm   :     0.0430669 α      lambda       -0.2499797E-05
   maximum displ.:     0.0346887 α      in ANC's #2, #3, #6, ...

   *** GEOMETRY OPTIMIZATION CONVERGED AFTER 63 ITERATIONS ***

------------------------------------------------------------------------
[...]
       111        2.0000           -0.3812762             -10.3751
       112        2.0000           -0.3741720             -10.1817
       113        2.0000           -0.3735286             -10.1642 (HOMO)
       114                         -0.2487403              -6.7686 (LUMO)
       115                         -0.2425471              -6.6000
       116                         -0.2372979              -6.4572
       117                         -0.2357181              -6.4142
       118                         -0.2295093              -6.2453
       119                         -0.2264702              -6.1626
       120                         -0.2246446              -6.1129
       121                         -0.2194806              -5.9724
       122                         -0.2161109              -5.8807
       123                         -0.2113326              -5.7507
       124                         -0.1847031              -5.0260
       ...                                ...                  ...
       208                          0.6816217              18.5479
      -------------------------------------------------------------
                  HL-Gap            0.1247883 Eh            3.3957 eV
             Fermi-level           -0.3111345 Eh           -8.4664 eV

     #   Z          covCN         q      C6AA      α(0)
     1   6 C        2.867     0.151    24.726     8.151
     2   8 O        1.705    -0.263    18.353     5.784
     3   6 C        3.644     0.036    20.303     6.477
     4   6 C        2.917    -0.066    29.649     8.929
     5   6 C        2.921    -0.033    28.834     8.806
     6   6 C        2.917    -0.043    29.079     8.843
     7   6 C        2.924    -0.036    28.900     8.816
     8   6 C        2.972    -0.023    28.576     8.768
     9   6 C        3.828     0.044    19.824     6.335
    10   6 C        3.834     0.039    19.891     6.345
    11   6 C        2.973    -0.019    28.484     8.754
    12   6 C        2.925    -0.035    28.878     8.813
    13   6 C        2.917    -0.041    29.008     8.832
    14   6 C        2.922    -0.032    28.800     8.801
    15   6 C        2.918    -0.067    29.661     8.931
    16   6 C        2.868     0.138    24.993     8.195
    17   8 O        1.705    -0.274    18.541     5.814
    18   6 C        3.643     0.040    20.241     6.467
    19   7 N        2.766    -0.101    23.208     7.155
    20   6 C        2.765     0.280    22.259     7.726
    21   6 C        2.974    -0.036    28.890     8.817
    22   6 C        2.867     0.147    24.796     8.163
    23   8 O        1.706    -0.251    18.155     5.753
    24   6 C        3.644     0.039    20.262     6.470
    25   6 C        2.917    -0.068    29.704     8.937
    26   6 C        2.921    -0.031    28.773     8.796
    27   6 C        2.917    -0.043    29.066     8.841
    28   6 C        2.925    -0.023    28.580     8.767
    29   8 O        0.860    -0.433    22.351     6.339
    30   6 C        3.779     0.079    19.283     6.256
    31   6 C        2.684     0.361    20.879     7.478
    32   8 O        1.654    -0.377    20.410     6.099
    33   8 O        0.856    -0.369    21.066     6.154
    34   7 N        2.764    -0.096    23.111     7.140
    35   6 C        2.763     0.278    22.304     7.734
    36   6 C        2.978    -0.034    28.841     8.809
    37   6 C        2.923    -0.028    28.712     8.787
    38   6 C        2.918    -0.040    28.998     8.831
    39   6 C        2.921    -0.028    28.713     8.787
    40   6 C        2.918    -0.065    29.628     8.926
    41   6 C        2.870     0.151    24.712     8.149
    42   8 O        1.706    -0.263    18.358     5.785
    43   6 C        3.646     0.040    20.239     6.466
    44   8 O        0.859    -0.452    22.753     6.395
    45   1 H        0.924     0.042     2.417     2.431
    46   1 H        0.925     0.086     1.921     2.167
    47   1 H        0.924     0.039     2.467     2.456
    48   1 H        0.926     0.041     2.432     2.438
    49   1 H        0.926     0.036     2.497     2.471
    50   1 H        0.926     0.037     2.485     2.465
    51   1 H        0.926     0.033     2.538     2.491
    52   1 H        0.923     0.048     2.349     2.397
    53   1 H        0.924     0.091     1.865     2.136
    54   1 H        0.926     0.043     2.411     2.428
    55   1 H        0.926     0.042     2.417     2.431
    56   1 H        0.926     0.042     2.428     2.437
    57   1 H        0.926     0.041     2.437     2.441
    58   1 H        0.924     0.041     2.433     2.439
    59   1 H        0.924     0.042     2.422     2.434
    60   1 H        0.925     0.062     2.179     2.309
    61   1 H        0.925     0.074     2.039     2.233
    62   1 H        0.924     0.037     2.491     2.468
    63   1 H        0.924     0.042     2.423     2.434
    64   1 H        0.926     0.035     2.510     2.477
    65   1 H        0.926     0.036     2.505     2.475
    66   1 H        0.926     0.038     2.473     2.459
    67   1 H        0.926     0.050     2.321     2.382
    68   1 H        0.923     0.086     1.923     2.169
    69   1 H        0.800     0.365     0.555     1.171
    70   1 H        0.926     0.040     2.446     2.445
    71   1 H        0.926     0.043     2.412     2.429
    72   1 H        0.926     0.043     2.415     2.430
    73   1 H        0.926     0.043     2.415     2.430
    74   1 H        0.924     0.046     2.366     2.405
    75   1 H        0.924     0.041     2.442     2.444
    76   1 H        0.925     0.065     2.147     2.291

 Mol. C6AA /au·bohr⁶  :      70739.998117
 Mol. C8AA /au·bohr⁸  :    1692180.343795
 Mol. α(0) /au        :        414.936601


Wiberg/Mayer (AO) data.
largest (>0.10) Wiberg bond orders for each atom

 ---------------------------------------------------------------------------
     #   Z sym  total        # sym  WBO       # sym  WBO       # sym  WBO
 ---------------------------------------------------------------------------
     1   6 C    3.938 --     4 C    1.371     8 C    1.313     2 O    1.083
     2   8 O    2.258 --     1 C    1.083     3 C    0.975
     3   6 C    3.935 --    47 H    0.977    45 H    0.976     2 O    0.975
                            46 H    0.974
     4   6 C    3.987 --     5 C    1.438     1 C    1.371    48 H    0.965
                             7 C    0.101
     5   6 C    3.990 --     6 C    1.440     4 C    1.438    49 H    0.971
                             8 C    0.104
     6   6 C    3.991 --     5 C    1.440     7 C    1.425    50 H    0.971
     7   6 C    3.989 --     8 C    1.438     6 C    1.425    51 H    0.968
                             4 C    0.101
     8   6 C    3.983 --     7 C    1.438     1 C    1.313     9 C    0.996
                             5 C    0.104
     9   6 C    3.967 --     8 C    0.996    34 N    0.960    52 H    0.952
                            10 C    0.941
    10   6 C    3.965 --    11 C    0.998    19 N    0.970     9 C    0.941
                            53 H    0.941
    11   6 C    3.984 --    12 C    1.432    16 C    1.327    10 C    0.998
                            14 C    0.107
    12   6 C    3.990 --    11 C    1.432    13 C    1.429    54 H    0.967
                            15 C    0.102
    13   6 C    3.991 --    14 C    1.441    12 C    1.429    55 H    0.970
    14   6 C    3.990 --    13 C    1.441    15 C    1.436    56 H    0.971
                            11 C    0.107
    15   6 C    3.987 --    14 C    1.436    16 C    1.380    57 H    0.965
                            12 C    0.102
    16   6 C    3.934 --    15 C    1.380    11 C    1.327    17 O    1.057
    17   8 O    2.229 --    16 C    1.057    18 C    0.984
    18   6 C    3.945 --    17 O    0.984    60 H    0.979    59 H    0.977
                            58 H    0.976
    19   7 N    3.468 --    20 C    1.203    30 C    0.995    10 C    0.970
                            29 O    0.185
    20   6 C    3.946 --    29 O    1.675    19 N    1.203    21 C    0.977
    21   6 C    3.984 --    28 C    1.427    22 C    1.306    20 C    0.977
                            26 C    0.105
    22   6 C    3.938 --    25 C    1.370    21 C    1.306    23 O    1.085
    23   8 O    2.266 --    22 C    1.085    24 C    0.981
    24   6 C    3.942 --    23 O    0.981    61 H    0.978    63 H    0.977
                            62 H    0.975
    25   6 C    3.987 --    26 C    1.439    22 C    1.370    64 H    0.966
                            28 C    0.101
    26   6 C    3.991 --    27 C    1.439    25 C    1.439    65 H    0.971
                            21 C    0.105
    27   6 C    3.991 --    26 C    1.439    28 C    1.428    66 H    0.970
    28   6 C    3.988 --    27 C    1.428    21 C    1.427    67 H    0.968
                            25 C    0.101
    29   8 O    2.003 --    20 C    1.675    19 N    0.185
    30   6 C    3.952 --    19 N    0.995    34 N    0.963    68 H    0.937
                            31 C    0.890
    31   6 C    3.930 --    33 O    1.778    32 O    1.199    30 C    0.890
    32   8 O    2.227 --    31 C    1.199    69 H    0.762    33 O    0.181
    33   8 O    2.079 --    31 C    1.778    32 O    0.181
    34   7 N    3.516 --    35 C    1.284    30 C    0.963     9 C    0.960
                            44 O    0.190
    35   6 C    3.946 --    44 O    1.595    34 N    1.284    36 C    0.965
    36   6 C    3.984 --    37 C    1.429    41 C    1.315    35 C    0.965
                            39 C    0.106
    37   6 C    3.989 --    36 C    1.429    38 C    1.425    70 H    0.969
                            40 C    0.103
    38   6 C    3.991 --    39 C    1.441    37 C    1.425    71 H    0.970
    39   6 C    3.991 --    38 C    1.441    40 C    1.439    72 H    0.971
                            36 C    0.106
    40   6 C    3.987 --    39 C    1.439    41 C    1.374    73 H    0.965
                            37 C    0.103
    41   6 C    3.938 --    40 C    1.374    36 C    1.315    42 O    1.074
    42   8 O    2.247 --    41 C    1.074    43 C    0.981
    43   6 C    3.942 --    42 O    0.981    76 H    0.979    74 H    0.976
                            75 H    0.975
    44   8 O    2.019 --    35 C    1.595    34 N    0.190
    45   1 H    0.998 --     3 C    0.976
    46   1 H    0.992 --     3 C    0.974
    47   1 H    0.998 --     3 C    0.977
    48   1 H    0.998 --     4 C    0.965
    49   1 H    0.998 --     5 C    0.971
    50   1 H    0.998 --     6 C    0.971
    51   1 H    0.998 --     7 C    0.968
    52   1 H    0.997 --     9 C    0.952
    53   1 H    0.991 --    10 C    0.941
    54   1 H    0.998 --    12 C    0.967
    55   1 H    0.998 --    13 C    0.970
    56   1 H    0.998 --    14 C    0.971
    57   1 H    0.998 --    15 C    0.965
    58   1 H    0.998 --    18 C    0.976
    59   1 H    0.998 --    18 C    0.977
    60   1 H    0.996 --    18 C    0.979
    61   1 H    0.994 --    24 C    0.978
    62   1 H    0.999 --    24 C    0.975
    63   1 H    0.998 --    24 C    0.977
    64   1 H    0.998 --    25 C    0.966
    65   1 H    0.998 --    26 C    0.971
    66   1 H    0.998 --    27 C    0.970
    67   1 H    0.997 --    28 C    0.968
    68   1 H    0.992 --    30 C    0.937
    69   1 H    0.867 --    32 O    0.762
    70   1 H    0.998 --    37 C    0.969
    71   1 H    0.997 --    38 C    0.970
    72   1 H    0.998 --    39 C    0.971
    73   1 H    0.998 --    40 C    0.965
    74   1 H    0.998 --    43 C    0.976
    75   1 H    0.998 --    43 C    0.975
    76   1 H    0.995 --    43 C    0.979
 ---------------------------------------------------------------------------

Topologies differ in total number of bonds
Writing topology from bond orders to xtbtopo.mol

molecular dipole:
                 x           y           z       tot (Debye)
 q only:       -0.905      -3.898       0.448
   full:       -1.067      -4.422       0.590      11.660
molecular quadrupole (traceless):
                xx          xy          yy          xz          yz          zz
 q only:       14.469      -8.732     -26.533       6.457      13.018      12.064
  q+dip:       16.779      -9.990     -29.921       8.209      18.402      13.143
   full:       18.464     -10.312     -29.539       6.398      17.715      11.075

           -------------------------------------------------
          |                Geometry Summary                 |
           -------------------------------------------------

      molecular mass/u    :      596.6277704
   center of mass at/Å    :        0.0197876       0.3922093       0.0086985
  moments of inertia/u·Å² :        0.3546663E+04   0.7188154E+04   0.7798301E+04
rotational constants/cm⁻¹ :        0.4753097E-02   0.2345196E-02   0.2161706E-02

 * 74 selected distances

     #   Z          #   Z                                           value/Å
     1   6 C        2   8 O                                       1.3535854
     2   8 O        3   6 C                                       1.4083628
     1   6 C        4   6 C                                       1.3910492
     4   6 C        5   6 C                                       1.3842879
     5   6 C        6   6 C                                       1.3817764
     6   6 C        7   6 C                                       1.3839043
     1   6 C        8   6 C                                       1.4050825
     7   6 C        8   6 C                                       1.3836666
    11   6 C       12   6 C                                       1.3847914
    12   6 C       13   6 C                                       1.3833141
    13   6 C       14   6 C                                       1.3815070
    14   6 C       15   6 C                                       1.3842342
    11   6 C       16   6 C                                       1.4017439
    15   6 C       16   6 C                                       1.3896225
    16   6 C       17   8 O                                       1.3642787
    17   8 O       18   6 C                                       1.4060551
    10   6 C       19   7 N                                       1.4485629
    19   7 N       20   6 C                                       1.3593516
    21   6 C       22   6 C                                       1.4042371
    22   6 C       23   8 O                                       1.3513363
    23   8 O       24   6 C                                       1.4042293
    22   6 C       25   6 C                                       1.3911089
    25   6 C       26   6 C                                       1.3842578
    26   6 C       27   6 C                                       1.3823544
    21   6 C       28   6 C                                       1.3852150
    27   6 C       28   6 C                                       1.3835845
    20   6 C       29   8 O                                       1.2162767
    19   7 N       30   6 C                                       1.4380736
    31   6 C       32   8 O                                       1.3175667
    31   6 C       33   8 O                                       1.1969519
     9   6 C       34   7 N                                       1.4534184
    30   6 C       34   7 N                                       1.4541866 (max)
    34   7 N       35   6 C                                       1.3400017
    36   6 C       37   6 C                                       1.3843382
    37   6 C       38   6 C                                       1.3844423
    38   6 C       39   6 C                                       1.3821845
    39   6 C       40   6 C                                       1.3843167
    36   6 C       41   6 C                                       1.4018049
    40   6 C       41   6 C                                       1.3898731
    41   6 C       42   8 O                                       1.3565814
    42   8 O       43   6 C                                       1.4069605
    35   6 C       44   8 O                                       1.2283951
     3   6 C       45   1 H                                       1.0937017
     3   6 C       46   1 H                                       1.0884187
     3   6 C       47   1 H                                       1.0944786
     4   6 C       48   1 H                                       1.0786129
     5   6 C       49   1 H                                       1.0804255
     6   6 C       50   1 H                                       1.0787511
     7   6 C       51   1 H                                       1.0802095
     9   6 C       52   1 H                                       1.0992826
    10   6 C       53   1 H                                       1.0946863
    12   6 C       54   1 H                                       1.0799382
    13   6 C       55   1 H                                       1.0786075
    14   6 C       56   1 H                                       1.0794943
    15   6 C       57   1 H                                       1.0783496
    18   6 C       58   1 H                                       1.0951799
    18   6 C       59   1 H                                       1.0943544
    18   6 C       60   1 H                                       1.0892153
    24   6 C       61   1 H                                       1.0884793
    24   6 C       62   1 H                                       1.0955130
    24   6 C       63   1 H                                       1.0944649
    25   6 C       64   1 H                                       1.0790541
    26   6 C       65   1 H                                       1.0801655
    27   6 C       66   1 H                                       1.0788958
    28   6 C       67   1 H                                       1.0793931
    30   6 C       68   1 H                                       1.1017022
    32   8 O       69   1 H                                       1.0008845 (min)
    37   6 C       70   1 H                                       1.0802700
    38   6 C       71   1 H                                       1.0788464
    39   6 C       72   1 H                                       1.0797151
    40   6 C       73   1 H                                       1.0780862
    43   6 C       74   1 H                                       1.0940159
    43   6 C       75   1 H                                       1.0953425
    43   6 C       76   1 H                                       1.0890167

 * 5 distinct bonds (by element types)

   Z      Z             #   av. dist./Å        max./Å        min./Å
   1 H    6 C          31     1.0863441     1.1017022     1.0780862
   6 C    6 C          24     1.3880291     1.4050825     1.3815070
   6 C    7 N           6     1.4155991     1.4541866     1.3400017
   1 H    8 O           1     1.0008845     1.0008845     1.0008845
   6 C    8 O          12     1.3342150     1.4083628     1.1969519


optimized geometry written to: xtbopt.xyz


           -------------------------------------------------
          | TOTAL ENERGY             -127.562234791347 Eh   |
          | GRADIENT NORM               0.000459322269 Eh/α |
          | HOMO-LUMO GAP               3.395661677600 eV   |
           -------------------------------------------------

------------------------------------------------------------------------
 * finished run on 2022/03/16 at 23:26:59.895     
------------------------------------------------------------------------
 total:
 * wall-time:     0 d,  0 h,  0 min, 29.799 sec
 *  cpu-time:     0 d,  0 h, 10 min, 26.337 sec
 * ratio c/w:    21.019 speedup
 SCF:
 * wall-time:     0 d,  0 h,  0 min,  0.566 sec
 *  cpu-time:     0 d,  0 h,  0 min,  9.376 sec
 * ratio c/w:    16.556 speedup
 ANC optimizer:
 * wall-time:     0 d,  0 h,  0 min, 29.060 sec
 *  cpu-time:     0 d,  0 h, 10 min, 12.544 sec
 * ratio c/w:    21.079 speedup

