      -----------------------------------------------------------      
     |                   =====================                   |     
     |                           x T B                           |     
     |                   =====================                   |     
     |                         S. Grimme                         |     
     |          Mulliken Center for Theoretical Chemistry        |     
     |                    University of Bonn                     |     
      -----------------------------------------------------------      

   * xtb version 6.3.3 (4ae9cef) compiled by 'conda@95abc7406d43' on 2020-10-14

   xtb is free software: you can redistribute it and/or modify it under
   the terms of the GNU Lesser General Public License as published by
   the Free Software Foundation, either version 3 of the License, or
   (at your option) any later version.
   
   xtb is distributed in the hope that it will be useful,
   but WITHOUT ANY WARRANTY; without even the implied warranty of
   MERCHANTABILITY or FITNESS FOR A PARTICULAR PURPOSE.  See the
   GNU Lesser General Public License for more details.
   
   Cite this work as:
   * C. Bannwarth, E. Caldeweyher, S. Ehlert, A. Hansen, P. Pracht,
     J. Seibert, S. Spicher, S. Grimme, WIREs Comput. Mol. Sci., 2020,
     e01493. DOI: 10.1002/wcms.1493
   
   for GFN2-xTB:
   * S. Grimme, C. Bannwarth, P. Shushkov, J. Chem. Theory Comput., 2017,
     13, 1989-2009. DOI: 10.1021/acs.jctc.7b00118
   for GFN1-xTB:
   * C. Bannwarth, S. Ehlert and S. Grimme., J. Chem. Theory Comput., 2019,
     15, 1652-1671. DOI: 10.1021/acs.jctc.8b01176
   for GFN0-xTB:
   * P. Pracht, E. Caldeweyher, S. Ehlert, S. Grimme, ChemRxiv, 2019, preprint.
     DOI: 10.26434/chemrxiv.8326202.v1
   for GFN-FF:
   * S. Spicher and S. Grimme, Angew. Chem. Int. Ed., 2020, 59, 15665-15673.
     DOI: 10.1002/anie.202004239
   
   for DFT-D4:
   * E. Caldeweyher, C. Bannwarth and S. Grimme, J. Chem. Phys., 2017,
     147, 034112. DOI: 10.1063/1.4993215
   * E. Caldeweyher, S. Ehlert, A. Hansen, H. Neugebauer, S. Spicher,
     C. Bannwarth and S. Grimme, J. Chem. Phys., 2019, 150, 154122.
     DOI: 10.1063/1.5090222
   * E. Caldeweyher, J.-M. Mewes, S. Ehlert and S. Grimme, Phys. Chem. Chem. Phys.
     2020, 22, 8499-8512. DOI: 10.1039/D0CP00502A
   
   for sTDA-xTB:
   * S. Grimme and C. Bannwarth, J. Chem. Phys., 2016, 145, 054103.
     DOI: 10.1063/1.4959605
   
   in the mass-spec context:
   * V. Asgeirsson, C. Bauer and S. Grimme, Chem. Sci., 2017, 8, 4879.
     DOI: 10.1039/c7sc00601b
   * J. Koopman and S. Grimme, ACS Omega 2019, 4, 12, 15120-15133.
     DOI: 10.1021/acsomega.9b02011
   
   for metadynamics refer to:
   * S. Grimme, J. Chem. Theory Comput., 2019, 155, 2847-2862
     DOI: 10.1021/acs.jctc.9b00143
   
   with help from (in alphabetical order)
   C. Bannwarth, F. Bohle, G. Brandenburg, E. Caldeweyher, M. Checinski,
   S. Dohm, S. Ehlert, S. Ehrlich, F. März, H. Neugebauer, J. Pisarek,
   P. Pracht, P. Shushkov, and S. Spicher.
   
 * started run on 2022/03/17 at 01:10:30.149     

           -------------------------------------------------
          |                Calculation Setup                |
           -------------------------------------------------

          program call               : xtb acid_435.xyz --opt --chrg 0 --uhf 0 --gfn 2
          coordinate file            : acid_435.xyz
          omp threads                :                    64
          number of atoms            :                    72
          number of electrons        :                   226
          charge                     :                     0
          spin                       :                   0.0
          first test random number   :      0.03896431060972

   ID    Z sym.   atoms
    1    6 C      1-22, 24-28, 30, 31, 33, 34, 38-42, 44, 45
    2    7 N      23, 37
    3    9 F      29, 43
    4    8 O      32, 35, 36, 46
    5    1 H      47-72

           -------------------------------------------------
          |                 G F N 2 - x T B                 |
           -------------------------------------------------

        Reference                      10.1021/acs.jctc.8b01176
      * Hamiltonian:
        H0-scaling (s, p, d)           1.850000    2.230000    2.230000
        zeta-weighting                 0.500000
      * Dispersion:
        s8                             2.700000
        a1                             0.520000
        a2                             5.000000
        s9                             5.000000
      * Repulsion:
        kExp                           1.500000    1.000000
        rExp                           1.000000
      * Coulomb:
        alpha                          2.000000
        third order                    shell-resolved
        anisotropic                    true
        a3                             3.000000
        a5                             4.000000
        cn-shift                       1.200000
        cn-exp                         4.000000
        max-rad                        5.000000


          ...................................................
          :                      SETUP                      :
          :.................................................:
          :  # basis functions                 210          :
          :  # atomic orbitals                 210          :
          :  # shells                          118          :
          :  # electrons                       226          :
          :  max. iterations                   250          :
          :  Hamiltonian                  GFN2-xTB          :
          :  restarted?                      false          :
          :  GBSA solvation                  false          :
          :  PC potential                    false          :
          :  electronic temp.          300.0000000     K    :
          :  accuracy                    1.0000000          :
          :  -> integral cutoff          0.2500000E+02      :
          :  -> integral neglect         0.1000000E-07      :
          :  -> SCF convergence          0.1000000E-05 Eh   :
          :  -> wf. convergence          0.1000000E-03 e    :
          :  Broyden damping             0.4000000          :
          ...................................................

 iter      E             dE          RMSdq      gap      omega  full diag
   1   -127.8616614 -0.127862E+03  0.460E+00    2.51       0.0  T
   2   -128.0133779 -0.151716E+00  0.270E+00    2.85       1.0  T
   3   -128.0033920  0.998585E-02  0.136E+00    2.83       1.0  T
   4   -128.0390761 -0.356840E-01  0.308E-01    2.49       1.0  T
   5   -128.0437141 -0.463807E-02  0.115E-01    2.48       1.0  T
   6   -128.0442140 -0.499856E-03  0.600E-02    2.50       1.0  T
   7   -128.0443455 -0.131537E-03  0.255E-02    2.51       1.0  T
   8   -128.0443563 -0.108138E-04  0.117E-02    2.52       1.0  T
   9   -128.0443603 -0.391283E-05  0.369E-03    2.52       3.2  T
  10   -128.0443604 -0.149144E-06  0.198E-03    2.52       6.0  T
  11   -128.0443606 -0.204381E-06  0.665E-04    2.52      17.7  T
  12   -128.0443606 -0.517770E-08  0.353E-04    2.52      33.4  T

   *** convergence criteria satisfied after 12 iterations ***

         #    Occupation            Energy/Eh            Energy/eV
      -------------------------------------------------------------
         1        2.0000           -0.8314896             -22.6260
       ...           ...                  ...                  ...
       107        2.0000           -0.4135552             -11.2534
       108        2.0000           -0.4114796             -11.1969
       109        2.0000           -0.4077769             -11.0962
       110        2.0000           -0.4045810             -11.0092
       111        2.0000           -0.4035495             -10.9811
       112        2.0000           -0.3824336             -10.4065
       113        2.0000           -0.3801100             -10.3433 (HOMO)
       114                         -0.2874163              -7.8210 (LUMO)
       115                         -0.2758146              -7.5053
       116                         -0.2751604              -7.4875
       117                         -0.2732229              -7.4348
       118                         -0.2604444              -7.0871
       ...                                ...                  ...
       210                          0.6818226              18.5533
      -------------------------------------------------------------
                  HL-Gap            0.0926937 Eh            2.5223 eV
             Fermi-level           -0.3337632 Eh           -9.0822 eV

 SCC (total)                   0 d,  0 h,  0 min,  0.564 sec
 SCC setup                      ...        0 min,  0.024 sec (  4.217%)
 Dispersion                     ...        0 min,  0.012 sec (  2.184%)
 classical contributions        ...        0 min,  0.019 sec (  3.356%)
 integral evaluation            ...        0 min,  0.103 sec ( 18.298%)
 iterations                     ...        0 min,  0.268 sec ( 47.584%)
 molecular gradient             ...        0 min,  0.130 sec ( 23.138%)
 printout                       ...        0 min,  0.007 sec (  1.207%)

         :::::::::::::::::::::::::::::::::::::::::::::::::::::
         ::                     SUMMARY                     ::
         :::::::::::::::::::::::::::::::::::::::::::::::::::::
         :: total energy            -126.233028105237 Eh    ::
         :: gradient norm              0.135549102146 Eh/a0 ::
         :: HOMO-LUMO gap              2.522323252048 eV    ::
         ::.................................................::
         :: SCC energy              -128.044360613850 Eh    ::
         :: -> isotropic ES            0.139129683195 Eh    ::
         :: -> anisotropic ES          0.005837780791 Eh    ::
         :: -> anisotropic XC          0.045314542185 Eh    ::
         :: -> dispersion             -0.097899503089 Eh    ::
         :: repulsion energy           1.809071463945 Eh    ::
         :: add. restraining           0.000000000000 Eh    ::
         :: total charge              -0.000000000000 e     ::
         :::::::::::::::::::::::::::::::::::::::::::::::::::::

      ----------------------------------------------------------- 
     |                   =====================                   |
     |                        A N C O P T                        |
     |                   =====================                   |
     |               Approximate Normal Coordinate               |
     |                Rational Function Optimizer                |
      ----------------------------------------------------------- 

          ...................................................
          :                      SETUP                      :
          :.................................................:
          :   optimization level            normal          :
          :   max. optcycles                   216          :
          :   ANC micro-cycles                  20          :
          :   degrees of freedom               210          :
          :.................................................:
          :   RF solver                   davidson          :
          :   write xtbopt.log                true          :
          :   linear?                        false          :
          :   energy convergence         0.5000000E-05 Eh   :
          :   grad. convergence          0.1000000E-02 Eh/α :
          :   maximium RF displ.         1.0000000          :
          :   Hlow (freq-cutoff)         0.1000000E-01      :
          :   Hmax (freq-cutoff)         5.0000000          :
          :   S6 in model hess.         20.0000000          :
          ...................................................

generating ANC from model Hessian ...
Using Lindh-Hessian (1995)
 Shifting diagonal of input Hessian by    9.8741666478606369E-003
 Lowest  eigenvalues of input Hessian
    0.000000    0.000000    0.000000    0.000000    0.000000    0.000000
    0.010000    0.010044    0.010115    0.010196    0.010266    0.010546
    0.010613    0.010676    0.010944    0.011210    0.011355    0.011925
 Highest eigenvalues
    2.072491    2.080017    2.082857    2.197528    2.236728    2.247554


........................................................................
.............................. CYCLE    1 ..............................
........................................................................
   1   -128.0443606 -0.128044E+03  0.166E-04    2.52       0.0  T
   2   -128.0443606 -0.338218E-10  0.129E-04    2.52      91.4  T
   3   -128.0443606 -0.658048E-09  0.759E-05    2.52     155.2  T
     SCC iter.                  ...        0 min,  0.069 sec
     gradient                   ...        0 min,  0.137 sec
 * total energy  :  -126.2330281 Eh     change       -0.3790547E-08 Eh
   gradient norm :     0.1355492 Eh/α   predicted     0.0000000E+00 (-100.00%)
   displ. norm   :     0.3241473 α      lambda       -0.2244899E-01
   maximum displ.:     0.1069276 α      in ANC's #23, #68, #64, ...

........................................................................
.............................. CYCLE    2 ..............................
........................................................................
   1   -128.1318542 -0.128132E+03  0.160E-01    2.86       0.0  T
   2   -128.1319832 -0.128940E-03  0.101E-01    2.80       1.0  T
   3   -128.1319140  0.692151E-04  0.477E-02    2.81       1.0  T
   4   -128.1320350 -0.121011E-03  0.103E-02    2.79       1.1  T
   5   -128.1320420 -0.699219E-05  0.340E-03    2.79       3.5  T
   6   -128.1320422 -0.249555E-06  0.149E-03    2.79       7.9  T
   7   -128.1320422 -0.316394E-07  0.798E-04    2.79      14.8  T
   8   -128.1320423 -0.216696E-07  0.319E-04    2.79      36.9  T
     SCC iter.                  ...        0 min,  0.180 sec
     gradient                   ...        0 min,  0.152 sec
 * total energy  :  -126.2485675 Eh     change       -0.1553940E-01 Eh
   gradient norm :     0.0540605 Eh/α   predicted    -0.1240387E-01 ( -20.18%)
   displ. norm   :     0.3413322 α      lambda       -0.7206269E-02
   maximum displ.:     0.1643869 α      in ANC's #23, #22, #16, ...

........................................................................
.............................. CYCLE    3 ..............................
........................................................................
   1   -128.1758284 -0.128176E+03  0.106E-01    2.97       0.0  T
   2   -128.1758858 -0.573880E-04  0.670E-02    2.93       1.0  T
   3   -128.1758571  0.286542E-04  0.313E-02    2.94       1.0  T
   4   -128.1759094 -0.523370E-04  0.685E-03    2.93       1.7  T
   5   -128.1759126 -0.314571E-05  0.215E-03    2.93       5.5  T
   6   -128.1759127 -0.722347E-07  0.883E-04    2.93      13.3  T
   7   -128.1759127 -0.146698E-07  0.472E-04    2.93      25.0  T
     SCC iter.                  ...        0 min,  0.157 sec
     gradient                   ...        0 min,  0.144 sec
 * total energy  :  -126.2528600 Eh     change       -0.4292467E-02 Eh
   gradient norm :     0.0134338 Eh/α   predicted    -0.4022926E-02 (  -6.28%)
   displ. norm   :     0.2708497 α      lambda       -0.1454792E-02
   maximum displ.:     0.1376516 α      in ANC's #23, #17, #22, ...

........................................................................
.............................. CYCLE    4 ..............................
........................................................................
   1   -128.1794266 -0.128179E+03  0.635E-02    2.94       0.0  T
   2   -128.1794401 -0.135483E-04  0.386E-02    2.93       1.0  T
   3   -128.1794276  0.125851E-04  0.163E-02    2.93       1.0  T
   4   -128.1794446 -0.170154E-04  0.364E-03    2.93       3.2  T
   5   -128.1794455 -0.882356E-06  0.119E-03    2.93       9.9  T
   6   -128.1794455 -0.110364E-07  0.641E-04    2.93      18.4  T
   7   -128.1794455 -0.703406E-08  0.242E-04    2.93      48.7  T
     SCC iter.                  ...        0 min,  0.156 sec
     gradient                   ...        0 min,  0.125 sec
 * total energy  :  -126.2539098 Eh     change       -0.1049852E-02 Eh
   gradient norm :     0.0109083 Eh/α   predicted    -0.7807796E-03 ( -25.63%)
   displ. norm   :     0.3256584 α      lambda       -0.1002229E-02
   maximum displ.:     0.1336906 α      in ANC's #23, #17, #22, ...

........................................................................
.............................. CYCLE    5 ..............................
........................................................................
   1   -128.1799216 -0.128180E+03  0.683E-02    2.93       0.0  T
   2   -128.1799290 -0.743575E-05  0.409E-02    2.92       1.0  T
   3   -128.1799168  0.122643E-04  0.149E-02    2.92       1.0  T
   4   -128.1799321 -0.152999E-04  0.272E-03    2.92       4.3  T
   5   -128.1799324 -0.343843E-06  0.123E-03    2.92       9.6  T
   6   -128.1799324 -0.639625E-08  0.666E-04    2.92      17.7  T
   7   -128.1799324 -0.126455E-07  0.247E-04    2.92      47.8  T
     SCC iter.                  ...        0 min,  0.160 sec
     gradient                   ...        0 min,  0.138 sec
 * total energy  :  -126.2545406 Eh     change       -0.6307419E-03 Eh
   gradient norm :     0.0072111 Eh/α   predicted    -0.5542695E-03 ( -12.12%)
   displ. norm   :     0.2013462 α      lambda       -0.3155392E-03
   maximum displ.:     0.0789926 α      in ANC's #17, #5, #15, ...

........................................................................
.............................. CYCLE    6 ..............................
........................................................................
   1   -128.1808831 -0.128181E+03  0.432E-02    2.91       0.0  T
   2   -128.1808847 -0.158826E-05  0.256E-02    2.91       1.0  T
   3   -128.1808814  0.329320E-05  0.754E-03    2.91       1.6  T
   4   -128.1808854 -0.400288E-05  0.138E-03    2.91       8.6  T
   5   -128.1808855 -0.692049E-07  0.726E-04    2.91      16.2  T
   6   -128.1808855 -0.326381E-08  0.360E-04    2.91      32.7  T
     SCC iter.                  ...        0 min,  0.136 sec
     gradient                   ...        0 min,  0.138 sec
 * total energy  :  -126.2547537 Eh     change       -0.2131550E-03 Eh
   gradient norm :     0.0050229 Eh/α   predicted    -0.1641673E-03 ( -22.98%)
   displ. norm   :     0.2032730 α      lambda       -0.2147787E-03
   maximum displ.:     0.0879857 α      in ANC's #5, #4, #14, ...

........................................................................
.............................. CYCLE    7 ..............................
........................................................................
   1   -128.1826696 -0.128183E+03  0.401E-02    2.91       0.0  T
   2   -128.1826716 -0.199735E-05  0.235E-02    2.91       1.0  T
   3   -128.1826703  0.133881E-05  0.542E-03    2.91       2.2  T
   4   -128.1826719 -0.166630E-05  0.151E-03    2.91       7.8  T
   5   -128.1826721 -0.125877E-06  0.626E-04    2.91      18.8  T
   6   -128.1826721 -0.633369E-08  0.359E-04    2.91      32.8  T
     SCC iter.                  ...        0 min,  0.135 sec
     gradient                   ...        0 min,  0.149 sec
 * total energy  :  -126.2549109 Eh     change       -0.1572022E-03 Eh
   gradient norm :     0.0035544 Eh/α   predicted    -0.1118621E-03 ( -28.84%)
   displ. norm   :     0.2433510 α      lambda       -0.1948673E-03
   maximum displ.:     0.1177341 α      in ANC's #5, #4, #8, ...

........................................................................
.............................. CYCLE    8 ..............................
........................................................................
   1   -128.1840072 -0.128184E+03  0.456E-02    2.91       0.0  T
   2   -128.1840089 -0.166293E-05  0.268E-02    2.90       1.0  T
   3   -128.1840073  0.159304E-05  0.519E-03    2.90       2.3  T
   4   -128.1840092 -0.197864E-05  0.147E-03    2.90       8.0  T
   5   -128.1840094 -0.117609E-06  0.670E-04    2.90      17.6  T
   6   -128.1840094 -0.515178E-08  0.349E-04    2.90      33.7  T
     SCC iter.                  ...        0 min,  0.134 sec
     gradient                   ...        0 min,  0.128 sec
 * total energy  :  -126.2550612 Eh     change       -0.1502692E-03 Eh
   gradient norm :     0.0039830 Eh/α   predicted    -0.1032074E-03 ( -31.32%)
   displ. norm   :     0.2972473 α      lambda       -0.1964781E-03
   maximum displ.:     0.1503507 α      in ANC's #5, #4, #8, ...

........................................................................
.............................. CYCLE    9 ..............................
........................................................................
   1   -128.1840950 -0.128184E+03  0.538E-02    2.91       0.0  T
   2   -128.1840974 -0.243859E-05  0.316E-02    2.90       1.0  T
   3   -128.1840941  0.328476E-05  0.679E-03    2.91       1.7  T
   4   -128.1840980 -0.392350E-05  0.180E-03    2.90       6.6  T
   5   -128.1840982 -0.191236E-06  0.799E-04    2.90      14.8  T
   6   -128.1840982 -0.514882E-08  0.437E-04    2.90      27.0  T
     SCC iter.                  ...        0 min,  0.143 sec
     gradient                   ...        0 min,  0.121 sec
 * total energy  :  -126.2552160 Eh     change       -0.1548404E-03 Eh
   gradient norm :     0.0040263 Eh/α   predicted    -0.1069193E-03 ( -30.95%)
   displ. norm   :     0.3260826 α      lambda       -0.1891055E-03
   maximum displ.:     0.1695279 α      in ANC's #5, #4, #8, ...

........................................................................
.............................. CYCLE   10 ..............................
........................................................................
   1   -128.1835274 -0.128184E+03  0.571E-02    2.91       0.0  T
   2   -128.1835294 -0.196279E-05  0.336E-02    2.91       1.0  T
   3   -128.1835251  0.433502E-05  0.754E-03    2.91       1.6  T
   4   -128.1835302 -0.518866E-05  0.159E-03    2.91       7.4  T
   5   -128.1835303 -0.101298E-06  0.843E-04    2.91      14.0  T
   6   -128.1835303 -0.536264E-08  0.425E-04    2.91      27.7  T
     SCC iter.                  ...        0 min,  0.145 sec
     gradient                   ...        0 min,  0.147 sec
 * total energy  :  -126.2553683 Eh     change       -0.1523010E-03 Eh
   gradient norm :     0.0035098 Eh/α   predicted    -0.1046083E-03 ( -31.31%)
   displ. norm   :     0.3636064 α      lambda       -0.1935337E-03
   maximum displ.:     0.1906233 α      in ANC's #5, #4, #8, ...

........................................................................
.............................. CYCLE   11 ..............................
........................................................................
   1   -128.1825611 -0.128183E+03  0.633E-02    2.91       0.0  T
   2   -128.1825638 -0.265875E-05  0.373E-02    2.91       1.0  T
   3   -128.1825579  0.587999E-05  0.889E-03    2.91       1.3  T
   4   -128.1825649 -0.699371E-05  0.170E-03    2.91       6.9  T
   5   -128.1825650 -0.139094E-06  0.863E-04    2.91      13.7  T
   6   -128.1825650 -0.469421E-08  0.456E-04    2.91      25.9  T
     SCC iter.                  ...        0 min,  0.136 sec
     gradient                   ...        0 min,  0.069 sec
 * total energy  :  -126.2555257 Eh     change       -0.1573932E-03 Eh
   gradient norm :     0.0035041 Eh/α   predicted    -0.1095695E-03 ( -30.38%)
   displ. norm   :     0.4148528 α      lambda       -0.2060154E-03
   maximum displ.:     0.2164547 α      in ANC's #5, #4, #8, ...

........................................................................
.............................. CYCLE   12 ..............................
........................................................................
   1   -128.1820155 -0.128182E+03  0.719E-02    2.91       0.0  T
   2   -128.1820180 -0.254892E-05  0.422E-02    2.91       1.0  T
   3   -128.1820115  0.652423E-05  0.935E-03    2.92       1.3  T
   4   -128.1820193 -0.777455E-05  0.156E-03    2.91       7.6  T
   5   -128.1820194 -0.863781E-07  0.876E-04    2.91      13.5  T
   6   -128.1820194 -0.683178E-08  0.453E-04    2.91      26.0  T
     SCC iter.                  ...        0 min,  0.135 sec
     gradient                   ...        0 min,  0.136 sec
 * total energy  :  -126.2556903 Eh     change       -0.1646060E-03 Eh
   gradient norm :     0.0034269 Eh/α   predicted    -0.1207359E-03 ( -26.65%)
   displ. norm   :     0.4390171 α      lambda       -0.1915590E-03
   maximum displ.:     0.2280084 α      in ANC's #5, #4, #8, ...

........................................................................
.............................. CYCLE   13 ..............................
........................................................................
   1   -128.1816226 -0.128182E+03  0.779E-02    2.92       0.0  T
   2   -128.1816260 -0.344799E-05  0.458E-02    2.91       1.0  T
   3   -128.1816183  0.773647E-05  0.103E-02    2.92       1.1  T
   4   -128.1816275 -0.920854E-05  0.167E-03    2.92       7.0  T
   5   -128.1816276 -0.129651E-06  0.858E-04    2.92      13.7  T
   6   -128.1816276 -0.428460E-08  0.485E-04    2.92      24.3  T
     SCC iter.                  ...        0 min,  0.142 sec
     gradient                   ...        0 min,  0.144 sec
 * total energy  :  -126.2558378 Eh     change       -0.1475049E-03 Eh
   gradient norm :     0.0037459 Eh/α   predicted    -0.1142403E-03 ( -22.55%)
   displ. norm   :     0.4011519 α      lambda       -0.1507721E-03
   maximum displ.:     0.2075988 α      in ANC's #5, #4, #6, ...

........................................................................
.............................. CYCLE   14 ..............................
........................................................................
   1   -128.1828744 -0.128183E+03  0.715E-02    2.92       0.0  T
   2   -128.1828766 -0.212810E-05  0.421E-02    2.92       1.0  T
   3   -128.1828709  0.567775E-05  0.880E-03    2.92       1.3  T
   4   -128.1828777 -0.678719E-05  0.128E-03    2.92       9.2  T
   5   -128.1828777 -0.439288E-07  0.751E-04    2.92      15.7  T
   6   -128.1828777 -0.531881E-08  0.393E-04    2.92      30.0  T
     SCC iter.                  ...        0 min,  0.133 sec
     gradient                   ...        0 min,  0.162 sec
 * total energy  :  -126.2559473 Eh     change       -0.1094909E-03 Eh
   gradient norm :     0.0030549 Eh/α   predicted    -0.8753037E-04 ( -20.06%)
   displ. norm   :     0.3659024 α      lambda       -0.1057465E-03
   maximum displ.:     0.1913050 α      in ANC's #5, #4, #6, ...

........................................................................
.............................. CYCLE   15 ..............................
........................................................................
   1   -128.1825692 -0.128183E+03  0.679E-02    2.91       0.0  T
   2   -128.1825724 -0.322953E-05  0.399E-02    2.91       1.0  T
   3   -128.1825663  0.613943E-05  0.951E-03    2.92       1.2  T
   4   -128.1825736 -0.734050E-05  0.161E-03    2.91       7.3  T
   5   -128.1825737 -0.129010E-06  0.756E-04    2.91      15.6  T
   6   -128.1825738 -0.416878E-08  0.441E-04    2.91      26.7  T
     SCC iter.                  ...        0 min,  0.139 sec
     gradient                   ...        0 min,  0.130 sec
 * total energy  :  -126.2560168 Eh     change       -0.6948529E-04 Eh
   gradient norm :     0.0046588 Eh/α   predicted    -0.5995270E-04 ( -13.72%)
   displ. norm   :     0.2466414 α      lambda       -0.8343667E-04
   maximum displ.:     0.1245266 α      in ANC's #5, #4, #10, ...

........................................................................
.............................. CYCLE   16 ..............................
........................................................................
   1   -128.1855091 -0.128186E+03  0.467E-02    2.92       0.0  T
   2   -128.1855111 -0.196460E-05  0.275E-02    2.92       1.0  T
   3   -128.1855090  0.208797E-05  0.593E-03    2.92       2.0  T
   4   -128.1855116 -0.260391E-05  0.113E-03    2.92      10.4  T
   5   -128.1855117 -0.609622E-07  0.547E-04    2.92      21.5  T
   6   -128.1855117 -0.316615E-08  0.301E-04    2.92      39.2  T
     SCC iter.                  ...        0 min,  0.140 sec
     gradient                   ...        0 min,  0.130 sec
 * total energy  :  -126.2560662 Eh     change       -0.4939471E-04 Eh
   gradient norm :     0.0028283 Eh/α   predicted    -0.4425622E-04 ( -10.40%)
   displ. norm   :     0.1898581 α      lambda       -0.4435754E-04
   maximum displ.:     0.0966630 α      in ANC's #5, #4, #6, ...

........................................................................
.............................. CYCLE   17 ..............................
........................................................................
   1   -128.1852251 -0.128185E+03  0.355E-02    2.92       0.0  T
   2   -128.1852259 -0.727147E-06  0.208E-02    2.92       1.0  T
   3   -128.1852243  0.160145E-05  0.486E-03    2.92       2.4  T
   4   -128.1852262 -0.193128E-05  0.787E-04    2.92      15.0  T
   5   -128.1852262 -0.172142E-07  0.439E-04    2.92      26.8  T
   6   -128.1852262 -0.229346E-08  0.241E-04    2.92      48.8  T
     SCC iter.                  ...        0 min,  0.137 sec
     gradient                   ...        0 min,  0.156 sec
 * total energy  :  -126.2560983 Eh     change       -0.3213309E-04 Eh
   gradient norm :     0.0022267 Eh/α   predicted    -0.2298254E-04 ( -28.48%)
   displ. norm   :     0.1708888 α      lambda       -0.4334855E-04
   maximum displ.:     0.0783792 α      in ANC's #5, #4, #6, ...

........................................................................
.............................. CYCLE   18 ..............................
........................................................................
   1   -128.1853026 -0.128185E+03  0.342E-02    2.91       0.0  T
   2   -128.1853032 -0.542691E-06  0.201E-02    2.91       1.0  T
   3   -128.1853019  0.124575E-05  0.422E-03    2.92       2.8  T
   4   -128.1853035 -0.153862E-05  0.667E-04    2.92      17.7  T
   5   -128.1853035 -0.612457E-08  0.398E-04    2.92      29.6  T
   6   -128.1853035 -0.135063E-08  0.170E-04    2.92      69.3  T
     SCC iter.                  ...        0 min,  0.135 sec
     gradient                   ...        0 min,  0.136 sec
 * total energy  :  -126.2561266 Eh     change       -0.2825342E-04 Eh
   gradient norm :     0.0016987 Eh/α   predicted    -0.2230772E-04 ( -21.04%)
   displ. norm   :     0.2565566 α      lambda        0.4487592E-05
   maximum displ.:     0.1175689 α      in ANC's #5, #4, #6, ...

........................................................................
.............................. CYCLE   19 ..............................
........................................................................
   1   -128.1847575 -0.128185E+03  0.514E-02    2.91       0.0  T
   2   -128.1847587 -0.124274E-05  0.301E-02    2.91       1.0  T
   3   -128.1847558  0.287503E-05  0.640E-03    2.91       1.8  T
   4   -128.1847594 -0.354002E-05  0.101E-03    2.91      11.6  T
   5   -128.1847594 -0.160910E-07  0.608E-04    2.91      19.4  T
   6   -128.1847594 -0.322976E-08  0.268E-04    2.91      43.9  T
     SCC iter.                  ...        0 min,  0.136 sec
     gradient                   ...        0 min,  0.146 sec
 * total energy  :  -126.2561120 Eh     change        0.1456534E-04 Eh
   gradient norm :     0.0046676 Eh/α   predicted     0.2305254E-05 ( -84.17%)
   displ. norm   :     0.0753334 α      lambda       -0.4664970E-04
   maximum displ.:     0.0366360 α      in ANC's #5, #4, #17, ...

........................................................................
.............................. CYCLE   20 ..............................
........................................................................
   1   -128.1857039 -0.128186E+03  0.172E-02    2.92       0.0  T
   2   -128.1857053 -0.141501E-05  0.103E-02    2.92       1.1  T
   3   -128.1857049  0.413440E-06  0.401E-03    2.92       2.9  T
   4   -128.1857055 -0.594628E-06  0.104E-03    2.92      11.3  T
   5   -128.1857056 -0.859243E-07  0.303E-04    2.92      38.9  T
   6   -128.1857056 -0.230614E-08  0.177E-04    2.92      66.6  T
     SCC iter.                  ...        0 min,  0.135 sec
     gradient                   ...        0 min,  0.143 sec
 * total energy  :  -126.2561430 Eh     change       -0.3097895E-04 Eh
   gradient norm :     0.0027287 Eh/α   predicted    -0.2346503E-04 ( -24.25%)
   displ. norm   :     0.0765406 α      lambda       -0.3520621E-04
   maximum displ.:     0.0308267 α      in ANC's #17, #5, #4, ...
 * RMSD in coord.:     0.4808506 α      energy gain  -0.2311491E-01 Eh

generating ANC from model Hessian ...
Using Lindh-Hessian (1995)
 Shifting diagonal of input Hessian by    9.8747330540545197E-003
 Lowest  eigenvalues of input Hessian
    0.000000    0.000000    0.000000    0.000000    0.000000    0.000000
    0.010000    0.010071    0.010148    0.010238    0.010335    0.010553
    0.010664    0.010728    0.011122    0.011380    0.011484    0.011989
 Highest eigenvalues
    2.121713    2.125991    2.126910    2.342583    2.344476    2.395130


........................................................................
.............................. CYCLE   21 ..............................
........................................................................
   1   -128.1847395 -0.128185E+03  0.178E-02    2.92       0.0  T
   2   -128.1847399 -0.383282E-06  0.105E-02    2.92       1.1  T
   3   -128.1847394  0.471298E-06  0.275E-03    2.92       4.3  T
   4   -128.1847400 -0.559633E-06  0.657E-04    2.92      17.9  T
   5   -128.1847400 -0.269411E-07  0.258E-04    2.92      45.6  T
     SCC iter.                  ...        0 min,  0.114 sec
     gradient                   ...        0 min,  0.134 sec
 * total energy  :  -126.2561629 Eh     change       -0.1990407E-04 Eh
   gradient norm :     0.0015777 Eh/α   predicted     0.0000000E+00 (-100.00%)
   displ. norm   :     0.0310250 α      lambda       -0.7710774E-05
   maximum displ.:     0.0161768 α      in ANC's #8, #6, #10, ...

........................................................................
.............................. CYCLE   22 ..............................
........................................................................
   1   -128.1849590 -0.128185E+03  0.893E-03    2.91       0.0  T
   2   -128.1849592 -0.232464E-06  0.527E-03    2.92       2.2  T
   3   -128.1849591  0.959670E-07  0.166E-03    2.92       7.1  T
   4   -128.1849593 -0.134177E-06  0.338E-04    2.92      34.9  T
   5   -128.1849593 -0.778243E-08  0.122E-04    2.92      96.3  T
     SCC iter.                  ...        0 min,  0.118 sec
     gradient                   ...        0 min,  0.128 sec
 * total energy  :  -126.2561722 Eh     change       -0.9238873E-05 Eh
   gradient norm :     0.0005339 Eh/α   predicted    -0.3860487E-05 ( -58.21%)
   displ. norm   :     0.1120749 α      lambda       -0.1818689E-04
   maximum displ.:     0.0566013 α      in ANC's #8, #6, #10, ...

........................................................................
.............................. CYCLE   23 ..............................
........................................................................
   1   -128.1852324 -0.128185E+03  0.311E-02    2.91       0.0  T
   2   -128.1852331 -0.693846E-06  0.182E-02    2.91       1.0  T
   3   -128.1852322  0.895393E-06  0.379E-03    2.91       3.1  T
   4   -128.1852333 -0.109714E-05  0.760E-04    2.91      15.5  T
   5   -128.1852334 -0.292535E-07  0.369E-04    2.91      31.9  T
   6   -128.1852334 -0.780517E-09  0.216E-04    2.91      54.5  T
     SCC iter.                  ...        0 min,  0.135 sec
     gradient                   ...        0 min,  0.142 sec
 * total energy  :  -126.2561930 Eh     change       -0.2087674E-04 Eh
   gradient norm :     0.0023216 Eh/α   predicted    -0.9167775E-05 ( -56.09%)
   displ. norm   :     0.1127532 α      lambda       -0.2028520E-04
   maximum displ.:     0.0569991 α      in ANC's #8, #6, #7, ...

........................................................................
.............................. CYCLE   24 ..............................
........................................................................
   1   -128.1851985 -0.128185E+03  0.305E-02    2.91       0.0  T
   2   -128.1851987 -0.275175E-06  0.179E-02    2.91       1.0  T
   3   -128.1851980  0.784863E-06  0.326E-03    2.91       3.6  T
   4   -128.1851989 -0.951352E-06  0.573E-04    2.91      20.6  T
   5   -128.1851989 -0.615898E-08  0.365E-04    2.91      32.3  T
     SCC iter.                  ...        0 min,  0.117 sec
     gradient                   ...        0 min,  0.123 sec
 * total energy  :  -126.2562103 Eh     change       -0.1724944E-04 Eh
   gradient norm :     0.0027705 Eh/α   predicted    -0.1029727E-04 ( -40.30%)
   displ. norm   :     0.2019131 α      lambda       -0.3177041E-04
   maximum displ.:     0.1021209 α      in ANC's #8, #6, #7, ...

........................................................................
.............................. CYCLE   25 ..............................
........................................................................
   1   -128.1848479 -0.128185E+03  0.542E-02    2.91       0.0  T
   2   -128.1848487 -0.795198E-06  0.318E-02    2.91       1.0  T
   3   -128.1848462  0.242059E-05  0.565E-03    2.91       2.1  T
   4   -128.1848492 -0.294171E-05  0.966E-04    2.91      12.2  T
   5   -128.1848492 -0.113068E-07  0.632E-04    2.91      18.6  T
   6   -128.1848492 -0.748355E-08  0.245E-04    2.91      48.2  T
     SCC iter.                  ...        0 min,  0.134 sec
     gradient                   ...        0 min,  0.132 sec
 * total energy  :  -126.2562340 Eh     change       -0.2367058E-04 Eh
   gradient norm :     0.0029486 Eh/α   predicted    -0.1653434E-04 ( -30.15%)
   displ. norm   :     0.1687308 α      lambda       -0.2266301E-04
   maximum displ.:     0.0872803 α      in ANC's #8, #6, #7, ...

........................................................................
.............................. CYCLE   26 ..............................
........................................................................
   1   -128.1847207 -0.128185E+03  0.446E-02    2.91       0.0  T
   2   -128.1847213 -0.595629E-06  0.262E-02    2.91       1.0  T
   3   -128.1847198  0.152362E-05  0.450E-03    2.91       2.6  T
   4   -128.1847217 -0.184831E-05  0.845E-04    2.91      13.9  T
   5   -128.1847217 -0.191293E-07  0.506E-04    2.91      23.3  T
   6   -128.1847217 -0.302217E-08  0.230E-04    2.91      51.3  T
     SCC iter.                  ...        0 min,  0.142 sec
     gradient                   ...        0 min,  0.137 sec
 * total energy  :  -126.2562514 Eh     change       -0.1742892E-04 Eh
   gradient norm :     0.0022171 Eh/α   predicted    -0.1166148E-04 ( -33.09%)
   displ. norm   :     0.1575118 α      lambda       -0.2338120E-04
   maximum displ.:     0.0833205 α      in ANC's #8, #6, #7, ...

........................................................................
.............................. CYCLE   27 ..............................
........................................................................
   1   -128.1849768 -0.128185E+03  0.412E-02    2.92       0.0  T
   2   -128.1849775 -0.764843E-06  0.242E-02    2.92       1.0  T
   3   -128.1849764  0.111092E-05  0.411E-03    2.92       2.9  T
   4   -128.1849778 -0.136610E-05  0.888E-04    2.92      13.3  T
   5   -128.1849778 -0.380527E-07  0.451E-04    2.92      26.1  T
   6   -128.1849778 -0.201584E-08  0.230E-04    2.92      51.3  T
     SCC iter.                  ...        0 min,  0.135 sec
     gradient                   ...        0 min,  0.119 sec
 * total energy  :  -126.2562686 Eh     change       -0.1718541E-04 Eh
   gradient norm :     0.0008759 Eh/α   predicted    -0.1198959E-04 ( -30.23%)
   displ. norm   :     0.2035554 α      lambda       -0.1476982E-04
   maximum displ.:     0.1071968 α      in ANC's #8, #6, #7, ...

........................................................................
.............................. CYCLE   28 ..............................
........................................................................
   1   -128.1849512 -0.128185E+03  0.527E-02    2.92       0.0  T
   2   -128.1849522 -0.103883E-05  0.310E-02    2.92       1.0  T
   3   -128.1849508  0.143912E-05  0.473E-03    2.92       2.5  T
   4   -128.1849526 -0.180621E-05  0.102E-03    2.92      11.6  T
   5   -128.1849527 -0.417468E-07  0.556E-04    2.92      21.2  T
   6   -128.1849527 -0.384748E-08  0.289E-04    2.92      40.8  T
     SCC iter.                  ...        0 min,  0.136 sec
     gradient                   ...        0 min,  0.145 sec
 * total energy  :  -126.2562815 Eh     change       -0.1293919E-04 Eh
   gradient norm :     0.0016673 Eh/α   predicted    -0.7522296E-05 ( -41.86%)
   displ. norm   :     0.0594838 α      lambda       -0.5215413E-05
   maximum displ.:     0.0268587 α      in ANC's #8, #12, #6, ...

........................................................................
.............................. CYCLE   29 ..............................
........................................................................
   1   -128.1853303 -0.128185E+03  0.148E-02    2.93       0.0  T
   2   -128.1853304 -0.114568E-06  0.871E-03    2.93       1.4  T
   3   -128.1853302  0.174155E-06  0.162E-03    2.93       7.3  T
   4   -128.1853304 -0.212727E-06  0.279E-04    2.93      42.2  T
   5   -128.1853304 -0.348254E-08  0.139E-04    2.93      84.7  T
     SCC iter.                  ...        0 min,  0.117 sec
     gradient                   ...        0 min,  0.129 sec
 * total energy  :  -126.2562880 Eh     change       -0.6495836E-05 Eh
   gradient norm :     0.0013053 Eh/α   predicted    -0.2630105E-05 ( -59.51%)
   displ. norm   :     0.1792957 α      lambda       -0.1109620E-04
   maximum displ.:     0.0841274 α      in ANC's #8, #12, #6, ...

........................................................................
.............................. CYCLE   30 ..............................
........................................................................
   1   -128.1847401 -0.128185E+03  0.453E-02    2.92       0.0  T
   2   -128.1847412 -0.101852E-05  0.266E-02    2.92       1.0  T
   3   -128.1847394  0.174283E-05  0.510E-03    2.92       2.3  T
   4   -128.1847415 -0.212615E-05  0.751E-04    2.92      15.7  T
   5   -128.1847416 -0.225414E-07  0.392E-04    2.92      30.1  T
   6   -128.1847416 -0.608281E-09  0.198E-04    2.92      59.6  T
     SCC iter.                  ...        0 min,  0.139 sec
     gradient                   ...        0 min,  0.131 sec
 * total energy  :  -126.2562979 Eh     change       -0.9859181E-05 Eh
   gradient norm :     0.0011982 Eh/α   predicted    -0.5630025E-05 ( -42.90%)
   displ. norm   :     0.1031655 α      lambda       -0.1001092E-04
   maximum displ.:     0.0510059 α      in ANC's #13, #12, #2, ...

........................................................................
.............................. CYCLE   31 ..............................
........................................................................
   1   -128.1861081 -0.128186E+03  0.228E-02    2.94       0.0  T
   2   -128.1861088 -0.649994E-06  0.134E-02    2.93       1.0  T
   3   -128.1861078  0.966910E-06  0.394E-03    2.93       3.0  T
   4   -128.1861090 -0.116733E-05  0.752E-04    2.93      15.7  T
   5   -128.1861090 -0.337973E-07  0.321E-04    2.93      36.7  T
   6   -128.1861090 -0.121585E-08  0.182E-04    2.93      64.8  T
     SCC iter.                  ...        0 min,  0.139 sec
     gradient                   ...        0 min,  0.145 sec
 * total energy  :  -126.2563050 Eh     change       -0.7134003E-05 Eh
   gradient norm :     0.0020874 Eh/α   predicted    -0.5029323E-05 ( -29.50%)
   displ. norm   :     0.0531543 α      lambda       -0.6135693E-05
   maximum displ.:     0.0227401 α      in ANC's #12, #6, #8, ...

........................................................................
.............................. CYCLE   32 ..............................
........................................................................
   1   -128.1859239 -0.128186E+03  0.123E-02    2.93       0.0  T
   2   -128.1859240 -0.504991E-07  0.721E-03    2.93       1.6  T
   3   -128.1859238  0.123124E-06  0.134E-03    2.93       8.8  T
   4   -128.1859240 -0.149166E-06  0.180E-04    2.93      65.5  T
   5   -128.1859240 -0.642387E-09  0.106E-04    2.93     111.3  T
     SCC iter.                  ...        0 min,  0.113 sec
     gradient                   ...        0 min,  0.138 sec
 * total energy  :  -126.2563106 Eh     change       -0.5626942E-05 Eh
   gradient norm :     0.0015176 Eh/α   predicted    -0.3077339E-05 ( -45.31%)
   displ. norm   :     0.3112293 α      lambda       -0.2816621E-04
   maximum displ.:     0.1272717 α      in ANC's #12, #6, #2, ...

........................................................................
.............................. CYCLE   33 ..............................
........................................................................
   1   -128.1841260 -0.128184E+03  0.696E-02    2.92       0.0  T
   2   -128.1841283 -0.231741E-05  0.408E-02    2.92       1.0  T
   3   -128.1841236  0.471357E-05  0.856E-03    2.92       1.4  T
   4   -128.1841293 -0.575066E-05  0.128E-03    2.92       9.2  T
   5   -128.1841294 -0.498733E-07  0.712E-04    2.92      16.6  T
   6   -128.1841294 -0.615429E-08  0.351E-04    2.92      33.6  T
     SCC iter.                  ...        0 min,  0.138 sec
     gradient                   ...        0 min,  0.126 sec
 * total energy  :  -126.2563321 Eh     change       -0.2150663E-04 Eh
   gradient norm :     0.0024486 Eh/α   predicted    -0.1469094E-04 ( -31.69%)
   displ. norm   :     0.0393623 α      lambda       -0.7633903E-05
   maximum displ.:     0.0187255 α      in ANC's #2, #1, #11, ...

........................................................................
.............................. CYCLE   34 ..............................
........................................................................
   1   -128.1845362 -0.128185E+03  0.740E-03    2.92       0.0  T
   2   -128.1845362 -0.426793E-07  0.436E-03    2.92       2.7  T
   3   -128.1845361  0.108837E-06  0.127E-03    2.92       9.3  T
   4   -128.1845362 -0.135531E-06  0.233E-04    2.92      50.6  T
   5   -128.1845362 -0.106914E-08  0.141E-04    2.92      83.5  T
     SCC iter.                  ...        0 min,  0.113 sec
     gradient                   ...        0 min,  0.121 sec
 * total energy  :  -126.2563388 Eh     change       -0.6701871E-05 Eh
   gradient norm :     0.0019994 Eh/α   predicted    -0.3823084E-05 ( -42.95%)
   displ. norm   :     0.2267714 α      lambda       -0.2429489E-04
   maximum displ.:     0.1103990 α      in ANC's #2, #1, #6, ...

........................................................................
.............................. CYCLE   35 ..............................
........................................................................
   1   -128.1856940 -0.128186E+03  0.447E-02    2.94       0.0  T
   2   -128.1856954 -0.143503E-05  0.262E-02    2.93       1.0  T
   3   -128.1856923  0.305637E-05  0.652E-03    2.94       1.8  T
   4   -128.1856961 -0.371307E-05  0.119E-03    2.93       9.9  T
   5   -128.1856961 -0.467299E-07  0.645E-04    2.93      18.3  T
   6   -128.1856961 -0.378483E-08  0.297E-04    2.93      39.7  T
     SCC iter.                  ...        0 min,  0.135 sec
     gradient                   ...        0 min,  0.137 sec
 * total energy  :  -126.2563572 Eh     change       -0.1841552E-04 Eh
   gradient norm :     0.0012142 Eh/α   predicted    -0.1243170E-04 ( -32.49%)
   displ. norm   :     0.2272927 α      lambda        0.2236508E-04
   maximum displ.:     0.1103947 α      in ANC's #2, #1, #6, ...

........................................................................
.............................. CYCLE   36 ..............................
........................................................................
   1   -128.1861901 -0.128186E+03  0.447E-02    2.95       0.0  T
   2   -128.1861914 -0.135571E-05  0.262E-02    2.94       1.0  T
   3   -128.1861886  0.283155E-05  0.624E-03    2.94       1.9  T
   4   -128.1861920 -0.344170E-05  0.118E-03    2.94      10.0  T
   5   -128.1861921 -0.458664E-07  0.640E-04    2.94      18.4  T
   6   -128.1861921 -0.325821E-08  0.314E-04    2.94      37.5  T
     SCC iter.                  ...        0 min,  0.135 sec
     gradient                   ...        0 min,  0.120 sec
 * total energy  :  -126.2563437 Eh     change        0.1353939E-04 Eh
   gradient norm :     0.0034954 Eh/α   predicted     0.1143556E-04 ( -15.54%)
   displ. norm   :     0.0742799 α      lambda       -0.2258490E-04
   maximum displ.:     0.0325479 α      in ANC's #2, #1, #14, ...

........................................................................
.............................. CYCLE   37 ..............................
........................................................................
   1   -128.1855395 -0.128186E+03  0.160E-02    2.93       0.0  T
   2   -128.1855397 -0.271203E-06  0.945E-03    2.94       1.2  T
   3   -128.1855392  0.505220E-06  0.267E-03    2.93       4.4  T
   4   -128.1855399 -0.619496E-06  0.536E-04    2.94      22.0  T
   5   -128.1855399 -0.104637E-07  0.286E-04    2.94      41.2  T
     SCC iter.                  ...        0 min,  0.110 sec
     gradient                   ...        0 min,  0.153 sec
 * total energy  :  -126.2563597 Eh     change       -0.1601916E-04 Eh
   gradient norm :     0.0015537 Eh/α   predicted    -0.1135497E-04 ( -29.12%)
   displ. norm   :     0.0653686 α      lambda       -0.9349351E-05
   maximum displ.:     0.0257435 α      in ANC's #8, #24, #14, ...

........................................................................
.............................. CYCLE   38 ..............................
........................................................................
   1   -128.1851232 -0.128185E+03  0.169E-02    2.92       0.0  T
   2   -128.1851235 -0.306417E-06  0.100E-02    2.93       1.2  T
   3   -128.1851230  0.555176E-06  0.289E-03    2.93       4.1  T
   4   -128.1851236 -0.688557E-06  0.565E-04    2.93      20.9  T
   5   -128.1851237 -0.104170E-07  0.317E-04    2.93      37.1  T
     SCC iter.                  ...        0 min,  0.114 sec
     gradient                   ...        0 min,  0.143 sec
 * total energy  :  -126.2563655 Eh     change       -0.5781885E-05 Eh
   gradient norm :     0.0011079 Eh/α   predicted    -0.4684421E-05 ( -18.98%)
   displ. norm   :     0.0653334 α      lambda        0.1537110E-04
   maximum displ.:     0.0257459 α      in ANC's #8, #24, #14, ...

........................................................................
.............................. CYCLE   39 ..............................
........................................................................
   1   -128.1846027 -0.128185E+03  0.170E-02    2.91       0.0  T
   2   -128.1846030 -0.339456E-06  0.101E-02    2.92       1.2  T
   3   -128.1846025  0.573304E-06  0.301E-03    2.92       3.9  T
   4   -128.1846032 -0.715780E-06  0.584E-04    2.92      20.2  T
   5   -128.1846032 -0.117964E-07  0.324E-04    2.92      36.3  T
     SCC iter.                  ...        0 min,  0.113 sec
     gradient                   ...        0 min,  0.145 sec
 * total energy  :  -126.2563533 Eh     change        0.1217800E-04 Eh
   gradient norm :     0.0038991 Eh/α   predicted     0.7698979E-05 ( -36.78%)
   displ. norm   :     0.0530781 α      lambda       -0.1942838E-04
   maximum displ.:     0.0229265 α      in ANC's #2, #1, #14, ...

........................................................................
.............................. CYCLE   40 ..............................
........................................................................
   1   -128.1850702 -0.128185E+03  0.118E-02    2.93       0.0  T
   2   -128.1850705 -0.256110E-06  0.700E-03    2.93       1.7  T
   3   -128.1850702  0.290204E-06  0.233E-03    2.93       5.0  T
   4   -128.1850706 -0.369640E-06  0.475E-04    2.93      24.8  T
   5   -128.1850706 -0.112790E-07  0.230E-04    2.93      51.3  T
     SCC iter.                  ...        0 min,  0.117 sec
     gradient                   ...        0 min,  0.113 sec
 * total energy  :  -126.2563667 Eh     change       -0.1337866E-04 Eh
   gradient norm :     0.0014796 Eh/α   predicted    -0.9742753E-05 ( -27.18%)
   displ. norm   :     0.0732979 α      lambda       -0.6598715E-05
   maximum displ.:     0.0419967 α      in ANC's #2, #1, #5, ...

........................................................................
.............................. CYCLE   41 ..............................
........................................................................
   1   -128.1857586 -0.128186E+03  0.127E-02    2.94       0.0  T
   2   -128.1857589 -0.236021E-06  0.752E-03    2.94       1.6  T
   3   -128.1857586  0.278987E-06  0.221E-03    2.94       5.3  T
   4   -128.1857589 -0.350776E-06  0.473E-04    2.94      24.9  T
   5   -128.1857590 -0.968288E-08  0.238E-04    2.94      49.6  T
     SCC iter.                  ...        0 min,  0.116 sec
     gradient                   ...        0 min,  0.122 sec
 * total energy  :  -126.2563716 Eh     change       -0.4925109E-05 Eh
   gradient norm :     0.0006487 Eh/α   predicted    -0.3308410E-05 ( -32.83%)
   displ. norm   :     0.0534828 α      lambda       -0.2164393E-05
   maximum displ.:     0.0281622 α      in ANC's #2, #1, #8, ...

   *** GEOMETRY OPTIMIZATION CONVERGED AFTER 41 ITERATIONS ***

------------------------------------------------------------------------
 total energy gain   :        -0.0233435 Eh      -14.6483 kcal/mol
 total RMSD          :         0.5629803 a0        0.2979 Å
 total power (kW/mol):        -1.4948399 (step)   -3.4231 (real)
------------------------------------------------------------------------

 ANCopt (total)                0 d,  0 h,  0 min, 17.905 sec
 optimizer setup                ...        0 min,  0.000 sec (  0.001%)
 model hessian                  ...        0 min,  0.069 sec (  0.383%)
 ANC generation                 ...        0 min,  0.027 sec (  0.150%)
 coordinate transformation      ...        0 min,  0.004 sec (  0.020%)
 single point calculation       ...        0 min, 17.167 sec ( 95.879%)
 optimization log               ...        0 min,  0.077 sec (  0.432%)
 hessian update                 ...        0 min,  0.518 sec (  2.894%)
 rational function              ...        0 min,  0.012 sec (  0.064%)

================
 final structure:
================
72
 xtb: 6.3.3 (4ae9cef)
C        -3.01377799703467    1.99551649656348   -0.31178578897100
C        -4.21605181578481    2.19885220890881    0.30257617822538
C        -4.67270967174059    1.32307584691462    1.30871295074577
C        -5.91162459450185    1.50222719985129    1.95806841215843
C        -6.32320524516841    0.63302814027471    2.92903177059322
C        -5.51498811292658   -0.45487057278341    3.29561990036541
C        -4.30904820523251   -0.65561770168239    2.68543197932208
C        -3.85573658199544    0.22298108525760    1.67908667313777
C        -2.61838911898386    0.04553523339327    1.03120273417932
C        -2.20201400745196    0.90596699163928    0.04893993959652
C        -0.86681740805900    0.71341813106659   -0.62137045357232
C         0.30550350393160    1.01633080015382    0.33926667267980
C         1.13058289539662    2.21016891646616   -0.06731111875010
C         1.34183401270651    3.23348707448721    0.81809579853807
C         2.10910291018925    4.36057725077413    0.46276141208594
C         2.33202740800110    5.42621926805277    1.35968874769813
C         3.07877492531618    6.50776352517922    0.98513741899892
C         3.63681220724121    6.57423557142299   -0.30145360939710
C         3.44063536847423    5.55673506759933   -1.19277717410138
C         2.67512891856281    4.42736586380883   -0.83683374422849
C         2.44917315030448    3.35829723157926   -1.72846862989320
C         1.69626720217358    2.28266065557573   -1.35528562698184
N         1.08054857119957   -0.22311112567097    0.35745114473956
C         1.99034742444591   -0.46615888889082    1.33796665797602
C         2.61654955668058   -1.82627780401888    1.28891668759002
C         1.89119206182165   -2.94273593579743    1.69131372368998
C         2.47142199544360   -4.19799233710926    1.67078120028713
C         3.78236969612727   -4.31395491515627    1.24442700190200
F         4.34870652088377   -5.53659733888629    1.21094847469160
C         4.52801372086985   -3.21550559516177    0.85691567571418
C         3.93838502053757   -1.96489001483602    0.88734776181982
O         2.24594063122809    0.35681202184855    2.18823641129493
C         0.67185150351064   -1.11148900077427   -0.69462818047362
C         1.64217216808626   -1.03876237731395   -1.89892543881601
O         1.00240388823791   -1.00101795858816   -3.06402584495422
O         2.83430739067619   -1.05803180521514   -1.78809958590336
N        -0.66351519271513   -0.68153329559542   -1.00212895580211
C        -1.57417168994135   -1.34406371252560   -1.76657216770375
C        -1.26829934505168   -2.79385016563011   -1.98656798830144
C        -1.21194610024147   -3.67206287933007   -0.90876871376465
C        -0.96885583585519   -5.01745159603682   -1.11426035163374
C        -0.78400304948291   -5.46793976623713   -2.40962720859554
F        -0.53435629795740   -6.77479595745664   -2.61507362758590
C        -0.85641938055865   -4.61798615493001   -3.49867923271018
C        -1.11036442334951   -3.27626884374224   -3.27926686378150
O        -2.56933048924647   -0.80781974005208   -2.19907246405223
H        -2.67509302223660    2.66735649209241   -1.08646919690758
H        -4.83912751305984    3.03513473522067    0.02034750672202
H        -6.53032879862931    2.34075503097538    1.67191129401720
H        -7.27353031448858    0.77560552657265    3.42217081963183
H        -5.85639580674182   -1.13198531789688    4.06488719981103
H        -3.68462579611594   -1.49224359750791    2.96588501702787
H        -1.99789978828968   -0.79239352205160    1.32021848927952
H        -0.81464763424028    1.35285464989188   -1.51170468827153
H        -0.06317812139250    1.18466544489580    1.35863271399190
H         0.92523253486853    3.18242668428147    1.81317721415952
H         1.90199971614595    5.36875357061036    2.34901235835011
H         3.24616142490130    7.32069598554250    1.67637875264486
H         4.22373111937559    7.43729856596313   -0.57987279051214
H         3.86936923593746    5.60274390440450   -2.18383146664420
H         2.88312259800189    3.40549920808905   -2.71712822442241
H         1.53010070421950    1.47638098165056   -2.05438200193720
H         0.87473186834123   -2.82939360283842    2.04062498248558
H         1.92784929612595   -5.07608139777225    1.98133370595250
H         5.55022624521746   -3.34649887823963    0.54036711057601
H         4.49696767590530   -1.09255482780670    0.58949506393547
H         0.70396453233426   -2.16140914786897   -0.36752614956531
H         1.62933761813075   -0.99250887285503   -3.80698553756234
H        -1.38508546486466   -3.30738797048280    0.09321932808580
H        -0.92694518018899   -5.71520342979241   -0.29320334656761
H        -0.72358797364650   -5.01091075900486   -4.49399146575464
H        -1.18677924437476   -2.59206655347383   -4.10950624657932

 Bond Distances (Angstroems)
 ---------------------------
C1-C2=1.3654         C1-C10=1.4058        C1-H47=1.0799        C2-C1=1.3654         C2-C3=1.4099         C2-H48=1.0804        
C3-C2=1.4099         C3-C4=1.4102         C3-C8=1.4194         C4-C3=1.4102         C4-C5=1.3666         C4-H49=1.0807        
C5-C4=1.3666         C5-C6=1.4040         C5-H50=1.0801        C6-C5=1.4040         C6-C7=1.3664         C6-H51=1.0802        
C7-C6=1.3664         C7-C8=1.4107         C7-H52=1.0810        C8-C3=1.4194         C8-C7=1.4107         C8-C9=1.4079         
C9-C8=1.4079         C9-C10=1.3706        C9-H53=1.0820        C10-C1=1.4058        C10-C9=1.3706        C10-C11=1.5064       
C11-C10=1.5064       C11-C12=1.5456       C11-N37=1.4602       C11-H54=1.0974       C12-C11=1.5456       C12-C13=1.5071       
C12-N23=1.4619       C12-H55=1.0970       C13-C12=1.5071       C13-C14=1.3696       C13-C22=1.4086       C14-C13=1.3696       
C14-C15=1.4090       C14-H56=1.0800       C15-C14=1.4090       C15-C16=1.4106       C15-C20=1.4191       C16-C15=1.4106       
C16-C17=1.3666       C16-H57=1.0803       C17-C16=1.3666       C17-C18=1.4040       C17-H58=1.0801       C18-C17=1.4040       
C18-C19=1.3668       C18-H59=1.0802       C19-C18=1.3668       C19-C20=1.4100       C19-H60=1.0808       C20-C15=1.4191       
C20-C19=1.4100       C20-C21=1.4103       C21-C20=1.4103       C21-C22=1.3650       C21-H61=1.0807       C22-C13=1.4086       
C22-C21=1.3650       C22-H62=1.0800       N23-C12=1.4619       N23-C24=1.3595       N23-C33=1.4364       C24-N23=1.3595       
C24-C25=1.4982       C24-O32=1.2106       C25-C24=1.4982       C25-C26=1.3909       C25-C31=1.3884       C26-C25=1.3909       
C26-C27=1.3830       C26-H63=1.0808       C27-C26=1.3830       C27-C28=1.3834       C27-H64=1.0784       C28-C27=1.3834       
C28-F29=1.3479       C28-C30=1.3830       F29-C28=1.3479       C30-C28=1.3830       C30-C31=1.3830       C30-H65=1.0781       
C31-C25=1.3884       C31-C30=1.3830       C31-H66=1.0778       O32-C24=1.2106       C33-N23=1.4364       C33-C34=1.5483       
C33-N37=1.4362       C33-H67=1.1002       C34-C33=1.5483       C34-O35=1.3297       C34-O36=1.1974       O35-C34=1.3297       
O35-H68=0.9722       O36-C34=1.1974       N37-C11=1.4602       N37-C33=1.4362       N37-C38=1.3611       C38-N37=1.3611       
C38-C39=1.4979       C38-O46=1.2104       C39-C38=1.4979       C39-C40=1.3914       C39-C45=1.3888       C40-C39=1.3914       
C40-C41=1.3825       C40-H69=1.0803       C41-C40=1.3825       C41-C42=1.3839       C41-H70=1.0783       C42-C41=1.3839       
C42-F43=1.3463       C42-C44=1.3834       F43-C42=1.3463       C44-C42=1.3834       C44-C45=1.3831       C44-H71=1.0783       
C45-C39=1.3888       C45-C44=1.3831       C45-H72=1.0785       O46-C38=1.2104       H47-C1=1.0799        H48-C2=1.0804        
H49-C4=1.0807        H50-C5=1.0801        H51-C6=1.0802        H52-C7=1.0810        H53-C9=1.0820        H54-C11=1.0974       
H55-C12=1.0970       H56-C14=1.0800       H57-C16=1.0803       H58-C17=1.0801       H59-C18=1.0802       H60-C19=1.0808       
H61-C21=1.0807       H62-C22=1.0800       H63-C26=1.0808       H64-C27=1.0784       H65-C30=1.0781       H66-C31=1.0778       
H67-C33=1.1002       H68-O35=0.9722       H69-C40=1.0803       H70-C41=1.0783       H71-C44=1.0783       H72-C45=1.0785       
 C  H  Rav=1.0821 sigma=0.0061  Rmin=1.0778  Rmax=1.1002    25
 C  C  Rav=1.4101 sigma=0.0485  Rmin=1.3650  Rmax=1.5483    40
 N  C  Rav=1.4192 sigma=0.0429  Rmin=1.3595  Rmax=1.4619     6
 O  H  Rav=0.9722 sigma=0.0000  Rmin=0.9722  Rmax=0.9722     1
 O  C  Rav=1.2370 sigma=0.0538  Rmin=1.1974  Rmax=1.3297     4
 F  C  Rav=1.3471 sigma=0.0008  Rmin=1.3463  Rmax=1.3479     2

 selected bond angles (degree)
 --------------------
C10-C1-C2=120.56               H47-C1-C2=120.42               H47-C1-C10=119.02              C3-C2-C1=120.92                
H48-C2-C1=120.37               H48-C2-C3=118.71               C4-C3-C2=122.29                C8-C3-C2=118.76                
C8-C3-C4=118.94                C5-C4-C3=120.73                H49-C4-C3=118.66               H49-C4-C5=120.61               
C6-C5-C4=120.33                H50-C5-C4=120.36               H50-C5-C6=119.31               C7-C6-C5=120.35                
H51-C6-C5=119.32               H51-C6-C7=120.32               C8-C7-C6=120.71                H52-C7-C6=120.51               
H52-C7-C8=118.78               C7-C8-C3=118.94                C9-C8-C3=118.91                C9-C8-C7=122.15                
C10-C9-C8=121.17               H53-C9-C8=118.60               H53-C9-C10=120.22              C9-C10-C1=119.67               
C11-C10-C1=119.78              C11-C10-C9=120.53              

 selected dihedral angles (degree)
 ---------------------------------
C3-C2-C1-C10=359.89           C3-C2-C1-H47=179.56           H48-C2-C1-C10=180.23          H48-C2-C1-H47=359.90          
C4-C3-C2-C1=180.28            C4-C3-C2-H48=359.95           C8-C3-C2-C1=  0.25            C8-C3-C2-H48=179.92           
C5-C4-C3-C2=179.97            C5-C4-C3-C8=  0.00            H49-C4-C3-C2=  0.02           H49-C4-C3-C8=180.05           
C6-C5-C4-C3=  0.00            C6-C5-C4-H49=179.96           H50-C5-C4-C3=180.03           H50-C5-C4-H49=  0.00          
C7-C6-C5-C4=  0.00            C7-C6-C5-H50=179.98           H51-C6-C5-C4=180.02           H51-C6-C5-H50=  0.00          
C8-C7-C6-C5=359.97            C8-C7-C6-H51=179.95           H52-C7-C6-C5=179.98           H52-C7-C6-H51=359.96          
C7-C8-C3-C2=180.00            C7-C8-C3-C4=359.97            C9-C8-C3-C2=  0.09            C9-C8-C3-C4=180.06            
C3-C8-C7-C6=  0.04            C3-C8-C7-H52=180.03           C9-C8-C7-C6=179.95            C9-C8-C7-H52=359.94           
C10-C9-C8-C3=359.42           C10-C9-C8-C7=179.51           H53-C9-C8-C3=179.76           H53-C9-C8-C7=359.85           
C9-C10-C1-C2=359.62           C9-C10-C1-H47=179.95          C11-C10-C1-C2=181.19          C11-C10-C1-H47=  1.51         
C1-C10-C9-C8=  0.73           C1-C10-C9-H53=180.38          C11-C10-C9-C8=179.15          C11-C10-C9-H53=358.81         
           -------------------------------------------------
          |                Final Singlepoint                |
           -------------------------------------------------

          ...................................................
          :                      SETUP                      :
          :.................................................:
          :  # basis functions                 210          :
          :  # atomic orbitals                 210          :
          :  # shells                          118          :
          :  # electrons                       226          :
          :  max. iterations                   250          :
          :  Hamiltonian                  GFN2-xTB          :
          :  restarted?                      false          :
          :  GBSA solvation                  false          :
          :  PC potential                    false          :
          :  electronic temp.          300.0000000     K    :
          :  accuracy                    1.0000000          :
          :  -> integral cutoff          0.2500000E+02      :
          :  -> integral neglect         0.1000000E-07      :
          :  -> SCF convergence          0.1000000E-05 Eh   :
          :  -> wf. convergence          0.1000000E-03 e    :
          :  Broyden damping             0.4000000          :
          ...................................................

 iter      E             dE          RMSdq      gap      omega  full diag
   1   -128.1857590 -0.128186E+03  0.116E-04    2.94       0.0  T
   2   -128.1857590 -0.765681E-10  0.793E-05    2.94     148.6  T
   3   -128.1857590 -0.891305E-10  0.542E-05    2.94     217.5  T

   *** convergence criteria satisfied after 3 iterations ***

         #    Occupation            Energy/Eh            Energy/eV
      -------------------------------------------------------------
         1        2.0000           -0.8296882             -22.5770
       ...           ...                  ...                  ...
       107        2.0000           -0.4147310             -11.2854
       108        2.0000           -0.4101315             -11.1602
       109        2.0000           -0.4065538             -11.0629
       110        2.0000           -0.4023724             -10.9491
       111        2.0000           -0.4018032             -10.9336
       112        2.0000           -0.3863778             -10.5139
       113        2.0000           -0.3836786             -10.4404 (HOMO)
       114                         -0.2758005              -7.5049 (LUMO)
       115                         -0.2679601              -7.2916
       116                         -0.2667149              -7.2577
       117                         -0.2642409              -7.1904
       118                         -0.2589577              -7.0466
       ...                                ...                  ...
       210                          0.6918090              18.8251
      -------------------------------------------------------------
                  HL-Gap            0.1078781 Eh            2.9355 eV
             Fermi-level           -0.3297396 Eh           -8.9727 eV

 SCC (total)                   0 d,  0 h,  0 min,  0.392 sec
 SCC setup                      ...        0 min,  0.013 sec (  3.433%)
 Dispersion                     ...        0 min,  0.022 sec (  5.700%)
 classical contributions        ...        0 min,  0.020 sec (  5.084%)
 integral evaluation            ...        0 min,  0.126 sec ( 32.201%)
 iterations                     ...        0 min,  0.071 sec ( 18.215%)
 molecular gradient             ...        0 min,  0.136 sec ( 34.656%)
 printout                       ...        0 min,  0.003 sec (  0.687%)

         :::::::::::::::::::::::::::::::::::::::::::::::::::::
         ::                     SUMMARY                     ::
         :::::::::::::::::::::::::::::::::::::::::::::::::::::
         :: total energy            -126.256371638353 Eh    ::
         :: gradient norm              0.000646948026 Eh/a0 ::
         :: HOMO-LUMO gap              2.935511589354 eV    ::
         ::.................................................::
         :: SCC energy              -128.185758956120 Eh    ::
         :: -> isotropic ES            0.139258041646 Eh    ::
         :: -> anisotropic ES          0.006251379439 Eh    ::
         :: -> anisotropic XC          0.041798291866 Eh    ::
         :: -> dispersion             -0.101571916899 Eh    ::
         :: repulsion energy           1.926941039246 Eh    ::
         :: add. restraining           0.000000000000 Eh    ::
         :: total charge               0.000000000000 e     ::
         :::::::::::::::::::::::::::::::::::::::::::::::::::::

           -------------------------------------------------
          |                Property Printout                |
           -------------------------------------------------

    * Orbital Energies and Occupations

         #    Occupation            Energy/Eh            Energy/eV
      -------------------------------------------------------------
         1        2.0000           -0.8296882             -22.5770
       ...           ...                  ...                  ...
       101        2.0000           -0.4284217             -11.6579
       102        2.0000           -0.4278118             -11.6414
       103        2.0000           -0.4222305             -11.4895
       104        2.0000           -0.4219817             -11.4827
       105        2.0000           -0.4212582             -11.4630
       106        2.0000           -0.4149963             -11.2926
       107        2.0000           -0.4147310             -11.2854
       108        2.0000           -0.4101315             -11.1602
       109        2.0000           -0.4065538             -11.0629
       110        2.0000           -0.4023724             -10.9491
       111        2.0000           -0.4018032             -10.9336
       112        2.0000           -0.3863778             -10.5139
       113        2.0000           -0.3836786             -10.4404 (HOMO)
       114                         -0.2758005              -7.5049 (LUMO)
       115                         -0.2679601              -7.2916
       116                         -0.2667149              -7.2577
       117                         -0.2642409              -7.1904
       118                         -0.2589577              -7.0466
       119                         -0.2533210              -6.8932
       120                         -0.2510078              -6.8303
       121                         -0.2394706              -6.5163
       122                         -0.2342231              -6.3735
       123                         -0.2223583              -6.0507
       124                         -0.2197327              -5.9792
       ...                                ...                  ...
       210                          0.6918090              18.8251
      -------------------------------------------------------------
                  HL-Gap            0.1078781 Eh            2.9355 eV
             Fermi-level           -0.3297396 Eh           -8.9727 eV

     #   Z          covCN         q      C6AA      α(0)
     1   6 C        2.919    -0.030    28.743     8.792
     2   6 C        2.918    -0.031    28.769     8.796
     3   6 C        2.988     0.015    27.665     8.628
     4   6 C        2.918    -0.033    28.816     8.803
     5   6 C        2.916    -0.029    28.716     8.787
     6   6 C        2.916    -0.028    28.709     8.786
     7   6 C        2.918    -0.034    28.839     8.806
     8   6 C        2.987     0.016    27.647     8.625
     9   6 C        2.923    -0.037    28.921     8.819
    10   6 C        2.970     0.010    27.789     8.647
    11   6 C        3.824     0.042    19.847     6.339
    12   6 C        3.824     0.040    19.891     6.346
    13   6 C        2.967     0.002    27.985     8.677
    14   6 C        2.924    -0.033    28.813     8.803
    15   6 C        2.987     0.017    27.612     8.620
    16   6 C        2.918    -0.032    28.796     8.800
    17   6 C        2.916    -0.028    28.697     8.784
    18   6 C        2.916    -0.028    28.701     8.785
    19   6 C        2.918    -0.034    28.843     8.807
    20   6 C        2.988     0.014    27.685     8.631
    21   6 C        2.917    -0.034    28.844     8.807
    22   6 C        2.919    -0.033    28.833     8.806
    23   7 N        2.767    -0.112    23.445     7.191
    24   6 C        2.761     0.275    22.357     7.743
    25   6 C        2.975    -0.019    28.471     8.752
    26   6 C        2.927    -0.033    28.814     8.803
    27   6 C        2.916    -0.049    29.226     8.865
    28   6 C        2.788     0.173    24.278     8.071
    29   9 F        0.787    -0.220    11.442     3.996
    30   6 C        2.917    -0.043    29.074     8.842
    31   6 C        2.927    -0.015    28.376     8.736
    32   8 O        0.859    -0.408    21.847     6.267
    33   6 C        3.758     0.088    19.175     6.243
    34   6 C        2.686     0.348    21.089     7.515
    35   8 O        1.659    -0.361    20.116     6.055
    36   8 O        0.856    -0.383    21.349     6.195
    37   7 N        2.766    -0.112    23.448     7.192
    38   6 C        2.761     0.276    22.332     7.739
    39   6 C        2.974    -0.021    28.516     8.759
    40   6 C        2.927    -0.032    28.793     8.800
    41   6 C        2.916    -0.048    29.186     8.859
    42   6 C        2.788     0.174    24.255     8.067
    43   9 F        0.787    -0.217    11.411     3.990
    44   6 C        2.916    -0.047    29.157     8.855
    45   6 C        2.927    -0.021    28.534     8.760
    46   8 O        0.859    -0.406    21.807     6.261
    47   1 H        0.926     0.036     2.496     2.471
    48   1 H        0.926     0.041     2.441     2.443
    49   1 H        0.926     0.035     2.515     2.480
    50   1 H        0.926     0.034     2.536     2.490
    51   1 H        0.926     0.033     2.541     2.493
    52   1 H        0.926     0.030     2.585     2.514
    53   1 H        0.925     0.024     2.672     2.556
    54   1 H        0.924     0.058     2.228     2.334
    55   1 H        0.924     0.068     2.111     2.272
    56   1 H        0.926     0.047     2.362     2.404
    57   1 H        0.926     0.038     2.471     2.458
    58   1 H        0.926     0.035     2.520     2.482
    59   1 H        0.926     0.034     2.531     2.488
    60   1 H        0.926     0.034     2.532     2.488
    61   1 H        0.926     0.036     2.500     2.473
    62   1 H        0.926     0.020     2.738     2.587
    63   1 H        0.926     0.041     2.438     2.442
    64   1 H        0.926     0.063     2.161     2.299
    65   1 H        0.926     0.069     2.092     2.262
    66   1 H        0.926     0.067     2.115     2.274
    67   1 H        0.923     0.072     2.065     2.248
    68   1 H        0.804     0.346     0.597     1.214
    69   1 H        0.926     0.044     2.397     2.421
    70   1 H        0.926     0.066     2.130     2.282
    71   1 H        0.926     0.067     2.114     2.274
    72   1 H        0.926     0.062     2.173     2.305

 Mol. C6AA /au·bohr⁶  :      73531.763934
 Mol. C8AA /au·bohr⁸  :    1830240.884080
 Mol. α(0) /au        :        429.706130


Wiberg/Mayer (AO) data.
largest (>0.10) Wiberg bond orders for each atom

 ---------------------------------------------------------------------------
     #   Z sym  total        # sym  WBO       # sym  WBO       # sym  WBO
 ---------------------------------------------------------------------------
     1   6 C    3.990 --     2 C    1.559    10 C    1.299    47 H    0.968
     2   6 C    3.991 --     1 C    1.559     3 C    1.279    48 H    0.968
                             9 C    0.116
     3   6 C    3.990 --     4 C    1.281     2 C    1.279     8 C    1.249
     4   6 C    3.992 --     5 C    1.557     3 C    1.281    49 H    0.968
                             7 C    0.118
     5   6 C    3.990 --     4 C    1.557     6 C    1.320    50 H    0.971
     6   6 C    3.992 --     7 C    1.559     5 C    1.320    51 H    0.971
     7   6 C    3.990 --     6 C    1.559     8 C    1.278    52 H    0.968
                             4 C    0.118
     8   6 C    3.991 --     9 C    1.286     7 C    1.278     3 C    1.249
     9   6 C    3.991 --    10 C    1.521     8 C    1.286    53 H    0.966
                             2 C    0.116
    10   6 C    3.985 --     9 C    1.521     1 C    1.299    11 C    0.990
    11   6 C    3.959 --    10 C    0.990    12 C    0.956    37 N    0.954
                            54 H    0.953
    12   6 C    3.956 --    13 C    0.988    11 C    0.956    55 H    0.955
                            23 N    0.949
    13   6 C    3.985 --    14 C    1.527    22 C    1.295    12 C    0.988
    14   6 C    3.989 --    13 C    1.527    15 C    1.282    56 H    0.964
                            21 C    0.114
    15   6 C    3.990 --    14 C    1.282    16 C    1.278    20 C    1.251
    16   6 C    3.989 --    17 C    1.558    15 C    1.278    57 H    0.968
                            19 C    0.118
    17   6 C    3.992 --    16 C    1.558    18 C    1.321    58 H    0.971
    18   6 C    3.990 --    19 C    1.556    17 C    1.321    59 H    0.971
    19   6 C    3.992 --    18 C    1.556    20 C    1.282    60 H    0.968
                            16 C    0.118
    20   6 C    3.990 --    19 C    1.282    21 C    1.276    15 C    1.251
    21   6 C    3.992 --    22 C    1.563    20 C    1.276    61 H    0.968
                            14 C    0.114
    22   6 C    3.992 --    21 C    1.563    13 C    1.295    62 H    0.964
    23   7 N    3.463 --    24 C    1.202    33 C    0.994    12 C    0.949
                            32 O    0.192
    24   6 C    3.947 --    32 O    1.705    23 N    1.202    25 C    0.957
    25   6 C    3.988 --    31 C    1.408    26 C    1.403    24 C    0.957
    26   6 C    3.991 --    27 C    1.444    25 C    1.403    63 H    0.968
                            30 C    0.110
    27   6 C    3.989 --    26 C    1.444    28 C    1.393    64 H    0.966
                            31 C    0.110
    28   6 C    3.890 --    30 C    1.397    27 C    1.393    29 F    0.964
    29   9 F    1.096 --    28 C    0.964
    30   6 C    3.989 --    31 C    1.443    28 C    1.397    65 H    0.965
                            26 C    0.110
    31   6 C    3.988 --    30 C    1.443    25 C    1.408    66 H    0.967
                            27 C    0.110
    32   8 O    2.030 --    24 C    1.705    23 N    0.192
    33   6 C    3.976 --    37 N    0.997    23 N    0.994    67 H    0.919
                            34 C    0.904
    34   6 C    3.919 --    36 O    1.783    35 O    1.155    33 C    0.904
    35   8 O    2.221 --    34 C    1.155    68 H    0.853    36 O    0.183
    36   8 O    2.066 --    34 C    1.783    35 O    0.183
    37   7 N    3.456 --    38 C    1.197    33 C    0.997    11 C    0.954
                            46 O    0.190
    38   6 C    3.948 --    46 O    1.707    37 N    1.197    39 C    0.961
    39   6 C    3.987 --    45 C    1.408    40 C    1.399    38 C    0.961
    40   6 C    3.991 --    41 C    1.448    39 C    1.399    69 H    0.967
                            44 C    0.109
    41   6 C    3.989 --    40 C    1.448    42 C    1.391    70 H    0.966
                            45 C    0.109
    42   6 C    3.890 --    44 C    1.396    41 C    1.391    43 F    0.966
    43   9 F    1.100 --    42 C    0.966
    44   6 C    3.989 --    45 C    1.444    42 C    1.396    71 H    0.965
                            40 C    0.109
    45   6 C    3.989 --    44 C    1.444    39 C    1.408    72 H    0.967
                            41 C    0.109
    46   8 O    2.033 --    38 C    1.707    37 N    0.190
    47   1 H    0.998 --     1 C    0.968
    48   1 H    0.997 --     2 C    0.968
    49   1 H    0.998 --     4 C    0.968
    50   1 H    0.998 --     5 C    0.971
    51   1 H    0.998 --     6 C    0.971
    52   1 H    0.999 --     7 C    0.968
    53   1 H    0.999 --     9 C    0.966
    54   1 H    0.996 --    11 C    0.953
    55   1 H    0.995 --    12 C    0.955
    56   1 H    0.997 --    14 C    0.964
    57   1 H    0.998 --    16 C    0.968
    58   1 H    0.998 --    17 C    0.971
    59   1 H    0.998 --    18 C    0.971
    60   1 H    0.998 --    19 C    0.968
    61   1 H    0.998 --    21 C    0.968
    62   1 H    0.999 --    22 C    0.964
    63   1 H    0.998 --    26 C    0.968
    64   1 H    0.995 --    27 C    0.966
    65   1 H    0.995 --    30 C    0.965
    66   1 H    0.995 --    31 C    0.967
    67   1 H    0.994 --    33 C    0.919
    68   1 H    0.880 --    35 O    0.853
    69   1 H    0.998 --    40 C    0.967
    70   1 H    0.995 --    41 C    0.966
    71   1 H    0.995 --    44 C    0.965
    72   1 H    0.996 --    45 C    0.967
 ---------------------------------------------------------------------------

Topologies differ in total number of bonds
Writing topology from bond orders to xtbtopo.mol

molecular dipole:
                 x           y           z       tot (Debye)
 q only:       -0.474       1.278      -0.486
   full:       -0.304       0.926      -0.758       3.139
molecular quadrupole (traceless):
                xx          xy          yy          xz          yz          zz
 q only:       -4.970       8.662      -6.510     -20.311      -4.349      11.480
  q+dip:      -10.968      10.844      -5.616     -31.591      -9.225      16.584
   full:       -8.333      10.449      -7.709     -26.705      -6.868      16.042

           -------------------------------------------------
          |                Geometry Summary                 |
           -------------------------------------------------

      molecular mass/u    :      612.6222561
   center of mass at/Å    :        0.1430730      -0.3323044      -0.0983253
  moments of inertia/u·Å² :        0.6914544E+04   0.8541008E+04   0.1203278E+05
rotational constants/cm⁻¹ :        0.2437996E-02   0.1973729E-02   0.1400976E-02

 * 70 selected distances

     #   Z          #   Z                                           value/Å
     1   6 C        2   6 C                                       1.3653748
     2   6 C        3   6 C                                       1.4099049
     3   6 C        4   6 C                                       1.4102014
     4   6 C        5   6 C                                       1.3666292
     5   6 C        6   6 C                                       1.4039677
     6   6 C        7   6 C                                       1.3663527
     3   6 C        8   6 C                                       1.4194471
     7   6 C        8   6 C                                       1.4107296
     8   6 C        9   6 C                                       1.4079309
     1   6 C       10   6 C                                       1.4057745
     9   6 C       10   6 C                                       1.3706025
    13   6 C       14   6 C                                       1.3695811
    14   6 C       15   6 C                                       1.4090054
    15   6 C       16   6 C                                       1.4105910
    16   6 C       17   6 C                                       1.3666230
    17   6 C       18   6 C                                       1.4039732
    18   6 C       19   6 C                                       1.3668395
    15   6 C       20   6 C                                       1.4190820
    19   6 C       20   6 C                                       1.4100251
    20   6 C       21   6 C                                       1.4103108
    13   6 C       22   6 C                                       1.4085922
    21   6 C       22   6 C                                       1.3649641
    12   6 C       23   7 N                                       1.4619309 (max)
    23   7 N       24   6 C                                       1.3594914
    25   6 C       26   6 C                                       1.3908794
    26   6 C       27   6 C                                       1.3830246
    27   6 C       28   6 C                                       1.3834049
    28   6 C       30   6 C                                       1.3830188
    25   6 C       31   6 C                                       1.3884235
    30   6 C       31   6 C                                       1.3829777
    24   6 C       32   8 O                                       1.2106063
    23   7 N       33   6 C                                       1.4363563
    34   6 C       35   8 O                                       1.3297319
    34   6 C       36   8 O                                       1.1974306
    11   6 C       37   7 N                                       1.4602049
    33   6 C       37   7 N                                       1.4361834
    37   7 N       38   6 C                                       1.3611081
    39   6 C       40   6 C                                       1.3914325
    40   6 C       41   6 C                                       1.3825305
    41   6 C       42   6 C                                       1.3838661
    42   6 C       44   6 C                                       1.3833653
    39   6 C       45   6 C                                       1.3887914
    44   6 C       45   6 C                                       1.3830529
    38   6 C       46   8 O                                       1.2103533
     1   6 C       47   1 H                                       1.0799124
     2   6 C       48   1 H                                       1.0803910
     4   6 C       49   1 H                                       1.0806524
     5   6 C       50   1 H                                       1.0801075
     6   6 C       51   1 H                                       1.0801925
     7   6 C       52   1 H                                       1.0809719
     9   6 C       53   1 H                                       1.0819712
    11   6 C       54   1 H                                       1.0974041
    12   6 C       55   1 H                                       1.0969821
    14   6 C       56   1 H                                       1.0799773
    16   6 C       57   1 H                                       1.0802719
    17   6 C       58   1 H                                       1.0801352
    18   6 C       59   1 H                                       1.0802170
    19   6 C       60   1 H                                       1.0807951
    21   6 C       61   1 H                                       1.0807349
    22   6 C       62   1 H                                       1.0800157
    26   6 C       63   1 H                                       1.0807665
    27   6 C       64   1 H                                       1.0784037
    30   6 C       65   1 H                                       1.0780912
    31   6 C       66   1 H                                       1.0778216
    33   6 C       67   1 H                                       1.1001633
    35   8 O       68   1 H                                       0.9721663 (min)
    40   6 C       69   1 H                                       1.0802523
    41   6 C       70   1 H                                       1.0783083
    44   6 C       71   1 H                                       1.0782766
    45   6 C       72   1 H                                       1.0785497

 * 5 distinct bonds (by element types)

   Z      Z             #   av. dist./Å        max./Å        min./Å
   1 H    6 C          25     1.0820546     1.1001633     1.0778216
   6 C    6 C          34     1.3912138     1.4194471     1.3649641
   6 C    7 N           6     1.4192125     1.4619309     1.3594914
   1 H    8 O           1     0.9721663     0.9721663     0.9721663
   6 C    8 O           4     1.2370305     1.3297319     1.1974306


optimized geometry written to: xtbopt.xyz


           -------------------------------------------------
          | TOTAL ENERGY             -126.256371638353 Eh   |
          | GRADIENT NORM               0.000646948026 Eh/α |
          | HOMO-LUMO GAP               2.935511589354 eV   |
           -------------------------------------------------

------------------------------------------------------------------------
 * finished run on 2022/03/17 at 01:10:49.151     
------------------------------------------------------------------------
 total:
 * wall-time:     0 d,  0 h,  0 min, 19.001 sec
 *  cpu-time:     0 d,  0 h,  6 min, 51.508 sec
 * ratio c/w:    21.657 speedup
 SCF:
 * wall-time:     0 d,  0 h,  0 min,  0.565 sec
 *  cpu-time:     0 d,  0 h,  0 min,  9.584 sec
 * ratio c/w:    16.972 speedup
 ANC optimizer:
 * wall-time:     0 d,  0 h,  0 min, 18.299 sec
 *  cpu-time:     0 d,  0 h,  6 min, 37.780 sec
 * ratio c/w:    21.738 speedup

