78
 energy: -117.592202387715 gnorm: 0.096536521132 xtb: 6.3.3 (4ae9cef)
C         2.82791700000000    2.01590800000000    0.46145800000000
C         3.88829200000000    2.67048100000000   -0.16816800000000
C         3.73342000000000    3.14958500000000   -1.46591300000000
C         2.52503800000000    2.96582500000000   -2.13209300000000
C         1.46472800000000    2.30428100000000   -1.50366600000000
C         1.59692700000000    1.82160700000000   -0.19290900000000
C         0.47739600000000    1.15141100000000    0.56864100000000
C        -0.95677100000000    1.70809300000000    0.32524800000000
C        -1.26008400000000    2.95825800000000    1.12858500000000
C        -1.40815100000000    2.93844100000000    2.52426200000000
C        -1.65044200000000    4.11378700000000    3.23702400000000
C        -1.75306100000000    5.33069100000000    2.56216200000000
C        -1.61052300000000    5.36874100000000    1.17882100000000
C        -1.36682100000000    4.19306700000000    0.46746800000000
N        -1.83505900000000    0.57124800000000    0.63096100000000
C        -3.11887900000000    0.52712700000000    0.11769100000000
C        -3.91130800000000   -0.69507700000000    0.36434200000000
C        -3.98897100000000   -1.73600800000000   -0.58489200000000
C        -3.25590900000000   -1.66759100000000   -1.91813700000000
C        -2.40258700000000   -2.91819800000000   -2.17711500000000
C        -4.23398100000000   -1.43642300000000   -3.07041000000000
C        -4.77077700000000   -2.85902500000000   -0.25354000000000
C        -5.42453600000000   -2.94684400000000    0.98209800000000
C        -5.33538800000000   -1.90496800000000    1.90107900000000
C        -4.58375500000000   -0.77341400000000    1.59132000000000
O        -3.61946800000000    1.41866300000000   -0.55833500000000
C        -1.05001800000000   -0.61221800000000    0.96856500000000
C        -1.07053600000000   -0.87353400000000    2.51872300000000
O        -0.10026700000000   -1.70182000000000    2.98003500000000
O        -1.91024200000000   -0.41559700000000    3.27883100000000
N         0.26323100000000   -0.29934600000000    0.41070500000000
C         1.17406000000000   -1.31271500000000    0.22463100000000
C         2.23585400000000   -1.17980900000000   -0.79886000000000
C         1.80915800000000   -0.90847200000000   -2.11279400000000
C         2.72728000000000   -0.86182100000000   -3.15680100000000
C         4.07123500000000   -1.10902200000000   -2.90101500000000
C         4.49856000000000   -1.40497600000000   -1.60436100000000
C         3.59235600000000   -1.45097600000000   -0.52499700000000
C         4.07652500000000   -1.82296400000000    0.87212300000000
C         4.28161100000000   -3.33762400000000    0.97946000000000
C         5.35636400000000   -1.08394900000000    1.28833200000000
O         1.04750200000000   -2.37697800000000    0.83051100000000
H         2.97042500000000    1.66335800000000    1.48313200000000
H         4.82922600000000    2.81638700000000    0.35624500000000
H         4.55653200000000    3.66631800000000   -1.95510900000000
H         2.40635900000000    3.33910700000000   -3.14600800000000
H         0.54769900000000    2.17044300000000   -2.06735900000000
H         0.71282800000000    1.26865400000000    1.63904100000000
H        -1.11778500000000    1.91530600000000   -0.74007800000000
H        -1.33982000000000    2.00846900000000    3.08404100000000
H        -1.77479200000000    4.07239200000000    4.31521100000000
H        -1.94713600000000    6.24518400000000    3.11767600000000
H        -1.69073700000000    6.31488200000000    0.64974800000000
H        -1.25959700000000    4.24984400000000   -0.61306100000000
H        -2.55830800000000   -0.82357900000000   -1.91264700000000
H        -1.73635300000000   -3.12507700000000   -1.33635300000000
H        -1.78070100000000   -2.77851000000000   -3.06573600000000
H        -3.01855800000000   -3.80762500000000   -2.34994800000000
H        -4.95497000000000   -2.25655300000000   -3.16101100000000
H        -3.69860200000000   -1.35626400000000   -4.02522500000000
H        -4.79979500000000   -0.50827200000000   -2.92307100000000
H        -4.87998000000000   -3.68369500000000   -0.95348900000000
H        -6.00905200000000   -3.83236100000000    1.22501100000000
H        -5.83943900000000   -1.97713200000000    2.86638400000000
H        -4.51817100000000    0.04016700000000    2.31230000000000
H        -1.43664800000000   -1.51022000000000    0.48629600000000
H         0.43537800000000   -2.11163400000000    2.25129900000000
H         0.75348400000000   -0.75013800000000   -2.32717200000000
H         2.39524300000000   -0.64858400000000   -4.16821400000000
H         4.78878900000000   -1.09213200000000   -3.71450700000000
H         5.55437400000000   -1.62294700000000   -1.44910500000000
H         3.31863600000000   -1.52652800000000    1.61044300000000
H         5.04370100000000   -3.69535400000000    0.27632000000000
H         4.60326500000000   -3.61321700000000    1.99080400000000
H         3.35556600000000   -3.88156500000000    0.76934600000000
H         5.25127800000000   -0.00351200000000    1.15170200000000
H         6.22699100000000   -1.41002100000000    0.71223300000000
H         5.58075200000000   -1.27343900000000    2.34179000000000
78
 energy: -117.605671041555 gnorm: 0.033694456010 xtb: 6.3.3 (4ae9cef)
C         2.81613568842635    2.00593679694816    0.45385172807512
C         3.86872474918492    2.65835246798159   -0.16971824355984
C         3.71964535692157    3.13539980745300   -1.46130027289647
C         2.51795026006221    2.94676032981762   -2.12216867258975
C         1.46835057134087    2.28267374702333   -1.50048636305291
C         1.59740807585707    1.80365426447307   -0.19850804169108
C         0.47424063741732    1.15033068311070    0.57361301640082
C        -0.95207587385859    1.71011697978114    0.32260769716215
C        -1.25167857944605    2.95816555320340    1.12644162688091
C        -1.40322501525739    2.93219712580719    2.51152400675350
C        -1.65250487829091    4.10022409454714    3.21912032009928
C        -1.75085172827707    5.31332300923118    2.55491271929777
C        -1.60563836227972    5.35107847076409    1.17855845898372
C        -1.35942980636039    4.18369542407285    0.47150704787397
N        -1.82322819518940    0.56756357745165    0.62578170382740
C        -3.08814595413560    0.51645258939327    0.09488926810222
C        -3.87743706475497   -0.71728987865234    0.37179548163320
C        -3.98021935028647   -1.74507911520769   -0.57541856165077
C        -3.25476630886947   -1.66806897592122   -1.90731199442277
C        -2.40562265265810   -2.91823060189751   -2.17084354009845
C        -4.23693510828359   -1.43735898948588   -3.05797359685470
C        -4.76796943709831   -2.84977597092715   -0.25202760195508
C        -5.41945972684466   -2.93727326243812    0.97012531261240
C        -5.32599476425708   -1.90375048080662    1.88704891895420
C        -4.56116333748358   -0.78921994617403    1.58442078283969
O        -3.57617274598681    1.43949209147168   -0.53282419208994
C        -1.04090835789661   -0.60291185683559    0.97934828784813
C        -1.06886406773116   -0.86690095325752    2.51771609140033
O        -0.12223759924194   -1.68540488305155    2.97858096539942
O        -1.88782066848846   -0.38010195366182    3.24720608925945
N         0.27274211228372   -0.30149220473679    0.41252169724067
C         1.18334282440960   -1.30401880586292    0.22601989435670
C         2.24759111096154   -1.14733982740120   -0.79264875962683
C         1.82320330458519   -0.87898733308584   -2.09715471313338
C         2.73001988462758   -0.85940448871844   -3.14064426355106
C         4.06738288187520   -1.11095686850866   -2.88377614761833
C         4.48764949970054   -1.40520217200205   -1.59583307953984
C         3.59334594487580   -1.44240515186618   -0.52471328009737
C         4.07203118025048   -1.81413951840008    0.86742903287947
C         4.27552582283721   -3.32888589824472    0.97120532502370
C         5.35453238852054   -1.08044013651728    1.27456589040162
O         1.03459020316269   -2.38569948102406    0.79888698180346
H         2.95082792847238    1.65802326001418    1.47115536428402
H         4.80356276311638    2.80577927426982    0.35536633418731
H         4.53630363594481    3.65514226727945   -1.94670314215896
H         2.39515184723835    3.32479301429257   -3.12849330795046
H         0.54745346282248    2.15894352165940   -2.05195834513116
H         0.70022378632438    1.29262666545424    1.64435750874924
H        -1.09989433959649    1.93901173698870   -0.74068891493798
H        -1.34908282666389    1.99956703346875    3.05812009393972
H        -1.77068422595215    4.06048955869811    4.29366515920357
H        -1.94368518187413    6.22388629863729    3.10866557737698
H        -1.68832420145991    6.29288772538736    0.65169596672097
H        -1.25790095009985    4.23486764220925   -0.60450201121746
H        -2.57168208743966   -0.81040889214835   -1.88571217664678
H        -1.74118153948998   -3.12695852028104   -1.33240216524394
H        -1.79079081333956   -2.77183020920030   -3.05948451457823
H        -3.02488077536631   -3.79819724238637   -2.34024360324979
H        -4.94958245107792   -2.25779522897304   -3.14292348657429
H        -3.69943796770654   -1.35709448730226   -4.00485431886122
H        -4.79469384371167   -0.51334330581310   -2.90496969927032
H        -4.87131749181683   -3.66745321045209   -0.95232323327033
H        -6.00160513895289   -3.81860548396924    1.20848331090878
H        -5.83368488639714   -1.97067494317329    2.84171853879444
H        -4.49417416475556    0.02540527688249    2.29309312273645
H        -1.43841289460631   -1.50736061191215    0.50373947016472
H         0.39706563361773   -2.11837256914239    2.23995876062058
H         0.77044503833385   -0.73072750863246   -2.30284237555100
H         2.39673278147697   -0.65319680643884   -4.14888577415364
H         4.78461688999008   -1.09216458526070   -3.69334682328481
H         5.53526020436080   -1.61941990488045   -1.43369465711961
H         3.30015627457538   -1.52980663059306    1.59188240926062
H         5.03612480415397   -3.67459244924797    0.26987407399352
H         4.59669577359110   -3.59639757075683    1.97882402990978
H         3.34809352131836   -3.86019657642784    0.76112752549133
H         5.24542157833415   -0.00471582573379    1.14009550037217
H         6.21781003391592   -1.41303867660226    0.69988632420145
H         5.56700890839566   -1.27415329375961    2.32599145760356
78
 energy: -117.609762413431 gnorm: 0.013522846028 xtb: 6.3.3 (4ae9cef)
C         2.80782181689963    1.98814402726639    0.45204097837052
C         3.85605646451304    2.63818683830144   -0.17053761130881
C         3.70785354233372    3.11432783095529   -1.46048588473085
C         2.50830373708409    2.92076731503010   -2.11953804036131
C         1.46335192456749    2.25951960405643   -1.49857987111480
C         1.59518226651587    1.78738625500815   -0.19965848265700
C         0.47282446792295    1.14639236220656    0.57797732986865
C        -0.94424041406671    1.70547551686974    0.31260377650709
C        -1.24517604785840    2.94904203025820    1.11746671630096
C        -1.40220669499631    2.91348367794125    2.49714384554324
C        -1.64935763284725    4.07804403807754    3.20436765518105
C        -1.74467258070763    5.29149124905118    2.54711222169318
C        -1.59848796684303    5.33250495946530    1.17247464903702
C        -1.35060065710848    4.17032972786953    0.46532632050904
N        -1.81234147380074    0.56597409805267    0.62053296179064
C        -3.07034875870279    0.52196104210323    0.09181101936727
C        -3.85047451590812   -0.72652357943262    0.37502771952427
C        -3.96464228528398   -1.74944216371316   -0.56882704696249
C        -3.24448009864145   -1.66521154921851   -1.89760087955690
C        -2.39962382184828   -2.91468115004757   -2.16476406397704
C        -4.23772897322194   -1.43637811464352   -3.04036562860079
C        -4.75492993319506   -2.84710104547164   -0.25316619747158
C        -5.41044114820135   -2.93301686132163    0.96018310310873
C        -5.30947164817068   -1.90370680561724    1.87858012298514
C        -4.53640829025116   -0.79749815374890    1.58094481933683
O        -3.53603763817108    1.46013171514549   -0.51992580148502
C        -1.03570270811245   -0.59440472333040    0.98957790261630
C        -1.05441240335319   -0.83672959097038    2.52577592502769
O        -0.15163025944649   -1.69044560198874    2.96885784950587
O        -1.86885570468474   -0.32515221501123    3.23527162850393
N         0.27918233611914   -0.30344428494616    0.41983191910949
C         1.18271688239801   -1.29870528550390    0.22755933352233
C         2.25284682203763   -1.11854704435258   -0.78213510902165
C         1.83051387531945   -0.84703383785603   -2.08076303124336
C         2.73253109612049   -0.84119016990380   -3.12493701972243
C         4.06677074111406   -1.10276106295805   -2.86912329230090
C         4.48274419129285   -1.39536653578651   -1.58446319093164
C         3.59255554133774   -1.42578550221836   -0.51904753126351
C         4.06307376361477   -1.79984473245693    0.86805110156517
C         4.26524104842563   -3.31614909721846    0.96089595176381
C         5.34697729805430   -1.07013971148414    1.26785033879249
O         1.00974725773638   -2.39780440540491    0.76516716783533
H         2.93329748637513    1.64382373790315    1.46847440894114
H         4.78508501136953    2.79197743745737    0.35786362907095
H         4.51799789085948    3.64035173513149   -1.94289295514973
H         2.38086299624794    3.29970322355356   -3.12222333760000
H         0.54093131226599    2.13013280649836   -2.04266316930004
H         0.69124388122043    1.30788246898742    1.64821471946865
H        -1.08714923950839    1.94869192490268   -0.74786338192513
H        -1.35829858265166    1.97586788742600    3.03059256250519
H        -1.77178026222432    4.03655163755670    4.27629929373067
H        -1.94088357437300    6.19824291360510    3.10075155256436
H        -1.68307760635241    6.27265947861633    0.64784007504893
H        -1.24807162843378    4.21741378807971   -0.60827642913292
H        -2.57291689033867   -0.79801257224034   -1.86652200665439
H        -1.73571079495084   -3.12652084952425   -1.32827290587664
H        -1.79198176040462   -2.76823339154879   -3.05577755436875
H        -3.02882474765209   -3.78500199125736   -2.32792165208478
H        -4.94434944471801   -2.25930723179798   -3.11364820189822
H        -3.70373669763137   -1.35706130650702   -3.98538854137324
H        -4.79167197806402   -0.51564144504448   -2.87849866701972
H        -4.86343472588918   -3.65299326932437   -0.96290157012475
H        -6.00602210769878   -3.80488708454502    1.18809133899399
H        -5.82915351737958   -1.96140699534398    2.82242887923003
H        -4.45577381615524    0.01437457694818    2.28594040722151
H        -1.44146412286148   -1.50627840837100    0.52365621906307
H         0.35137415178296   -2.13446581073406    2.21903641286353
H         0.78085370253154   -0.68271034998887   -2.27430799944311
H         2.39675216817539   -0.64541968551404   -4.13191649355838
H         4.78236683716990   -1.09621779728763   -3.67802108782811
H         5.52335308528776   -1.62183690916424   -1.41632142161499
H         3.28356508632169   -1.52276635545942    1.58435080874543
H         5.02253622313685   -3.65078011024328    0.25562660639879
H         4.58736890549659   -3.58337443410081    1.96482374624034
H         3.33474504069135   -3.83532621085165    0.74835309613293
H         5.23971771931057    0.00264994709400    1.12802871336537
H         6.19903274375925   -1.41332263477421    0.68763376125261
H         5.55919583729916   -1.26486078319039    2.31689646945944
78
 energy: -117.611220843077 gnorm: 0.015183936340 xtb: 6.3.3 (4ae9cef)
C         2.80490364036386    1.97103245175050    0.45369986889906
C         3.85114833795931    2.62014099916896   -0.17157304361897
C         3.70041492995695    3.09292502447838   -1.46287137502015
C         2.50166014628137    2.89345630402339   -2.12278077273371
C         1.45864070704155    2.23307872441826   -1.50000811156376
C         1.59414228323419    1.77036002407049   -0.19880782909907
C         0.47203454670389    1.13950546066441    0.58114296771674
C        -0.93789761645664    1.69752138279989    0.30331669824680
C        -1.24043522448244    2.93893634012937    1.10615790411743
C        -1.40466290110791    2.89381588745829    2.48395643638089
C        -1.65172238889274    4.05580838772364    3.19361695112605
C        -1.74160825747309    5.27174639175461    2.54007891047624
C        -1.59071935991092    5.31916488517747    1.16538697877917
C        -1.34018468259310    4.16023640021128    0.45509903769513
N        -1.80608972626080    0.56288904058892    0.61298361379434
C        -3.06347485645949    0.52905050529812    0.08861215062793
C        -3.83697903642762   -0.72511328570227    0.37496996211782
C        -3.95122142775516   -1.74764655610585   -0.56628752267795
C        -3.23130207728512   -1.65989234899532   -1.89191013861927
C        -2.38873905277613   -2.90902911277625   -2.16142202430491
C        -4.23559376767783   -1.43335633626893   -3.02567633542090
C        -4.74510875862978   -2.84353015222878   -0.25603919664222
C        -5.40740954604094   -2.92676273268674    0.95329591861311
C        -5.29596054569634   -1.90190684549133    1.87674633107217
C        -4.51423064050928   -0.80042257397390    1.58452592072287
O        -3.51936039510459    1.47907503076157   -0.51050394951883
C        -1.03774257079041   -0.59326937389777    0.99517762472052
C        -1.05786547312035   -0.83634516561544    2.52986139540622
O        -0.16416368804415   -1.69669409087585    2.96064500287790
O        -1.83157868174604   -0.25742349979527    3.24454749087690
N         0.28019572724723   -0.30798534897297    0.43169080944555
C         1.17478580077603   -1.30060703255617    0.22728249252904
C         2.25115435399646   -1.09965026104538   -0.77267545688449
C         1.83140448425264   -0.81450741314544   -2.06843030335579
C         2.73274006139253   -0.81517219315965   -3.11330164057344
C         4.06489293263288   -1.09220264075628   -2.86027322979124
C         4.47970471580828   -1.38403602472328   -1.57555181178476
C         3.58873013833089   -1.40855815314136   -0.51167353790964
C         4.05323046903683   -1.78384629827155    0.87318228175517
C         4.25221177221700   -3.30171580059169    0.95397131378284
C         5.33889930081561   -1.05689728398551    1.26854355775160
O         0.98885189809162   -2.41034252447823    0.74037231622616
H         2.92494704713271    1.62745476862144    1.47068127221951
H         4.77912232470066    2.77605202274850    0.35700069511393
H         4.50738108527029    3.62092031522333   -1.94616672650452
H         2.37165619809420    3.26831379106282   -3.12621694363030
H         0.53451792110171    2.09699260952056   -2.03931482158575
H         0.68455806301552    1.31263916032324    1.65076077972744
H        -1.07711747793961    1.94298514079754   -0.75637225309819
H        -1.37003067357113    1.95083025975679    3.00735223076367
H        -1.77762652645262    4.01055264884102    4.26478396673520
H        -1.93750314167209    6.17614664851757    3.09605212185771
H        -1.67452685282677    6.26040354328110    0.64355523142323
H        -1.23330570230165    4.20563389545312   -0.61793587285315
H        -2.56494413980841   -0.78919271739152   -1.85986080576345
H        -1.72266231220687   -3.12196784058035   -1.32718385709258
H        -1.78580029131118   -2.76623446398129   -3.05532378399206
H        -3.02430678447410   -3.77554285597415   -2.31820724381352
H        -4.94014544086655   -2.25863354366246   -3.08630304020721
H        -3.71136980103580   -1.35432728163339   -3.97518340625783
H        -4.78901711437806   -0.51450236314984   -2.85454309881685
H        -4.85317374168266   -3.64433615492243   -0.97141953954771
H        -6.01343796419106   -3.79280938766845    1.17430165896516
H        -5.82017066672584   -1.95648802719153    2.81716234075651
H        -4.42051152190442    0.00819487976733    2.29127174900911
H        -1.44581310813787   -1.50843424988615    0.53576704818020
H         0.31054586210683   -2.16214530866812    2.20094420849516
H         0.78344895668242   -0.63309407966531   -2.25479380685240
H         2.39630901902806   -0.61861452926021   -4.11905609177885
H         4.77961935572222   -1.09510186626816   -3.66945905219651
H         5.51769739754172   -1.61868902248978   -1.40319225028399
H         3.27126758539663   -1.51001298822544    1.58735644952866
H         5.00519764935759   -3.62849583993888    0.24126604955427
H         4.57687925266175   -3.57719356805081    1.95398417290414
H         3.31838431599524   -3.81239157353519    0.73765688061467
H         5.23475874566634    0.01489125456292    1.12134747178823
H         6.18408909113593   -1.40782662182684    0.68355842348061
H         5.55538981997859   -1.24780984574337    2.31665118691886
78
 energy: -117.612172257907 gnorm: 0.011330981940 xtb: 6.3.3 (4ae9cef)
C         2.80605144513630    1.95468298584546    0.45487956285864
C         3.85185118270552    2.60065200162698   -0.17559974585398
C         3.69779277924417    3.06703679023515   -1.46953150314175
C         2.49954737432235    2.86223030894188   -2.13046002786829
C         1.45677259358636    2.20527151949444   -1.50343921262580
C         1.59517717251511    1.75414320793120   -0.19776369673159
C         0.47198898422918    1.13365015782498    0.58367881105274
C        -0.93305311844322    1.68943230179755    0.29355349870049
C        -1.23802939602165    2.93026272623589    1.09254266292699
C        -1.41110212518454    2.87588206379651    2.46932953293399
C        -1.65779208037177    4.03526619708729    3.18285323549996
C        -1.73938893048511    5.25423346816898    2.53231484571785
C        -1.58133036966364    5.30935197712073    1.15772553901628
C        -1.32885300896131    4.15321775134432    0.44282636174432
N        -1.80210898014805    0.55958463108549    0.60510932252935
C        -3.06268723262338    0.53595673432642    0.08908838049388
C        -3.82990432485436   -0.71999361416010    0.37641804219295
C        -3.93837497802698   -1.74350172506315   -0.56324587011561
C        -3.21790345948866   -1.65326989963832   -1.88719786066356
C        -2.37519290580840   -2.90130480390495   -2.15896445847737
C        -4.23217622826974   -1.42870709500375   -3.01230163199129
C        -4.73556686411890   -2.83942678345794   -0.25706156073191
C        -5.40457223952975   -2.91991667912522    0.94985773168355
C        -5.28360165681232   -1.90022697831300    1.87948987295964
C        -4.49619971942860   -0.80105456546239    1.59240913689208
O        -3.51421116462920    1.49244041045603   -0.50253339268752
C        -1.04061236526611   -0.59284515065974    1.00180915189701
C        -1.04151897907174   -0.81795937408742    2.54071789138366
O        -0.19528335879686   -1.74177773174240    2.94873951025863
O        -1.79703619176094   -0.22067477008503    3.25772736313540
N         0.27985029067623   -0.31187400918910    0.44748215686856
C         1.16371168099251   -1.30518988741484    0.22601062475511
C         2.24502293933483   -1.08628286227121   -0.76506006890115
C         1.82839349628342   -0.78258219818677   -2.05884172282135
C         2.73098647187358   -0.78208554098166   -3.10294343579578
C         4.06100592586834   -1.07528645186318   -2.85277199777622
C         4.47544234354954   -1.36922626113676   -1.56781121648451
C         3.58195854459171   -1.39167586744546   -0.50445519039939
C         4.04244417489512   -1.76688241609439    0.87997425921397
C         4.23672094442322   -3.28597496434147    0.94993804463790
C         5.32951644420886   -1.04163977314427    1.27330257583170
O         0.96636329339138   -2.42392000044541    0.71521818970440
H         2.92226245871182    1.61237773292310    1.47321715838175
H         4.78051504452271    2.75811114986127    0.35163254405757
H         4.50305203286860    3.59473201605960   -1.95572639774538
H         2.36864564153930    3.22900389726375   -3.13707003101170
H         0.53176403240788    2.06116721098960   -2.03964123293816
H         0.67921552719036    1.31598344304525    1.65252158133170
H        -1.06845257293616    1.93042069735015   -0.76696280342395
H        -1.38567370496791    1.92783120078904    2.98393205860558
H        -1.78936812161511    3.98476443856021    4.25346038327849
H        -1.93473594994774    6.15661593765713    3.09162278031990
H        -1.66116178353206    6.25317180600535    0.63962767121113
H        -1.21362151808215    4.19860942045218   -0.62984424177363
H        -2.55373584792071   -0.78158313536947   -1.85755520124070
H        -1.70430888871220   -3.11276216729136   -1.32790979594472
H        -1.77677182997247   -2.76208356962159   -3.05633966866239
H        -3.01260117969883   -3.76818632454168   -2.30929509195767
H        -4.93636606053561   -2.25560581011244   -3.06132010553091
H        -3.72061521358852   -1.34925641054431   -3.96880858158670
H        -4.78595618389174   -0.51106643520155   -2.83251794067072
H        -4.84122562654052   -3.63800204856388   -0.97577498998665
H        -6.02125927498392   -3.78046695307956    1.16427711725043
H        -5.80724432153483   -1.95596375316728    2.82032451985593
H        -4.38979801567177    0.00317987485363    2.30359770570932
H        -1.44492918420624   -1.51338545408149    0.54964577156632
H         0.27537044219907   -2.19172147024445    2.17966692694949
H         0.78200858660466   -0.58604280819234   -2.24138990721911
H         2.39575296546171   -0.57540339231395   -4.10696967464587
H         4.77492394364358   -1.08690307840080   -3.66268672265931
H         5.51239600853029   -1.60922628359074   -1.39265063314336
H         3.26002556817968   -1.49385181763504    1.59422537354491
H         4.98445660750181   -3.60749194765110    0.22880766034238
H         4.56454011987559   -3.57325182447343    1.94572606222143
H         3.29917976754452   -3.78927050464935    0.73043042682558
H         5.22843228238829    0.02979257433496    1.11807935207000
H         6.17168043683841   -1.39840283889022    0.68689699870179
H         5.54950740826759   -1.22585220263061    2.32175621609525
78
 energy: -117.612824434642 gnorm: 0.008201062716 xtb: 6.3.3 (4ae9cef)
C         2.81058202032600    1.94411941847055    0.45416276236421
C         3.85765332202302    2.58395955023883   -0.18228015174640
C         3.70200071233359    3.04208072221709   -1.47910472642685
C         2.50362820703549    2.83517777136759   -2.13940584890338
C         1.45915760944548    2.18594772149027   -1.50621290497277
C         1.59799521641657    1.74380080204449   -0.19656070391905
C         0.47308524377079    1.12874024179310    0.58587936530117
C        -0.93096908238189    1.68296176243588    0.28860042814834
C        -1.23826218819319    2.92595547961116    1.08232867562615
C        -1.42050626805399    2.86742121208981    2.45822584912846
C        -1.66632623024233    4.02513116272903    3.17462967140397
C        -1.73844075482100    5.24589255789910    2.52560596765150
C        -1.57169840424546    5.30569712851587    1.15202131031948
C        -1.31894081007882    4.15079339704264    0.43394728809303
N        -1.80162362664585    0.55569483671512    0.60261284730966
C        -3.06691707744254    0.53937590989672    0.09552152115241
C        -3.83082033711115   -0.71495790244979    0.38070453050956
C        -3.93157343929937   -1.73921764631780   -0.55940117752947
C        -3.21049821767598   -1.64726832491549   -1.88380323008292
C        -2.36416263472646   -2.89278069355386   -2.15755021969585
C        -4.22929788121982   -1.42297817174574   -3.00430602051184
C        -4.72895399946489   -2.83667738530715   -0.25455364472847
C        -5.40031848299126   -2.91662330670276    0.95178991147202
C        -5.27599605208991   -1.90116550298671    1.88593433812771
C        -4.49006800198114   -0.80067807416928    1.60121650980322
O        -3.51840780290786    1.49515785524360   -0.49630204579414
C        -1.04485479293662   -0.59716514819306    1.00482866602648
C        -1.04309116992283   -0.83037011673614    2.54402801575121
O        -0.21170023575722   -1.77359034988270    2.93758314912050
O        -1.76507847060310   -0.21213299060779    3.27685640097960
N         0.27915933914736   -0.31646869818181    0.46131201932160
C         1.15479609870348   -1.31231052860990    0.22198168716789
C         2.23774553706789   -1.08280943432719   -0.76384579416700
C         1.82338119839298   -0.76552159743165   -2.05637396558117
C         2.72873658966710   -0.75234846479888   -3.09752289880980
C         4.05737465701775   -1.05277640362457   -2.84817952697159
C         4.47142238378420   -1.35255581378945   -1.56399991550777
C         3.57534893935238   -1.37989752869291   -0.50132617419186
C         4.03414308076503   -1.75484653626002    0.88449421217928
C         4.22322291229210   -3.27426581970783    0.95038639888143
C         5.32098000123339   -1.02964601318308    1.27981425602840
O         0.95299447627703   -2.43500277217571    0.69662337243650
H         2.92593047205304    1.60531509956215    1.47425186632714
H         4.78783306382412    2.74277763660021    0.34266076131403
H         4.50769954299120    3.56626130480140   -1.96944141063611
H         2.37392485094532    3.19212669619663   -3.15020183423165
H         0.53465112470092    2.03605646079624   -2.04188505282234
H         0.67719804303615    1.31689629238187    1.65409602477073
H        -1.06340289890620    1.91647222707853   -0.77398679991009
H        -1.40111466142022    1.91738628242885    2.96882454622591
H        -1.80580006287280    3.97028831302508    4.24437910218307