      -----------------------------------------------------------      
     |                   =====================                   |     
     |                           x T B                           |     
     |                   =====================                   |     
     |                         S. Grimme                         |     
     |          Mulliken Center for Theoretical Chemistry        |     
     |                    University of Bonn                     |     
      -----------------------------------------------------------      

   * xtb version 6.3.3 (4ae9cef) compiled by 'conda@95abc7406d43' on 2020-10-14

   xtb is free software: you can redistribute it and/or modify it under
   the terms of the GNU Lesser General Public License as published by
   the Free Software Foundation, either version 3 of the License, or
   (at your option) any later version.
   
   xtb is distributed in the hope that it will be useful,
   but WITHOUT ANY WARRANTY; without even the implied warranty of
   MERCHANTABILITY or FITNESS FOR A PARTICULAR PURPOSE.  See the
   GNU Lesser General Public License for more details.
   
   Cite this work as:
   * C. Bannwarth, E. Caldeweyher, S. Ehlert, A. Hansen, P. Pracht,
     J. Seibert, S. Spicher, S. Grimme, WIREs Comput. Mol. Sci., 2020,
     e01493. DOI: 10.1002/wcms.1493
   
   for GFN2-xTB:
   * S. Grimme, C. Bannwarth, P. Shushkov, J. Chem. Theory Comput., 2017,
     13, 1989-2009. DOI: 10.1021/acs.jctc.7b00118
   for GFN1-xTB:
   * C. Bannwarth, S. Ehlert and S. Grimme., J. Chem. Theory Comput., 2019,
     15, 1652-1671. DOI: 10.1021/acs.jctc.8b01176
   for GFN0-xTB:
   * P. Pracht, E. Caldeweyher, S. Ehlert, S. Grimme, ChemRxiv, 2019, preprint.
     DOI: 10.26434/chemrxiv.8326202.v1
   for GFN-FF:
   * S. Spicher and S. Grimme, Angew. Chem. Int. Ed., 2020, 59, 15665-15673.
     DOI: 10.1002/anie.202004239
   
   for DFT-D4:
   * E. Caldeweyher, C. Bannwarth and S. Grimme, J. Chem. Phys., 2017,
     147, 034112. DOI: 10.1063/1.4993215
   * E. Caldeweyher, S. Ehlert, A. Hansen, H. Neugebauer, S. Spicher,
     C. Bannwarth and S. Grimme, J. Chem. Phys., 2019, 150, 154122.
     DOI: 10.1063/1.5090222
   * E. Caldeweyher, J.-M. Mewes, S. Ehlert and S. Grimme, Phys. Chem. Chem. Phys.
     2020, 22, 8499-8512. DOI: 10.1039/D0CP00502A
   
   for sTDA-xTB:
   * S. Grimme and C. Bannwarth, J. Chem. Phys., 2016, 145, 054103.
     DOI: 10.1063/1.4959605
   
   in the mass-spec context:
   * V. Asgeirsson, C. Bauer and S. Grimme, Chem. Sci., 2017, 8, 4879.
     DOI: 10.1039/c7sc00601b
   * J. Koopman and S. Grimme, ACS Omega 2019, 4, 12, 15120-15133.
     DOI: 10.1021/acsomega.9b02011
   
   for metadynamics refer to:
   * S. Grimme, J. Chem. Theory Comput., 2019, 155, 2847-2862
     DOI: 10.1021/acs.jctc.9b00143
   
   with help from (in alphabetical order)
   C. Bannwarth, F. Bohle, G. Brandenburg, E. Caldeweyher, M. Checinski,
   S. Dohm, S. Ehlert, S. Ehrlich, F. März, H. Neugebauer, J. Pisarek,
   P. Pracht, P. Shushkov, and S. Spicher.
   
 * started run on 2022/03/17 at 02:19:30.211     

           -------------------------------------------------
          |                Calculation Setup                |
           -------------------------------------------------

          program call               : xtb alk_3.xyz --opt --chrg 0 --uhf 0 --gfn 2
          coordinate file            : alk_3.xyz
          omp threads                :                    64
          number of atoms            :                    22
          number of electrons        :                    52
          charge                     :                     0
          spin                       :                   0.0
          first test random number   :      0.58991843099247

   ID    Z sym.   atoms
    1    6 C      1-10
    2    1 H      11-22

           -------------------------------------------------
          |                 G F N 2 - x T B                 |
           -------------------------------------------------

        Reference                      10.1021/acs.jctc.8b01176
      * Hamiltonian:
        H0-scaling (s, p, d)           1.850000    2.230000    2.230000
        zeta-weighting                 0.500000
      * Dispersion:
        s8                             2.700000
        a1                             0.520000
        a2                             5.000000
        s9                             5.000000
      * Repulsion:
        kExp                           1.500000    1.000000
        rExp                           1.000000
      * Coulomb:
        alpha                          2.000000
        third order                    shell-resolved
        anisotropic                    true
        a3                             3.000000
        a5                             4.000000
        cn-shift                       1.200000
        cn-exp                         4.000000
        max-rad                        5.000000


          ...................................................
          :                      SETUP                      :
          :.................................................:
          :  # basis functions                  52          :
          :  # atomic orbitals                  52          :
          :  # shells                           32          :
          :  # electrons                        52          :
          :  max. iterations                   250          :
          :  Hamiltonian                  GFN2-xTB          :
          :  restarted?                      false          :
          :  GBSA solvation                  false          :
          :  PC potential                    false          :
          :  electronic temp.          300.0000000     K    :
          :  accuracy                    1.0000000          :
          :  -> integral cutoff          0.2500000E+02      :
          :  -> integral neglect         0.1000000E-07      :
          :  -> SCF convergence          0.1000000E-05 Eh   :
          :  -> wf. convergence          0.1000000E-03 e    :
          :  Broyden damping             0.4000000          :
          ...................................................

 iter      E             dE          RMSdq      gap      omega  full diag
   1    -27.9336730 -0.279337E+02  0.409E+00    4.55       0.0  T
   2    -27.9646940 -0.310210E-01  0.245E+00    4.57       1.0  T
   3    -27.9554897  0.920429E-02  0.104E+00    4.53       1.0  T
   4    -27.9650213 -0.953161E-02  0.475E-01    4.53       1.0  T
   5    -27.9679910 -0.296967E-02  0.762E-02    4.54       1.0  T
   6    -27.9680449 -0.539099E-04  0.392E-02    4.54       1.0  T
   7    -27.9680489 -0.396680E-05  0.149E-02    4.54       1.4  T
   8    -27.9680499 -0.105721E-05  0.280E-03    4.54       7.6  T
   9    -27.9680500 -0.934210E-07  0.107E-03    4.54      19.9  T
  10    -27.9680500 -0.684663E-08  0.432E-04    4.54      49.3  T
  11    -27.9680500 -0.125766E-10  0.132E-04    4.54     161.6  T

   *** convergence criteria satisfied after 11 iterations ***

         #    Occupation            Energy/Eh            Energy/eV
      -------------------------------------------------------------
         1        2.0000           -0.6387161             -17.3803
       ...           ...                  ...                  ...
        20        2.0000           -0.4356916             -11.8558
        21        2.0000           -0.4311520             -11.7322
        22        2.0000           -0.4179468             -11.3729
        23        2.0000           -0.4165222             -11.3341
        24        2.0000           -0.4010539             -10.9132
        25        2.0000           -0.3982944             -10.8381
        26        2.0000           -0.3889995             -10.5852 (HOMO)
        27                         -0.2221349              -6.0446 (LUMO)
        28                         -0.2215675              -6.0292
        29                         -0.2046307              -5.5683
        30                         -0.0962146              -2.6181
        31                          0.0784638               2.1351
       ...                                ...                  ...
        52                          0.6352501              17.2860
      -------------------------------------------------------------
                  HL-Gap            0.1668646 Eh            4.5406 eV
             Fermi-level           -0.3055672 Eh           -8.3149 eV

 SCC (total)                   0 d,  0 h,  0 min,  0.220 sec
 SCC setup                      ...        0 min,  0.021 sec (  9.768%)
 Dispersion                     ...        0 min,  0.017 sec (  7.951%)
 classical contributions        ...        0 min,  0.017 sec (  7.689%)
 integral evaluation            ...        0 min,  0.030 sec ( 13.592%)
 iterations                     ...        0 min,  0.008 sec (  3.803%)
 molecular gradient             ...        0 min,  0.126 sec ( 57.099%)
 printout                       ...        0 min,  0.000 sec (  0.064%)

         :::::::::::::::::::::::::::::::::::::::::::::::::::::
         ::                     SUMMARY                     ::
         :::::::::::::::::::::::::::::::::::::::::::::::::::::
         :: total energy             -27.483055322547 Eh    ::
         :: gradient norm              0.039028348394 Eh/a0 ::
         :: HOMO-LUMO gap              4.540615854055 eV    ::
         ::.................................................::
         :: SCC energy               -27.968050035473 Eh    ::
         :: -> isotropic ES            0.002524624656 Eh    ::
         :: -> anisotropic ES          0.005530578000 Eh    ::
         :: -> anisotropic XC          0.021281608769 Eh    ::
         :: -> dispersion             -0.016966082489 Eh    ::
         :: repulsion energy           0.485012540897 Eh    ::
         :: add. restraining           0.000000000000 Eh    ::
         :: total charge               0.000000000000 e     ::
         :::::::::::::::::::::::::::::::::::::::::::::::::::::

      ----------------------------------------------------------- 
     |                   =====================                   |
     |                        A N C O P T                        |
     |                   =====================                   |
     |               Approximate Normal Coordinate               |
     |                Rational Function Optimizer                |
      ----------------------------------------------------------- 

          ...................................................
          :                      SETUP                      :
          :.................................................:
          :   optimization level            normal          :
          :   max. optcycles                   200          :
          :   ANC micro-cycles                  20          :
          :   degrees of freedom                60          :
          :.................................................:
          :   RF solver                   davidson          :
          :   write xtbopt.log                true          :
          :   linear?                        false          :
          :   energy convergence         0.5000000E-05 Eh   :
          :   grad. convergence          0.1000000E-02 Eh/α :
          :   maximium RF displ.         1.0000000          :
          :   Hlow (freq-cutoff)         0.1000000E-01      :
          :   Hmax (freq-cutoff)         5.0000000          :
          :   S6 in model hess.         20.0000000          :
          ...................................................

generating ANC from model Hessian ...
Using Lindh-Hessian (1995)
 Shifting diagonal of input Hessian by    8.7335023219232578E-003
 Lowest  eigenvalues of input Hessian
    0.000000    0.000000    0.000000    0.000000    0.000000    0.000000
    0.010000    0.010129    0.010842    0.013921    0.015599    0.018861
    0.022671    0.024910    0.026739    0.030023    0.033210    0.035178
 Highest eigenvalues
    1.529070    1.557403    1.832486    1.858186    1.930746    1.945184


........................................................................
.............................. CYCLE    1 ..............................
........................................................................
   1    -27.9680500 -0.279681E+02  0.605E-05    4.54       0.0  T
   2    -27.9680500 -0.134115E-10  0.359E-05    4.54     593.1  T
   3    -27.9680500 -0.820322E-11  0.239E-05    4.54     891.6  T
     SCC iter.                  ...        0 min,  0.003 sec
     gradient                   ...        0 min,  0.100 sec
 * total energy  :   -27.4830553 Eh     change       -0.2929070E-09 Eh
   gradient norm :     0.0390281 Eh/α   predicted     0.0000000E+00 (-100.00%)
   displ. norm   :     0.1471164 α      lambda       -0.3364060E-02
   maximum displ.:     0.0581700 α      in ANC's #36, #6, #21, ...

........................................................................
.............................. CYCLE    2 ..............................
........................................................................
   1    -27.9956365 -0.279956E+02  0.140E-01    4.63       0.0  T
   2    -27.9956424 -0.587750E-05  0.827E-02    4.63       1.0  T
   3    -27.9956375  0.488149E-05  0.200E-02    4.63       1.1  T
   4    -27.9956431 -0.556724E-05  0.558E-03    4.63       3.8  T
   5    -27.9956436 -0.503360E-06  0.205E-03    4.63      10.4  T
   6    -27.9956436 -0.194819E-08  0.913E-04    4.63      23.4  T
   7    -27.9956436 -0.111453E-07  0.173E-04    4.63     123.0  T
     SCC iter.                  ...        0 min,  0.009 sec
     gradient                   ...        0 min,  0.152 sec
 * total energy  :   -27.4850738 Eh     change       -0.2018508E-02 Eh
   gradient norm :     0.0096647 Eh/α   predicted    -0.1718443E-02 ( -14.87%)
   displ. norm   :     0.0833156 α      lambda       -0.2852584E-03
   maximum displ.:     0.0441564 α      in ANC's #6, #5, #8, ...

........................................................................
.............................. CYCLE    3 ..............................
........................................................................
   1    -28.0024444 -0.280024E+02  0.477E-02    4.64       0.0  T
   2    -28.0024450 -0.597037E-06  0.287E-02    4.64       1.0  T
   3    -28.0024420  0.296615E-05  0.145E-02    4.64       1.5  T
   4    -28.0024455 -0.347865E-05  0.144E-03    4.64      14.8  T
   5    -28.0024456 -0.293516E-07  0.615E-04    4.64      34.6  T
   6    -28.0024456 -0.264592E-08  0.306E-04    4.64      69.8  T
     SCC iter.                  ...        0 min,  0.010 sec
     gradient                   ...        0 min,  0.137 sec
 * total energy  :   -27.4852421 Eh     change       -0.1682220E-03 Eh
   gradient norm :     0.0031303 Eh/α   predicted    -0.1436240E-03 ( -14.62%)
   displ. norm   :     0.0554745 α      lambda       -0.4941731E-04
   maximum displ.:     0.0331487 α      in ANC's #5, #6, #2, ...

........................................................................
.............................. CYCLE    4 ..............................
........................................................................
   1    -28.0029401 -0.280029E+02  0.268E-02    4.63       0.0  T
   2    -28.0029402 -0.101509E-06  0.159E-02    4.63       1.3  T
   3    -28.0029397  0.506882E-06  0.571E-03    4.63       3.7  T
   4    -28.0029403 -0.580911E-06  0.683E-04    4.63      31.2  T
   5    -28.0029403 -0.459641E-08  0.329E-04    4.63      64.8  T
     SCC iter.                  ...        0 min,  0.005 sec
     gradient                   ...        0 min,  0.128 sec
 * total energy  :   -27.4852721 Eh     change       -0.3005368E-04 Eh
   gradient norm :     0.0014025 Eh/α   predicted    -0.2478759E-04 ( -17.52%)
   displ. norm   :     0.0704565 α      lambda       -0.2174870E-04
   maximum displ.:     0.0370419 α      in ANC's #2, #5, #3, ...

........................................................................
.............................. CYCLE    5 ..............................
........................................................................
   1    -28.0020746 -0.280021E+02  0.327E-02    4.62       0.0  T
   2    -28.0020747 -0.853280E-07  0.194E-02    4.62       1.1  T
   3    -28.0020743  0.419410E-06  0.515E-03    4.62       4.1  T
   4    -28.0020748 -0.482225E-06  0.732E-04    4.62      29.1  T
   5    -28.0020748 -0.296784E-08  0.382E-04    4.62      55.8  T
     SCC iter.                  ...        0 min,  0.004 sec
     gradient                   ...        0 min,  0.143 sec
 * total energy  :   -27.4852763 Eh     change       -0.4213622E-05 Eh
   gradient norm :     0.0019974 Eh/α   predicted    -0.1090748E-04 ( 158.86%)
   displ. norm   :     0.0211644 α      lambda       -0.1316055E-04
   maximum displ.:     0.0098696 α      in ANC's #13, #3, #6, ...

........................................................................
.............................. CYCLE    6 ..............................
........................................................................
   1    -28.0017938 -0.280018E+02  0.161E-02    4.63       0.0  T
   2    -28.0017938 -0.227784E-07  0.965E-03    4.63       2.2  T
   3    -28.0017936  0.186205E-06  0.341E-03    4.63       6.3  T
   4    -28.0017939 -0.210193E-06  0.313E-04    4.63      68.0  T
   5    -28.0017939 -0.530090E-09  0.167E-04    4.63     127.6  T
     SCC iter.                  ...        0 min,  0.004 sec
     gradient                   ...        0 min,  0.124 sec
 * total energy  :   -27.4852870 Eh     change       -0.1065841E-04 Eh
   gradient norm :     0.0007509 Eh/α   predicted    -0.6584696E-05 ( -38.22%)
   displ. norm   :     0.0227001 α      lambda       -0.3534111E-05
   maximum displ.:     0.0132867 α      in ANC's #2, #3, #1, ...

........................................................................
.............................. CYCLE    7 ..............................
........................................................................
   1    -28.0021509 -0.280022E+02  0.131E-02    4.63       0.0  T
   2    -28.0021509 -0.821879E-08  0.775E-03    4.63       2.8  T
   3    -28.0021509  0.264251E-07  0.134E-03    4.63      16.0  T
   4    -28.0021509 -0.312125E-07  0.201E-04    4.63     105.8  T
   5    -28.0021509 -0.210740E-09  0.977E-05    4.63     218.2  T
     SCC iter.                  ...        0 min,  0.004 sec
     gradient                   ...        0 min,  0.153 sec
 * total energy  :   -27.4852905 Eh     change       -0.3512209E-05 Eh
   gradient norm :     0.0002621 Eh/α   predicted    -0.1768642E-05 ( -49.64%)
   displ. norm   :     0.0330382 α      lambda       -0.2239019E-05
   maximum displ.:     0.0213603 α      in ANC's #2, #3, #1, ...

   *** GEOMETRY OPTIMIZATION CONVERGED AFTER 7 ITERATIONS ***

------------------------------------------------------------------------
 total energy gain   :        -0.0022352 Eh       -1.4026 kcal/mol
 total RMSD          :         0.0650769 a0        0.0344 Å
 total power (kW/mol):        -0.8383475 (step)   -3.8386 (real)
------------------------------------------------------------------------

 ANCopt (total)                0 d,  0 h,  0 min,  1.529 sec
 optimizer setup                ...        0 min,  0.000 sec (  0.003%)
 model hessian                  ...        0 min,  0.004 sec (  0.245%)
 ANC generation                 ...        0 min,  0.001 sec (  0.048%)
 coordinate transformation      ...        0 min,  0.000 sec (  0.004%)
 single point calculation       ...        0 min,  1.427 sec ( 93.344%)
 optimization log               ...        0 min,  0.000 sec (  0.030%)
 hessian update                 ...        0 min,  0.096 sec (  6.269%)
 rational function              ...        0 min,  0.000 sec (  0.028%)

================
 final structure:
================
22
 xtb: 6.3.3 (4ae9cef)
C         3.91331623529703   -0.75601259580475   -0.12815085906461
C         3.01919943148698    0.20331442001209    0.01715325574727
C         1.58054234808611   -0.02079580864764    0.35303249505790
C         0.66759352850777    0.48394384087355   -0.77843464917239
C        -0.77600411145877    0.27076740564394   -0.42745092278828
C        -1.41670782769238   -0.91669460774702   -0.75748665095448
C        -2.73819489198259   -1.12756075355166   -0.40672578400998
C        -3.43746770383039   -0.15234377244626    0.28338804346063
C        -2.80715845602437    1.03275314373987    0.62160617266950
C        -1.48552735034401    1.24054984774328    0.26952800511429
H         3.65619761434486   -1.79419404790777    0.00617458563810
H         4.93945264100626   -0.54903113941419   -0.38068718653774
H         3.30299719908487    1.23834106590957   -0.12699805612692
H         1.33074870602749    0.51961035413248    1.27077346347689
H         1.39445964162639   -1.08290568822288    0.52329298290159
H         0.85902808258921    1.54655832813895   -0.94341770703679
H         0.91438073800857   -0.05480567962607   -1.69579971272314
H        -0.87530041224702   -1.67992511965999   -1.29883476110264
H        -3.22475052704867   -2.05450427785451   -0.67421048873695
H        -4.47024165306025   -0.31456569376684    0.55510946293829
H        -3.34762387393138    1.79830128716787    1.15953214801665
H        -0.99893835844572    2.16920149128800    0.53372416323275

 Bond Distances (Angstroems)
 ---------------------------
C1-C2=1.3194         C1-H11=1.0779        C1-H12=1.0768        C2-C1=1.3194         C2-C3=1.4942         C2-H13=1.0829        
C3-C2=1.4942         C3-C4=1.5390         C3-H14=1.0939        C3-H15=1.0916        C4-C3=1.5390         C4-C5=1.5009         
C4-H16=1.0923        C4-H17=1.0921        C5-C4=1.5009         C5-C6=1.3891         C5-C10=1.3891        C6-C5=1.3891         
C6-C7=1.3834         C6-H18=1.0811        C7-C6=1.3834         C7-C8=1.3843         C7-H19=1.0805        C8-C7=1.3843         
C8-C9=1.3842         C8-H20=1.0802        C9-C8=1.3842         C9-C10=1.3834        C9-H21=1.0805        C10-C5=1.3891        
C10-C9=1.3834        C10-H22=1.0812       H11-C1=1.0779        H12-C1=1.0768        H13-C2=1.0829        H14-C3=1.0939        
H15-C3=1.0916        H16-C4=1.0923        H17-C4=1.0921        H18-C6=1.0811        H19-C7=1.0805        H20-C8=1.0802        
H21-C9=1.0805        H22-C10=1.0812       
 C  H  Rav=1.0843 sigma=0.0060  Rmin=1.0768  Rmax=1.0939    12
 C  C  Rav=1.4167 sigma=0.0658  Rmin=1.3194  Rmax=1.5390    10

 selected bond angles (degree)
 --------------------
H11-C1-C2=121.66               H12-C1-C2=122.13               H12-C1-H11=116.21              C3-C2-C1=124.62                
H13-C2-C1=120.18               H13-C2-C3=115.19               C4-C3-C2=110.90                H14-C3-C2=109.53               
H14-C3-C4=108.62               H15-C3-C2=110.19               H15-C3-C4=109.43               H15-C3-H14=108.11              
C5-C4-C3=110.61                H16-C4-C3=109.04               H16-C4-C5=110.00               H17-C4-C3=108.77               
H17-C4-C5=110.10               H17-C4-H16=108.27              C6-C5-C4=120.63                C10-C5-C4=120.63               
C10-C5-C6=118.71               C7-C6-C5=120.71                H18-C6-C5=119.44               H18-C6-C7=119.85               
C8-C7-C6=120.10                H19-C7-C6=119.88               H19-C7-C8=120.02               C9-C8-C7=119.66                
H20-C8-C7=120.17               H20-C8-C9=120.16               C10-C9-C8=120.09               H21-C9-C8=120.03               
H21-C9-C10=119.88              C9-C10-C5=120.72               H22-C10-C5=119.50              H22-C10-C9=119.79              

 selected dihedral angles (degree)
 ---------------------------------
C3-C2-C1-H11=358.99           C3-C2-C1-H12=179.37           H13-C2-C1-H11=180.22          H13-C2-C1-H12=  0.61          
C4-C3-C2-C1=242.34            C4-C3-C2-H13= 61.17           H14-C3-C2-C1=122.47           H14-C3-C2-H13=301.29          
H15-C3-C2-C1=  3.66           H15-C3-C2-H13=182.48          C5-C4-C3-C2=180.68            C5-C4-C3-H14=301.09           
C5-C4-C3-H15= 58.91           H16-C4-C3-C2=301.77           H16-C4-C3-H14= 62.19          H16-C4-C3-H15=180.01          
H17-C4-C3-C2= 59.63           H17-C4-C3-H14=180.05          H17-C4-C3-H15=297.87          C6-C5-C4-C3=270.81            
C6-C5-C4-H16=150.30           C6-C5-C4-H17= 31.06           C10-C5-C4-C3= 88.84           C10-C5-C4-H16=328.33          
C10-C5-C4-H17=209.09          C7-C6-C5-C4=178.46            C7-C6-C5-C10=  0.39           H18-C6-C5-C4=358.13           
H18-C6-C5-C10=180.07          C8-C7-C6-C5=359.85            C8-C7-C6-H18=180.17           H19-C7-C6-C5=179.72           
H19-C7-C6-H18=  0.05          C9-C8-C7-C6=359.91            C9-C8-C7-H19=180.04           H20-C8-C7-C6=179.81           
H20-C8-C7-H19=359.93          C10-C9-C8-C7=  0.08           C10-C9-C8-H20=180.18          H21-C9-C8-C7=179.95           
H21-C9-C8-H20=  0.06          C9-C10-C5-C4=181.54           C9-C10-C5-C6=359.60           H22-C10-C5-C4=  1.88          
H22-C10-C5-C6=179.94          C5-C10-C9-C8=  0.17           C5-C10-C9-H21=180.30          H22-C10-C9-C8=179.82          
H22-C10-C9-H21=359.95         
           -------------------------------------------------
          |                Final Singlepoint                |
           -------------------------------------------------

          ...................................................
          :                      SETUP                      :
          :.................................................:
          :  # basis functions                  52          :
          :  # atomic orbitals                  52          :
          :  # shells                           32          :
          :  # electrons                        52          :
          :  max. iterations                   250          :
          :  Hamiltonian                  GFN2-xTB          :
          :  restarted?                      false          :
          :  GBSA solvation                  false          :
          :  PC potential                    false          :
          :  electronic temp.          300.0000000     K    :
          :  accuracy                    1.0000000          :
          :  -> integral cutoff          0.2500000E+02      :
          :  -> integral neglect         0.1000000E-07      :
          :  -> SCF convergence          0.1000000E-05 Eh   :
          :  -> wf. convergence          0.1000000E-03 e    :
          :  Broyden damping             0.4000000          :
          ...................................................

 iter      E             dE          RMSdq      gap      omega  full diag
   1    -28.0021509 -0.280022E+02  0.385E-05    4.63       0.0  T
   2    -28.0021509 -0.539657E-11  0.254E-05    4.63     839.6  T
   3    -28.0021509 -0.534683E-11  0.133E-05    4.63    1608.0  T

   *** convergence criteria satisfied after 3 iterations ***

         #    Occupation            Energy/Eh            Energy/eV
      -------------------------------------------------------------
         1        2.0000           -0.6418727             -17.4662
       ...           ...                  ...                  ...
        20        2.0000           -0.4368018             -11.8860
        21        2.0000           -0.4308010             -11.7227
        22        2.0000           -0.4176754             -11.3655
        23        2.0000           -0.4165783             -11.3357
        24        2.0000           -0.4034853             -10.9794
        25        2.0000           -0.4000708             -10.8865
        26        2.0000           -0.3899744             -10.6117 (HOMO)
        27                         -0.2198169              -5.9815 (LUMO)
        28                         -0.2186118              -5.9487
        29                         -0.1994399              -5.4270
        30                         -0.0896213              -2.4387
        31                          0.0912994               2.4844
       ...                                ...                  ...
        52                          0.6682895              18.1851
      -------------------------------------------------------------
                  HL-Gap            0.1701575 Eh            4.6302 eV
             Fermi-level           -0.3048957 Eh           -8.2966 eV

 SCC (total)                   0 d,  0 h,  0 min,  0.226 sec
 SCC setup                      ...        0 min,  0.020 sec (  8.972%)
 Dispersion                     ...        0 min,  0.016 sec (  7.129%)
 classical contributions        ...        0 min,  0.016 sec (  7.071%)
 integral evaluation            ...        0 min,  0.036 sec ( 15.979%)
 iterations                     ...        0 min,  0.003 sec (  1.168%)
 molecular gradient             ...        0 min,  0.134 sec ( 59.612%)
 printout                       ...        0 min,  0.000 sec (  0.043%)

         :::::::::::::::::::::::::::::::::::::::::::::::::::::
         ::                     SUMMARY                     ::
         :::::::::::::::::::::::::::::::::::::::::::::::::::::
         :: total energy             -27.485290490427 Eh    ::
         :: gradient norm              0.000262044936 Eh/a0 ::
         :: HOMO-LUMO gap              4.630221755547 eV    ::
         ::.................................................::
         :: SCC energy               -28.002150881810 Eh    ::
         :: -> isotropic ES            0.002619219572 Eh    ::
         :: -> anisotropic ES          0.005167745804 Eh    ::
         :: -> anisotropic XC          0.020343256228 Eh    ::
         :: -> dispersion             -0.017110138097 Eh    ::
         :: repulsion energy           0.516877073779 Eh    ::
         :: add. restraining           0.000000000000 Eh    ::
         :: total charge               0.000000000000 e     ::
         :::::::::::::::::::::::::::::::::::::::::::::::::::::

           -------------------------------------------------
          |                Property Printout                |
           -------------------------------------------------

    * Orbital Energies and Occupations

         #    Occupation            Energy/Eh            Energy/eV
      -------------------------------------------------------------
         1        2.0000           -0.6418727             -17.4662
       ...           ...                  ...                  ...
        14        2.0000           -0.4860014             -13.2248
        15        2.0000           -0.4811702             -13.0933
        16        2.0000           -0.4748939             -12.9225
        17        2.0000           -0.4720272             -12.8445
        18        2.0000           -0.4593438             -12.4994
        19        2.0000           -0.4569212             -12.4335
        20        2.0000           -0.4368018             -11.8860
        21        2.0000           -0.4308010             -11.7227
        22        2.0000           -0.4176754             -11.3655
        23        2.0000           -0.4165783             -11.3357
        24        2.0000           -0.4034853             -10.9794
        25        2.0000           -0.4000708             -10.8865
        26        2.0000           -0.3899744             -10.6117 (HOMO)
        27                         -0.2198169              -5.9815 (LUMO)
        28                         -0.2186118              -5.9487
        29                         -0.1994399              -5.4270
        30                         -0.0896213              -2.4387
        31                          0.0912994               2.4844
        32                          0.1215594               3.3078
        33                          0.1221834               3.3248
        34                          0.1292336               3.5166
        35                          0.1374149               3.7393
        36                          0.1526998               4.1552
        37                          0.1692410               4.6053
       ...                                ...                  ...
        52                          0.6682895              18.1851
      -------------------------------------------------------------
                  HL-Gap            0.1701575 Eh            4.6302 eV
             Fermi-level           -0.3048957 Eh           -8.2966 eV

     #   Z          covCN         q      C6AA      α(0)
     1   6 C        2.837    -0.094    30.365     9.030
     2   6 C        2.887    -0.027    28.683     8.781
     3   6 C        3.808    -0.053    21.523     6.604
     4   6 C        3.810    -0.059    21.627     6.620
     5   6 C        2.971     0.013    27.724     8.637
     6   6 C        2.925    -0.038    28.942     8.822
     7   6 C        2.919    -0.031    28.764     8.795
     8   6 C        2.920    -0.033    28.833     8.806
     9   6 C        2.919    -0.031    28.768     8.795
    10   6 C        2.925    -0.038    28.944     8.823
    11   1 H        0.926     0.036     2.507     2.476
    12   1 H        0.926     0.034     2.531     2.488
    13   1 H        0.925     0.031     2.578     2.511
    14   1 H        0.924     0.040     2.455     2.450
    15   1 H        0.924     0.038     2.472     2.459
    16   1 H        0.924     0.037     2.487     2.466
    17   1 H        0.924     0.037     2.493     2.469
    18   1 H        0.926     0.029     2.607     2.525
    19   1 H        0.926     0.028     2.614     2.529
    20   1 H        0.926     0.028     2.622     2.532
    21   1 H        0.926     0.028     2.616     2.529
    22   1 H        0.926     0.028     2.616     2.529

 Mol. C6AA /au·bohr⁶  :       5094.610340
 Mol. C8AA /au·bohr⁸  :     120729.470796
 Mol. α(0) /au        :        113.675542


Wiberg/Mayer (AO) data.
largest (>0.10) Wiberg bond orders for each atom

 ---------------------------------------------------------------------------
     #   Z sym  total        # sym  WBO       # sym  WBO       # sym  WBO
 ---------------------------------------------------------------------------
     1   6 C    3.989 --     2 C    1.977    12 H    0.977    11 H    0.976
     2   6 C    3.990 --     1 C    1.977     3 C    1.027    13 H    0.966
     3   6 C    3.997 --     2 C    1.027    15 H    0.976     4 C    0.971
                            14 H    0.963
     4   6 C    3.996 --     5 C    1.012    17 H    0.974    16 H    0.973
                             3 C    0.971
     5   6 C    3.988 --    10 C    1.412     6 C    1.411     4 C    1.012
                             8 C    0.110
     6   6 C    3.991 --     7 C    1.446     5 C    1.411    18 H    0.970
                             9 C    0.111
     7   6 C    3.993 --     6 C    1.446     8 C    1.438    19 H    0.971
                            10 C    0.111
     8   6 C    3.992 --     9 C    1.438     7 C    1.438    20 H    0.972
                             5 C    0.110
     9   6 C    3.993 --    10 C    1.446     8 C    1.438    21 H    0.971
                             6 C    0.111
    10   6 C    3.991 --     9 C    1.446     5 C    1.412    22 H    0.970
                             7 C    0.111
    11   1 H    0.999 --     1 C    0.976
    12   1 H    0.998 --     1 C    0.977
    13   1 H    0.999 --     2 C    0.966
    14   1 H    0.998 --     3 C    0.963
    15   1 H    0.999 --     3 C    0.976
    16   1 H    0.998 --     4 C    0.973
    17   1 H    0.998 --     4 C    0.974
    18   1 H    0.999 --     6 C    0.970
    19   1 H    0.999 --     7 C    0.971
    20   1 H    0.999 --     8 C    0.972
    21   1 H    0.999 --     9 C    0.971
    22   1 H    0.999 --    10 C    0.970
 ---------------------------------------------------------------------------

Topologies differ in total number of bonds
Writing topology from bond orders to xtbtopo.mol

molecular dipole:
                 x           y           z       tot (Debye)
 q only:        0.039       0.045      -0.003
   full:        0.030       0.055       0.003       0.159
molecular quadrupole (traceless):
                xx          xy          yy          xz          yz          zz
 q only:       -0.741       0.508       1.070      -0.474       0.444      -0.329
  q+dip:        0.174       1.165       3.912      -2.640       2.772      -4.086
   full:       -0.697       0.867       2.310      -1.253       1.294      -1.612

           -------------------------------------------------
          |                Geometry Summary                 |
           -------------------------------------------------

      molecular mass/u    :      132.2026480
   center of mass at/Å    :       -0.2896631       0.0214659      -0.0947982
  moments of inertia/u·Å² :        0.1256523E+03   0.8270851E+03   0.9025592E+03
rotational constants/cm⁻¹ :        0.1341609E+00   0.2038198E-01   0.1867759E-01

 * 20 selected distances

     #   Z          #   Z                                           value/Å
     1   6 C        2   6 C                                       1.3194190
     3   6 C        4   6 C                                       1.5389787 (max)
     5   6 C        6   6 C                                       1.3890611
     6   6 C        7   6 C                                       1.3834109
     7   6 C        8   6 C                                       1.3843004
     8   6 C        9   6 C                                       1.3842456
     5   6 C       10   6 C                                       1.3891295
     9   6 C       10   6 C                                       1.3834187
     1   6 C       11   1 H                                       1.0779490
     1   6 C       12   1 H                                       1.0768342 (min)
     2   6 C       13   1 H                                       1.0828670
     3   6 C       14   1 H                                       1.0939306
     3   6 C       15   1 H                                       1.0916468
     4   6 C       16   1 H                                       1.0922528
     4   6 C       17   1 H                                       1.0921143
     6   6 C       18   1 H                                       1.0810646
     7   6 C       19   1 H                                       1.0805132
     8   6 C       20   1 H                                       1.0801715
     9   6 C       21   1 H                                       1.0805236
    10   6 C       22   1 H                                       1.0811856

 * 2 distinct bonds (by element types)

   Z      Z             #   av. dist./Å        max./Å        min./Å
   1 H    6 C          12     1.0842544     1.0939306     1.0768342
   6 C    6 C           8     1.3964955     1.5389787     1.3194190


optimized geometry written to: xtbopt.xyz


           -------------------------------------------------
          | TOTAL ENERGY              -27.485290490427 Eh   |
          | GRADIENT NORM               0.000262044936 Eh/α |
          | HOMO-LUMO GAP               4.630221755547 eV   |
           -------------------------------------------------

------------------------------------------------------------------------
 * finished run on 2022/03/17 at 02:19:32.307     
------------------------------------------------------------------------
 total:
 * wall-time:     0 d,  0 h,  0 min,  2.096 sec
 *  cpu-time:     0 d,  0 h,  1 min,  8.482 sec
 * ratio c/w:    32.669 speedup
 SCF:
 * wall-time:     0 d,  0 h,  0 min,  0.220 sec
 *  cpu-time:     0 d,  0 h,  0 min,  7.271 sec
 * ratio c/w:    33.045 speedup
 ANC optimizer:
 * wall-time:     0 d,  0 h,  0 min,  1.755 sec
 *  cpu-time:     0 d,  0 h,  0 min, 57.498 sec
 * ratio c/w:    32.761 speedup

