22
 energy: -27.485290490427 gnorm: 0.000262044936 xtb: 6.3.3 (4ae9cef)
C         3.91331623529703   -0.75601259580475   -0.12815085906461
C         3.01919943148698    0.20331442001209    0.01715325574727
C         1.58054234808611   -0.02079580864764    0.35303249505790
C         0.66759352850777    0.48394384087355   -0.77843464917239
C        -0.77600411145877    0.27076740564394   -0.42745092278828
C        -1.41670782769238   -0.91669460774702   -0.75748665095448
C        -2.73819489198259   -1.12756075355166   -0.40672578400998
C        -3.43746770383039   -0.15234377244626    0.28338804346063
C        -2.80715845602437    1.03275314373987    0.62160617266950
C        -1.48552735034401    1.24054984774328    0.26952800511429
H         3.65619761434486   -1.79419404790777    0.00617458563810
H         4.93945264100626   -0.54903113941419   -0.38068718653774
H         3.30299719908487    1.23834106590957   -0.12699805612692
H         1.33074870602749    0.51961035413248    1.27077346347689
H         1.39445964162639   -1.08290568822288    0.52329298290159
H         0.85902808258921    1.54655832813895   -0.94341770703679
H         0.91438073800857   -0.05480567962607   -1.69579971272314
H        -0.87530041224702   -1.67992511965999   -1.29883476110264
H        -3.22475052704867   -2.05450427785451   -0.67421048873695
H        -4.47024165306025   -0.31456569376684    0.55510946293829
H        -3.34762387393138    1.79830128716787    1.15953214801665
H        -0.99893835844572    2.16920149128800    0.53372416323275
