22
 energy: -27.483055322840 gnorm: 0.039028109443 xtb: 6.3.3 (4ae9cef)
C         3.94719700000000   -0.76500200000000   -0.13653200000000
C         3.04501700000000    0.21417100000000    0.00478400000000
C         1.60005000000000   -0.01492800000000    0.35130500000000
C         0.67157600000000    0.47574500000000   -0.76354000000000
C        -0.78121600000000    0.26400300000000   -0.41408800000000
C        -1.42662500000000   -0.93203000000000   -0.75540600000000
C        -2.76521300000000   -1.13475900000000   -0.41610300000000
C        -3.46884200000000   -0.14696300000000    0.27045100000000
C        -2.83441600000000    1.04368900000000    0.61986700000000
C        -1.49586200000000    1.24839300000000    0.28147400000000
H         3.68092000000000   -1.81001000000000   -0.01092200000000
H         4.98025300000000   -0.53747900000000   -0.38147300000000
H         3.36283600000000    1.24700200000000   -0.12421900000000
H         1.38093700000000    0.51764000000000    1.28523900000000
H         1.41540200000000   -1.07833700000000    0.55039500000000
H         0.84363700000000    1.54168600000000   -0.96329500000000
H         0.89811000000000   -0.04386300000000   -1.70395900000000
H        -0.88906300000000   -1.71333300000000   -1.28798800000000
H        -3.25862900000000   -2.06445600000000   -0.68678300000000
H        -4.51094500000000   -0.30564600000000    0.53444800000000
H        -3.38194800000000    1.81333200000000    1.15739300000000
H        -1.01317500000000    2.18114700000000    0.56407000000000
22
 energy: -27.485073830464 gnorm: 0.009664681547 xtb: 6.3.3 (4ae9cef)
C         3.93247783054021   -0.75807859954198   -0.13600973460997
C         3.03787339471953    0.20515413421974    0.00832106243570
C         1.59688841278711   -0.01583127057150    0.35001245669693
C         0.66677762291084    0.47760031205082   -0.76429453184765
C        -0.78090011964968    0.26245136831199   -0.40973360900410
C        -1.42465374914477   -0.92366856675930   -0.74665601143374
C        -2.75392915068009   -1.12710531357315   -0.41071743719071
C        -3.45617616942911   -0.14677923938299    0.27083515267022
C        -2.82309608825050    1.03533336702781    0.61785282583002
C        -1.49378750551021    1.23683878105627    0.28105642807508
H         3.67428723015917   -1.79748295128444   -0.00953681656081
H         4.95947702363078   -0.53875890693402   -0.38210899089481
H         3.33897860164228    1.23652301733814   -0.13215600117930
H         1.36354807461135    0.52579992232807    1.27356982426284
H         1.41648804049859   -1.07866000115755    0.53391175342739
H         0.84745291987261    1.54275921875076   -0.94359832144740
H         0.90395301866508   -0.05782334144513   -1.68948754609986
H        -0.88711202828578   -1.69432694568537   -1.28354652667424
H        -3.24462087382984   -2.05157937692478   -0.68460333536389
H        -4.49487121961858   -0.30309680364389    0.52977086702719
H        -3.36793312820304    1.80422396039550    1.14927195714710
H        -1.01112113743595    2.16650923542503    0.55296453473402
22
 energy: -27.485242052459 gnorm: 0.003130287204 xtb: 6.3.3 (4ae9cef)
C         3.92271466503208   -0.75513025073068   -0.13683558098138
C         3.02807332081114    0.20334203959674    0.00902272218769
C         1.59058763195668   -0.01884885206079    0.35360953274758
C         0.66644846990610    0.47907073308547   -0.76834461342523
C        -0.77790320575499    0.26408852207311   -0.41300367816663
C        -1.42077478761115   -0.92031586766729   -0.74746117089894
C        -2.74644625816013   -1.12553775789307   -0.40930642188800
C        -3.44846239042966   -0.14746209013524    0.27288867241817
C        -2.81550315643628    1.03363715814900    0.61799669790756
C        -1.48966803823542    1.23543535212094    0.27844571241987
H         3.66981310255473   -1.79367418948247   -0.00269495125597
H         4.94818799282084   -0.54160199221195   -0.38599704764514
H         3.31799986593589    1.23693126106642   -0.13356834553653
H         1.35142068229750    0.52472631637715    1.27319260309143
H         1.40995868361014   -1.08117036073665    0.53060269605101
H         0.85078026916941    1.54288145830400   -0.93873523882463
H         0.90640315184043   -0.06007217569301   -1.68816542901922
H        -0.88067559192227   -1.68747196998127   -1.28403172224837
H        -3.23499192913315   -2.04965351808625   -0.68239367081447
H        -4.48541705826899   -0.30381854168677    0.53197662918861
H        -3.35813647895350    1.80176014116662    1.14979173960967
H        -1.00440794102942    2.16288658442599    0.54812886508292
22
 energy: -27.485272106138 gnorm: 0.001402548431 xtb: 6.3.3 (4ae9cef)
C         3.91871344630950   -0.75396117356492   -0.13276346892702
C         3.02331217782453    0.20355121143465    0.01374238766512
C         1.58622427602487   -0.02073715912061    0.35590342514240
C         0.66706415793875    0.48027020816165   -0.77144147169399
C        -0.77636867802892    0.26637641547789   -0.41806668318132
C        -1.41842924040592   -0.91914399037099   -0.75038140696222
C        -2.74261845248970   -1.12602200478744   -0.40867322826304
C        -3.44424074869215   -0.14846013222773    0.27522727610330
C        -2.81153686085296    1.03350699797668    0.61895843419608
C        -1.48718371222245    1.23684241699739    0.27573401947984
H         3.66583949651471   -1.79287922998001    0.00081100340186
H         4.94254833812357   -0.54418696287519   -0.39171003138670
H         3.30646911322266    1.23839449351179   -0.13437697085720
H         1.34172129681944    0.52252068269342    1.27348402590876
H         1.40309421759366   -1.08264594325535    0.52961290337983
H         0.85500423921628    1.54312382414957   -0.93815458525186
H         0.91030978465057   -0.05954421512706   -1.68895557723540
H        -0.87674544499016   -1.68464426931912   -1.28775045004931
H        -3.23004868450204   -2.05106622200218   -0.68000961099749
H        -4.47994909536214   -0.30609094683300    0.53718573091299
H        -3.35291799500389    1.80090960051346    1.15276830317873
H        -1.00026063168825    2.16388839854709    0.54397397543662
22
 energy: -27.485276319759 gnorm: 0.001997449846 xtb: 6.3.3 (4ae9cef)
C         3.91250846263957   -0.75411305798756   -0.13528553614583
C         3.01730579924414    0.20363936793590    0.01441148540313
C         1.58084790757201   -0.02262338807669    0.35697359462070
C         0.66782736966828    0.48259645966642   -0.77591182286784
C        -0.77509223566292    0.26989683318897   -0.42543707061700
C        -1.41604593382223   -0.91763799502176   -0.75559354885813
C        -2.73848316165173   -1.12714460694877   -0.40777819568411
C        -3.43886554492749   -0.15056226949227    0.27995559361047
C        -2.80733034322184    1.03357760109335    0.62067395219296
C        -1.48474057584295    1.23988895914977    0.27150736385096
H         3.66032279860117   -1.79256951723905    0.00967765328644
H         4.93862184397316   -0.54733106385977   -0.38809190276843
H         3.29632194669498    1.23981209035909   -0.13131744426998
H         1.33095824819744    0.51844453488488    1.27380347112239
H         1.39432775403471   -1.08439324808069    0.52672297339431
H         0.86050786450859    1.54457403882881   -0.93964043879246
H         0.91539802954180   -0.05686912901117   -1.69192888500886
H        -0.87299917668326   -1.68122081810801   -1.29504087927078
H        -3.22475016064799   -2.05401619491385   -0.67586991916875
H        -4.47268801688967   -0.31099131251625    0.54796903073490
H        -3.34746296850833    1.79965127847664    1.15810459431846
H        -0.99648890681746    2.16739343767203    0.53721393091743
22
 energy: -27.485286978167 gnorm: 0.000750943428 xtb: 6.3.3 (4ae9cef)
C         3.91367917341536   -0.75482003891440   -0.12966751331569
C         3.01869758333204    0.20367162934573    0.01677453255700
C         1.58092035688195   -0.02171365275170    0.35545271335424
C         0.66786510512130    0.48296702831695   -0.77681055433297
C        -0.77559724226975    0.27022303116326   -0.42640335204745
C        -1.41651632759969   -0.91735638658607   -0.75669640478371
C        -2.73867149034055   -1.12736970954686   -0.40750695565576
C        -3.43840967610539   -0.15134783951788    0.28144953400831
C        -2.80752590704953    1.03335435645513    0.62091741984076
C        -1.48522923727304    1.24037920266440    0.27045087785786
H         3.65804976578466   -1.79334177259976    0.00634981432308
H         4.93891447345762   -0.54796516052274   -0.38665067459848
H         3.29983468510234    1.23911689577500   -0.12968139875466
H         1.33090080151972    0.51896973492332    1.27276630092876
H         1.39462713454934   -1.08364313182458    0.52594633242866
H         0.86002886422916    1.54528872425670   -0.94160432397341
H         0.91531118289215   -0.05598796179169   -1.69367241606471
H        -0.87424720287060   -1.68097946687244   -1.29691565998738
H        -3.22516901104383   -2.05441257467207   -0.67508758859551
H        -4.47184375272516   -0.31262467369689    0.55128578531788
H        -3.34787073532989    1.79913067289509    1.15880876800950
H        -0.99774754367822    2.16846309350151    0.53561276348364
22
 energy: -27.485290490376 gnorm: 0.000262136091 xtb: 6.3.3 (4ae9cef)
C         3.91331623529703   -0.75601259580475   -0.12815085906461
C         3.01919943148698    0.20331442001209    0.01715325574727
C         1.58054234808611   -0.02079580864764    0.35303249505790
C         0.66759352850777    0.48394384087355   -0.77843464917239
C        -0.77600411145877    0.27076740564394   -0.42745092278828
C        -1.41670782769238   -0.91669460774702   -0.75748665095448
C        -2.73819489198259   -1.12756075355166   -0.40672578400998
C        -3.43746770383039   -0.15234377244626    0.28338804346063
C        -2.80715845602437    1.03275314373987    0.62160617266950
C        -1.48552735034401    1.24054984774328    0.26952800511429
H         3.65619761434486   -1.79419404790777    0.00617458563810
H         4.93945264100626   -0.54903113941419   -0.38068718653774
H         3.30299719908487    1.23834106590957   -0.12699805612692
H         1.33074870602749    0.51961035413248    1.27077346347689
H         1.39445964162639   -1.08290568822288    0.52329298290159
H         0.85902808258921    1.54655832813895   -0.94341770703679
H         0.91438073800857   -0.05480567962607   -1.69579971272314
H        -0.87530041224702   -1.67992511965999   -1.29883476110264
H        -3.22475052704867   -2.05450427785451   -0.67421048873695
H        -4.47024165306025   -0.31456569376684    0.55510946293829
H        -3.34762387393138    1.79830128716787    1.15953214801665
H        -0.99893835844572    2.16920149128800    0.53372416323275
