      -----------------------------------------------------------      
     |                   =====================                   |     
     |                           x T B                           |     
     |                   =====================                   |     
     |                         S. Grimme                         |     
     |          Mulliken Center for Theoretical Chemistry        |     
     |                    University of Bonn                     |     
      -----------------------------------------------------------      

   * xtb version 6.3.3 (4ae9cef) compiled by 'conda@95abc7406d43' on 2020-10-14

   xtb is free software: you can redistribute it and/or modify it under
   the terms of the GNU Lesser General Public License as published by
   the Free Software Foundation, either version 3 of the License, or
   (at your option) any later version.
   
   xtb is distributed in the hope that it will be useful,
   but WITHOUT ANY WARRANTY; without even the implied warranty of
   MERCHANTABILITY or FITNESS FOR A PARTICULAR PURPOSE.  See the
   GNU Lesser General Public License for more details.
   
   Cite this work as:
   * C. Bannwarth, E. Caldeweyher, S. Ehlert, A. Hansen, P. Pracht,
     J. Seibert, S. Spicher, S. Grimme, WIREs Comput. Mol. Sci., 2020,
     e01493. DOI: 10.1002/wcms.1493
   
   for GFN2-xTB:
   * S. Grimme, C. Bannwarth, P. Shushkov, J. Chem. Theory Comput., 2017,
     13, 1989-2009. DOI: 10.1021/acs.jctc.7b00118
   for GFN1-xTB:
   * C. Bannwarth, S. Ehlert and S. Grimme., J. Chem. Theory Comput., 2019,
     15, 1652-1671. DOI: 10.1021/acs.jctc.8b01176
   for GFN0-xTB:
   * P. Pracht, E. Caldeweyher, S. Ehlert, S. Grimme, ChemRxiv, 2019, preprint.
     DOI: 10.26434/chemrxiv.8326202.v1
   for GFN-FF:
   * S. Spicher and S. Grimme, Angew. Chem. Int. Ed., 2020, 59, 15665-15673.
     DOI: 10.1002/anie.202004239
   
   for DFT-D4:
   * E. Caldeweyher, C. Bannwarth and S. Grimme, J. Chem. Phys., 2017,
     147, 034112. DOI: 10.1063/1.4993215
   * E. Caldeweyher, S. Ehlert, A. Hansen, H. Neugebauer, S. Spicher,
     C. Bannwarth and S. Grimme, J. Chem. Phys., 2019, 150, 154122.
     DOI: 10.1063/1.5090222
   * E. Caldeweyher, J.-M. Mewes, S. Ehlert and S. Grimme, Phys. Chem. Chem. Phys.
     2020, 22, 8499-8512. DOI: 10.1039/D0CP00502A
   
   for sTDA-xTB:
   * S. Grimme and C. Bannwarth, J. Chem. Phys., 2016, 145, 054103.
     DOI: 10.1063/1.4959605
   
   in the mass-spec context:
   * V. Asgeirsson, C. Bauer and S. Grimme, Chem. Sci., 2017, 8, 4879.
     DOI: 10.1039/c7sc00601b
   * J. Koopman and S. Grimme, ACS Omega 2019, 4, 12, 15120-15133.
     DOI: 10.1021/acsomega.9b02011
   
   for metadynamics refer to:
   * S. Grimme, J. Chem. Theory Comput., 2019, 155, 2847-2862
     DOI: 10.1021/acs.jctc.9b00143
   
   with help from (in alphabetical order)
   C. Bannwarth, F. Bohle, G. Brandenburg, E. Caldeweyher, M. Checinski,
   S. Dohm, S. Ehlert, S. Ehrlich, F. März, H. Neugebauer, J. Pisarek,
   P. Pracht, P. Shushkov, and S. Spicher.
   
 * started run on 2022/03/17 at 01:25:55.683     

           -------------------------------------------------
          |                Calculation Setup                |
           -------------------------------------------------

          program call               : xtb acid_457.xyz --opt --chrg 0 --uhf 0 --gfn 2
          coordinate file            : acid_457.xyz
          omp threads                :                    64
          number of atoms            :                    72
          number of electrons        :                   242
          charge                     :                     0
          spin                       :                   0.0
          first test random number   :      0.75535957010333

   ID    Z sym.   atoms
    1    6 C      1, 2, 6-15, 19-22, 24-27, 29-31, 33, 34, 38-41, 43-45
    2    9 F      3-5, 16-18
    3    7 N      23, 37
    4    8 O      28, 32, 35, 36, 42, 46
    5    1 H      47-72

           -------------------------------------------------
          |                 G F N 2 - x T B                 |
           -------------------------------------------------

        Reference                      10.1021/acs.jctc.8b01176
      * Hamiltonian:
        H0-scaling (s, p, d)           1.850000    2.230000    2.230000
        zeta-weighting                 0.500000
      * Dispersion:
        s8                             2.700000
        a1                             0.520000
        a2                             5.000000
        s9                             5.000000
      * Repulsion:
        kExp                           1.500000    1.000000
        rExp                           1.000000
      * Coulomb:
        alpha                          2.000000
        third order                    shell-resolved
        anisotropic                    true
        a3                             3.000000
        a5                             4.000000
        cn-shift                       1.200000
        cn-exp                         4.000000
        max-rad                        5.000000


          ...................................................
          :                      SETUP                      :
          :.................................................:
          :  # basis functions                 210          :
          :  # atomic orbitals                 210          :
          :  # shells                          118          :
          :  # electrons                       242          :
          :  max. iterations                   250          :
          :  Hamiltonian                  GFN2-xTB          :
          :  restarted?                      false          :
          :  GBSA solvation                  false          :
          :  PC potential                    false          :
          :  electronic temp.          300.0000000     K    :
          :  accuracy                    1.0000000          :
          :  -> integral cutoff          0.2500000E+02      :
          :  -> integral neglect         0.1000000E-07      :
          :  -> SCF convergence          0.1000000E-05 Eh   :
          :  -> wf. convergence          0.1000000E-03 e    :
          :  Broyden damping             0.4000000          :
          ...................................................

 iter      E             dE          RMSdq      gap      omega  full diag
   1   -141.6972294 -0.141697E+03  0.439E+00    3.31       0.0  T
   2   -141.9495102 -0.252281E+00  0.254E+00    3.00       1.0  T
   3   -141.9605386 -0.110284E-01  0.134E+00    3.15       1.0  T
   4   -141.9750459 -0.145073E-01  0.354E-01    2.71       1.0  T
   5   -141.9826269 -0.758100E-02  0.109E-01    2.68       1.0  T
   6   -141.9829327 -0.305803E-03  0.501E-02    2.73       1.0  T
   7   -141.9829951 -0.624416E-04  0.200E-02    2.72       1.0  T
   8   -141.9829974 -0.225180E-05  0.807E-03    2.72       1.5  T
   9   -141.9830006 -0.322536E-05  0.333E-03    2.72       3.5  T
  10   -141.9830008 -0.185023E-06  0.137E-03    2.72       8.6  T
  11   -141.9830009 -0.757979E-07  0.531E-04    2.72      22.2  T
  12   -141.9830009 -0.343249E-08  0.279E-04    2.72      42.3  T

   *** convergence criteria satisfied after 12 iterations ***

         #    Occupation            Energy/Eh            Energy/eV
      -------------------------------------------------------------
         1        2.0000           -0.8707329             -23.6938
       ...           ...                  ...                  ...
       115        2.0000           -0.4227448             -11.5035
       116        2.0000           -0.4179964             -11.3743
       117        2.0000           -0.4095192             -11.1436
       118        2.0000           -0.4067332             -11.0678
       119        2.0000           -0.4049987             -11.0206
       120        2.0000           -0.3902173             -10.6184
       121        2.0000           -0.3867379             -10.5237 (HOMO)
       122                         -0.2866227              -7.7994 (LUMO)
       123                         -0.2716239              -7.3913
       124                         -0.2674765              -7.2784
       125                         -0.2613452              -7.1116
       126                         -0.2585377              -7.0352
       ...                                ...                  ...
       210                          0.6502793              17.6950
      -------------------------------------------------------------
                  HL-Gap            0.1001152 Eh            2.7243 eV
             Fermi-level           -0.3366803 Eh           -9.1615 eV

 SCC (total)                   0 d,  0 h,  0 min,  0.579 sec
 SCC setup                      ...        0 min,  0.016 sec (  2.724%)
 Dispersion                     ...        0 min,  0.013 sec (  2.257%)
 classical contributions        ...        0 min,  0.012 sec (  2.063%)
 integral evaluation            ...        0 min,  0.115 sec ( 19.840%)
 iterations                     ...        0 min,  0.266 sec ( 45.978%)
 molecular gradient             ...        0 min,  0.154 sec ( 26.597%)
 printout                       ...        0 min,  0.003 sec (  0.527%)

         :::::::::::::::::::::::::::::::::::::::::::::::::::::
         ::                     SUMMARY                     ::
         :::::::::::::::::::::::::::::::::::::::::::::::::::::
         :: total energy            -140.500186459379 Eh    ::
         :: gradient norm              0.114473396473 Eh/a0 ::
         :: HOMO-LUMO gap              2.724274058329 eV    ::
         ::.................................................::
         :: SCC energy              -141.983000865206 Eh    ::
         :: -> isotropic ES            0.224129549510 Eh    ::
         :: -> anisotropic ES          0.002065606537 Eh    ::
         :: -> anisotropic XC          0.000255550116 Eh    ::
         :: -> dispersion             -0.100232256958 Eh    ::
         :: repulsion energy           1.478011494975 Eh    ::
         :: add. restraining           0.000000000000 Eh    ::
         :: total charge              -0.000000000000 e     ::
         :::::::::::::::::::::::::::::::::::::::::::::::::::::

      ----------------------------------------------------------- 
     |                   =====================                   |
     |                        A N C O P T                        |
     |                   =====================                   |
     |               Approximate Normal Coordinate               |
     |                Rational Function Optimizer                |
      ----------------------------------------------------------- 

          ...................................................
          :                      SETUP                      :
          :.................................................:
          :   optimization level            normal          :
          :   max. optcycles                   216          :
          :   ANC micro-cycles                  20          :
          :   degrees of freedom               210          :
          :.................................................:
          :   RF solver                   davidson          :
          :   write xtbopt.log                true          :
          :   linear?                        false          :
          :   energy convergence         0.5000000E-05 Eh   :
          :   grad. convergence          0.1000000E-02 Eh/α :
          :   maximium RF displ.         1.0000000          :
          :   Hlow (freq-cutoff)         0.1000000E-01      :
          :   Hmax (freq-cutoff)         5.0000000          :
          :   S6 in model hess.         20.0000000          :
          ...................................................

generating ANC from model Hessian ...
Using Lindh-Hessian (1995)
 Shifting diagonal of input Hessian by    9.8656137073130316E-003
 Lowest  eigenvalues of input Hessian
    0.000000    0.000000    0.000000    0.000000    0.000000    0.000000
    0.010000    0.010172    0.010310    0.010446    0.010516    0.010554
    0.010623    0.010649    0.010801    0.011394    0.011532    0.012260
 Highest eigenvalues
    1.926482    1.995622    1.999386    2.203409    2.261447    2.261806


........................................................................
.............................. CYCLE    1 ..............................
........................................................................
   1   -141.9830009 -0.141983E+03  0.110E-04    2.72       0.0  T
   2   -141.9830009 -0.166864E-09  0.724E-05    2.72     162.8  T
   3   -141.9830009 -0.115335E-09  0.467E-05    2.72     252.5  T
     SCC iter.                  ...        0 min,  0.069 sec
     gradient                   ...        0 min,  0.146 sec
 * total energy  :  -140.5001865 Eh     change       -0.2725614E-08 Eh
   gradient norm :     0.1144765 Eh/α   predicted     0.0000000E+00 (-100.00%)
   displ. norm   :     0.3836038 α      lambda       -0.2201765E-01
   maximum displ.:     0.1054168 α      in ANC's #62, #55, #42, ...

........................................................................
.............................. CYCLE    2 ..............................
........................................................................
   1   -142.0680362 -0.142068E+03  0.162E-01    3.00       0.0  T
   2   -142.0681748 -0.138594E-03  0.102E-01    2.96       1.0  T
   3   -142.0680980  0.767581E-04  0.539E-02    2.95       1.0  T
   4   -142.0682371 -0.139011E-03  0.101E-02    2.95       1.2  T
   5   -142.0682423 -0.521258E-05  0.316E-03    2.95       3.7  T
   6   -142.0682424 -0.148460E-06  0.169E-03    2.95       7.0  T
   7   -142.0682424 -0.196650E-07  0.741E-04    2.95      15.9  T
   8   -142.0682425 -0.240517E-07  0.281E-04    2.95      42.0  T
     SCC iter.                  ...        0 min,  0.180 sec
     gradient                   ...        0 min,  0.134 sec
 * total energy  :  -140.5157397 Eh     change       -0.1555319E-01 Eh
   gradient norm :     0.0435246 Eh/α   predicted    -0.1262880E-01 ( -18.80%)
   displ. norm   :     0.4001387 α      lambda       -0.7898496E-02
   maximum displ.:     0.1661553 α      in ANC's #20, #19, #35, ...

........................................................................
.............................. CYCLE    3 ..............................
........................................................................
   1   -142.1124918 -0.142112E+03  0.118E-01    3.08       0.0  T
   2   -142.1125615 -0.696972E-04  0.743E-02    3.05       1.0  T
   3   -142.1125192  0.422987E-04  0.370E-02    3.05       1.0  T
   4   -142.1125914 -0.722366E-04  0.694E-03    3.05       1.7  T
   5   -142.1125940 -0.257501E-05  0.218E-03    3.05       5.4  T
   6   -142.1125941 -0.625860E-07  0.107E-03    3.05      11.0  T
   7   -142.1125941 -0.981643E-08  0.471E-04    3.05      25.0  T
   8   -142.1125941 -0.669462E-08  0.211E-04    3.05      55.8  T
     SCC iter.                  ...        0 min,  0.184 sec
     gradient                   ...        0 min,  0.146 sec
 * total energy  :  -140.5207617 Eh     change       -0.5022057E-02 Eh
   gradient norm :     0.0135572 Eh/α   predicted    -0.4581566E-02 (  -8.77%)
   displ. norm   :     0.3487063 α      lambda       -0.2123423E-02
   maximum displ.:     0.1731293 α      in ANC's #20, #19, #35, ...

........................................................................
.............................. CYCLE    4 ..............................
........................................................................
   1   -142.1208921 -0.142121E+03  0.729E-02    3.07       0.0  T
   2   -142.1209154 -0.233647E-04  0.444E-02    3.06       1.0  T
   3   -142.1209022  0.132137E-04  0.193E-02    3.06       1.0  T
   4   -142.1209217 -0.195085E-04  0.451E-03    3.06       2.6  T
   5   -142.1209232 -0.148149E-05  0.136E-03    3.06       8.7  T
   6   -142.1209232 -0.237295E-07  0.679E-04    3.06      17.4  T
   7   -142.1209232 -0.557711E-08  0.253E-04    3.06      46.6  T
     SCC iter.                  ...        0 min,  0.157 sec
     gradient                   ...        0 min,  0.135 sec
 * total energy  :  -140.5223515 Eh     change       -0.1589793E-02 Eh
   gradient norm :     0.0116797 Eh/α   predicted    -0.1190816E-02 ( -25.10%)
   displ. norm   :     0.4372475 α      lambda       -0.1633035E-02
   maximum displ.:     0.2063661 α      in ANC's #19, #20, #7, ...

........................................................................
.............................. CYCLE    5 ..............................
........................................................................
   1   -142.1224996 -0.142122E+03  0.851E-02    3.08       0.0  T
   2   -142.1225220 -0.223728E-04  0.507E-02    3.06       1.0  T
   3   -142.1225037  0.182992E-04  0.215E-02    3.07       1.0  T
   4   -142.1225283 -0.245946E-04  0.473E-03    3.06       2.5  T
   5   -142.1225298 -0.148588E-05  0.154E-03    3.06       7.7  T
   6   -142.1225298 -0.266160E-07  0.781E-04    3.06      15.1  T
   7   -142.1225298 -0.875980E-08  0.304E-04    3.06      38.7  T
     SCC iter.                  ...        0 min,  0.157 sec
     gradient                   ...        0 min,  0.133 sec
 * total energy  :  -140.5235225 Eh     change       -0.1171001E-02 Eh
   gradient norm :     0.0094337 Eh/α   predicted    -0.9726664E-03 ( -16.94%)
   displ. norm   :     0.3870323 α      lambda       -0.8885027E-03
   maximum displ.:     0.1669971 α      in ANC's #19, #7, #20, ...

........................................................................
.............................. CYCLE    6 ..............................
........................................................................
   1   -142.1222323 -0.142122E+03  0.758E-02    3.07       0.0  T
   2   -142.1222422 -0.989039E-05  0.448E-02    3.06       1.0  T
   3   -142.1222287  0.135191E-04  0.167E-02    3.07       1.0  T
   4   -142.1222455 -0.167778E-04  0.322E-03    3.06       3.7  T
   5   -142.1222460 -0.572003E-06  0.122E-03    3.06       9.6  T
   6   -142.1222460 -0.181536E-07  0.603E-04    3.06      19.6  T
   7   -142.1222460 -0.549176E-08  0.246E-04    3.07      48.0  T
     SCC iter.                  ...        0 min,  0.158 sec
     gradient                   ...        0 min,  0.120 sec
 * total energy  :  -140.5241700 Eh     change       -0.6475113E-03 Eh
   gradient norm :     0.0077144 Eh/α   predicted    -0.5107986E-03 ( -21.11%)
   displ. norm   :     0.3732736 α      lambda       -0.6334841E-03
   maximum displ.:     0.1689011 α      in ANC's #7, #10, #19, ...

........................................................................
.............................. CYCLE    7 ..............................
........................................................................
   1   -142.1221960 -0.142122E+03  0.763E-02    3.07       0.0  T
   2   -142.1222025 -0.648906E-05  0.449E-02    3.06       1.0  T
   3   -142.1221924  0.100916E-04  0.137E-02    3.07       1.0  T
   4   -142.1222046 -0.121842E-04  0.255E-03    3.06       4.6  T
   5   -142.1222049 -0.319093E-06  0.106E-03    3.06      11.1  T
   6   -142.1222049 -0.174718E-07  0.516E-04    3.06      22.8  T
   7   -142.1222049 -0.378594E-08  0.214E-04    3.06      55.1  T
     SCC iter.                  ...        0 min,  0.159 sec
     gradient                   ...        0 min,  0.138 sec
 * total energy  :  -140.5246615 Eh     change       -0.4914394E-03 Eh
   gradient norm :     0.0078462 Eh/α   predicted    -0.3608906E-03 ( -26.56%)
   displ. norm   :     0.4397851 α      lambda       -0.6675078E-03
   maximum displ.:     0.2065110 α      in ANC's #7, #10, #3, ...

........................................................................
.............................. CYCLE    8 ..............................
........................................................................
   1   -142.1224588 -0.142122E+03  0.924E-02    3.06       0.0  T
   2   -142.1224658 -0.693383E-05  0.542E-02    3.06       1.0  T
   3   -142.1224548  0.109034E-04  0.138E-02    3.06       1.0  T
   4   -142.1224680 -0.131630E-04  0.255E-03    3.06       4.6  T
   5   -142.1224683 -0.269365E-06  0.116E-03    3.06      10.1  T
   6   -142.1224683 -0.246189E-07  0.545E-04    3.06      21.6  T
   7   -142.1224683 -0.427940E-08  0.230E-04    3.06      51.2  T
     SCC iter.                  ...        0 min,  0.157 sec
     gradient                   ...        0 min,  0.094 sec
 * total energy  :  -140.5251948 Eh     change       -0.5333814E-03 Eh
   gradient norm :     0.0087513 Eh/α   predicted    -0.3984113E-03 ( -25.30%)
   displ. norm   :     0.5071145 α      lambda       -0.7121045E-03
   maximum displ.:     0.2389984 α      in ANC's #7, #10, #1, ...

........................................................................
.............................. CYCLE    9 ..............................
........................................................................
   1   -142.1229669 -0.142123E+03  0.106E-01    3.05       0.0  T
   2   -142.1229745 -0.761235E-05  0.623E-02    3.05       1.0  T
   3   -142.1229599  0.145596E-04  0.151E-02    3.05       1.0  T
   4   -142.1229775 -0.175702E-04  0.250E-03    3.05       4.7  T
   5   -142.1229777 -0.211699E-06  0.125E-03    3.05       9.4  T
   6   -142.1229777 -0.274388E-07  0.559E-04    3.05      21.1  T
   7   -142.1229777 -0.483368E-08  0.238E-04    3.05      49.6  T
     SCC iter.                  ...        0 min,  0.157 sec
     gradient                   ...        0 min,  0.137 sec
 * total energy  :  -140.5257537 Eh     change       -0.5588217E-03 Eh
   gradient norm :     0.0078676 Eh/α   predicted    -0.4476202E-03 ( -19.90%)
   displ. norm   :     0.5034555 α      lambda       -0.5977175E-03
   maximum displ.:     0.2382710 α      in ANC's #7, #10, #1, ...

........................................................................
.............................. CYCLE   10 ..............................
........................................................................
   1   -142.1237286 -0.142124E+03  0.102E-01    3.04       0.0  T
   2   -142.1237356 -0.707516E-05  0.599E-02    3.04       1.0  T
   3   -142.1237200  0.156978E-04  0.150E-02    3.04       1.0  T
   4   -142.1237388 -0.188396E-04  0.226E-03    3.04       5.2  T
   5   -142.1237390 -0.172553E-06  0.116E-03    3.04      10.1  T
   6   -142.1237390 -0.188321E-07  0.526E-04    3.04      22.4  T
   7   -142.1237390 -0.558148E-08  0.210E-04    3.04      56.1  T
     SCC iter.                  ...        0 min,  0.162 sec
     gradient                   ...        0 min,  0.129 sec
 * total energy  :  -140.5262012 Eh     change       -0.4475827E-03 Eh
   gradient norm :     0.0059442 Eh/α   predicted    -0.3746246E-03 ( -16.30%)
   displ. norm   :     0.4366517 α      lambda       -0.3908971E-03
   maximum displ.:     0.2110150 α      in ANC's #7, #10, #1, ...

........................................................................
.............................. CYCLE   11 ..............................
........................................................................
   1   -142.1243895 -0.142124E+03  0.830E-02    3.03       0.0  T
   2   -142.1243942 -0.471504E-05  0.489E-02    3.03       1.0  T
   3   -142.1243808  0.134040E-04  0.135E-02    3.03       1.0  T
   4   -142.1243968 -0.160129E-04  0.172E-03    3.03       6.8  T
   5   -142.1243969 -0.821978E-07  0.946E-04    3.03      12.5  T
   6   -142.1243969 -0.811212E-08  0.442E-04    3.03      26.7  T
     SCC iter.                  ...        0 min,  0.139 sec
     gradient                   ...        0 min,  0.129 sec
 * total energy  :  -140.5264827 Eh     change       -0.2814629E-03 Eh
   gradient norm :     0.0047626 Eh/α   predicted    -0.2327181E-03 ( -17.32%)
   displ. norm   :     0.3443123 α      lambda       -0.2424806E-03
   maximum displ.:     0.1696503 α      in ANC's #7, #10, #1, ...

........................................................................
.............................. CYCLE   12 ..............................
........................................................................
   1   -142.1251254 -0.142125E+03  0.616E-02    3.02       0.0  T
   2   -142.1251292 -0.382280E-05  0.363E-02    3.02       1.0  T
   3   -142.1251227  0.648784E-05  0.976E-03    3.02       1.2  T
   4   -142.1251306 -0.785852E-05  0.157E-03    3.02       7.5  T
   5   -142.1251307 -0.123574E-06  0.735E-04    3.02      16.0  T
   6   -142.1251307 -0.239618E-08  0.366E-04    3.02      32.2  T
     SCC iter.                  ...        0 min,  0.134 sec
     gradient                   ...        0 min,  0.150 sec
 * total energy  :  -140.5266570 Eh     change       -0.1742546E-03 Eh
   gradient norm :     0.0051081 Eh/α   predicted    -0.1356204E-03 ( -22.17%)
   displ. norm   :     0.3205406 α      lambda       -0.1935474E-03
   maximum displ.:     0.1577883 α      in ANC's #7, #1, #10, ...

........................................................................
.............................. CYCLE   13 ..............................
........................................................................
   1   -142.1244093 -0.142124E+03  0.553E-02    3.01       0.0  T
   2   -142.1244143 -0.496538E-05  0.326E-02    3.01       1.0  T
   3   -142.1244087  0.556203E-05  0.997E-03    3.01       1.2  T
   4   -142.1244157 -0.698457E-05  0.185E-03    3.01       6.4  T
   5   -142.1244159 -0.179046E-06  0.802E-04    3.01      14.7  T
   6   -142.1244159 -0.549090E-08  0.413E-04    3.01      28.5  T
     SCC iter.                  ...        0 min,  0.136 sec
     gradient                   ...        0 min,  0.120 sec
 * total energy  :  -140.5267872 Eh     change       -0.1302655E-03 Eh
   gradient norm :     0.0053413 Eh/α   predicted    -0.1067186E-03 ( -18.08%)
   displ. norm   :     0.3039280 α      lambda       -0.2223759E-03
   maximum displ.:     0.1441009 α      in ANC's #1, #7, #22, ...

........................................................................
.............................. CYCLE   14 ..............................
........................................................................
   1   -142.1270986 -0.142127E+03  0.519E-02    2.99       0.0  T
   2   -142.1271036 -0.496520E-05  0.308E-02    2.99       1.0  T
   3   -142.1270983  0.524760E-05  0.101E-02    2.99       1.2  T
   4   -142.1271052 -0.682695E-05  0.212E-03    3.00       5.6  T
   5   -142.1271053 -0.161365E-06  0.103E-03    3.00      11.4  T
   6   -142.1271053 -0.110961E-07  0.482E-04    3.00      24.5  T
   7   -142.1271054 -0.219768E-08  0.192E-04    3.00      61.4  T
     SCC iter.                  ...        0 min,  0.161 sec
     gradient                   ...        0 min,  0.138 sec
 * total energy  :  -140.5269068 Eh     change       -0.1196114E-03 Eh
   gradient norm :     0.0090260 Eh/α   predicted    -0.1214591E-03 (   1.54%)
   displ. norm   :     0.2452404 α      lambda       -0.1842364E-03
   maximum displ.:     0.1208696 α      in ANC's #1, #7, #22, ...

........................................................................
.............................. CYCLE   15 ..............................
........................................................................
   1   -142.1238839 -0.142124E+03  0.455E-02    2.98       0.0  T
   2   -142.1238871 -0.321917E-05  0.267E-02    2.98       1.0  T
   3   -142.1238845  0.261280E-05  0.707E-03    2.99       1.7  T
   4   -142.1238879 -0.342732E-05  0.163E-03    2.99       7.2  T
   5   -142.1238880 -0.101728E-06  0.825E-04    2.99      14.3  T
   6   -142.1238880 -0.104985E-07  0.423E-04    2.99      27.9  T
     SCC iter.                  ...        0 min,  0.136 sec
     gradient                   ...        0 min,  0.145 sec
 * total energy  :  -140.5270472 Eh     change       -0.1403600E-03 Eh
   gradient norm :     0.0064029 Eh/α   predicted    -0.9768388E-04 ( -30.40%)
   displ. norm   :     0.3659801 α      lambda       -0.3549497E-03
   maximum displ.:     0.1770809 α      in ANC's #1, #22, #21, ...

........................................................................
.............................. CYCLE   16 ..............................
........................................................................
   1   -142.1229536 -0.142123E+03  0.810E-02    2.95       0.0  T
   2   -142.1229643 -0.107169E-04  0.474E-02    2.96       1.0  T
   3   -142.1229535  0.108768E-04  0.148E-02    2.96       1.0  T
   4   -142.1229670 -0.135302E-04  0.365E-03    2.97       3.2  T
   5   -142.1229677 -0.706932E-06  0.155E-03    2.97       7.6  T
   6   -142.1229677 -0.122007E-07  0.712E-04    2.97      16.5  T
   7   -142.1229677 -0.887820E-08  0.256E-04    2.97      46.1  T
     SCC iter.                  ...        0 min,  0.159 sec
     gradient                   ...        0 min,  0.161 sec
 * total energy  :  -140.5272968 Eh     change       -0.2495822E-03 Eh
   gradient norm :     0.0097996 Eh/α   predicted    -0.2012460E-03 ( -19.37%)
   displ. norm   :     0.3595335 α      lambda       -0.3461122E-03
   maximum displ.:     0.1811375 α      in ANC's #1, #22, #30, ...

........................................................................
.............................. CYCLE   17 ..............................
........................................................................
   1   -142.1201878 -0.142120E+03  0.757E-02    2.97       0.0  T
   2   -142.1201944 -0.667033E-05  0.444E-02    2.97       1.0  T
   3   -142.1201846  0.980528E-05  0.132E-02    2.97       1.0  T
   4   -142.1201968 -0.121330E-04  0.270E-03    2.98       4.4  T
   5   -142.1201970 -0.238577E-06  0.138E-03    2.97       8.5  T
   6   -142.1201970 -0.217544E-07  0.712E-04    2.97      16.6  T
   7   -142.1201970 -0.535374E-08  0.179E-04    2.97      65.9  T
     SCC iter.                  ...        0 min,  0.164 sec
     gradient                   ...        0 min,  0.141 sec
 * total energy  :  -140.5275390 Eh     change       -0.2422324E-03 Eh
   gradient norm :     0.0110252 Eh/α   predicted    -0.1954300E-03 ( -19.32%)
   displ. norm   :     0.3464811 α      lambda       -0.3495505E-03
   maximum displ.:     0.1850071 α      in ANC's #1, #30, #18, ...

........................................................................
.............................. CYCLE   18 ..............................
........................................................................
   1   -142.1214905 -0.142121E+03  0.812E-02    2.95       0.0  T
   2   -142.1214961 -0.562940E-05  0.479E-02    2.96       1.0  T
   3   -142.1214867  0.940213E-05  0.129E-02    2.96       1.0  T
   4   -142.1214985 -0.117525E-04  0.257E-03    2.96       4.6  T
   5   -142.1214986 -0.163787E-06  0.143E-03    2.96       8.2  T
   6   -142.1214986 -0.214659E-07  0.649E-04    2.96      18.2  T
   7   -142.1214986 -0.580499E-08  0.182E-04    2.96      64.6  T
     SCC iter.                  ...        0 min,  0.158 sec
     gradient                   ...        0 min,  0.147 sec
 * total energy  :  -140.5277962 Eh     change       -0.2571795E-03 Eh
   gradient norm :     0.0116288 Eh/α   predicted    -0.1957586E-03 ( -23.88%)
   displ. norm   :     0.3705989 α      lambda       -0.4688399E-03
   maximum displ.:     0.2250367 α      in ANC's #1, #30, #3, ...

........................................................................
.............................. CYCLE   19 ..............................
........................................................................
   1   -142.1252049 -0.142125E+03  0.746E-02    3.04       0.0  T
   2   -142.1252162 -0.112683E-04  0.442E-02    3.03       1.0  T
   3   -142.1252108  0.534454E-05  0.131E-02    3.03       1.0  T
   4   -142.1252187 -0.785099E-05  0.277E-03    3.03       4.3  T
   5   -142.1252190 -0.293600E-06  0.148E-03    3.03       8.0  T
   6   -142.1252190 -0.372768E-07  0.679E-04    3.03      17.4  T
   7   -142.1252190 -0.460412E-08  0.191E-04    3.03      61.6  T
     SCC iter.                  ...        0 min,  0.158 sec
     gradient                   ...        0 min,  0.130 sec
 * total energy  :  -140.5280584 Eh     change       -0.2621821E-03 Eh
   gradient norm :     0.0084885 Eh/α   predicted    -0.2666207E-03 (   1.69%)
   displ. norm   :     0.6545545 α      lambda       -0.5823107E-03
   maximum displ.:     0.3839559 α      in ANC's #1, #3, #30, ...

........................................................................
.............................. CYCLE   20 ..............................
........................................................................
   1   -142.1168085 -0.142117E+03  0.146E-01    2.79       0.0  T
   2   -142.1168569 -0.484447E-04  0.863E-02    2.84       1.0  T
   3   -142.1168281  0.288843E-04  0.309E-02    2.82       1.0  T
   4   -142.1168713 -0.432287E-04  0.541E-03    2.85       2.2  T
   5   -142.1168722 -0.911485E-06  0.308E-03    2.84       3.8  T
   6   -142.1168724 -0.166432E-06  0.124E-03    2.84       9.5  T
   7   -142.1168724 -0.124225E-07  0.420E-04    2.84      28.0  T
   8   -142.1168724 -0.566587E-08  0.154E-04    2.84      76.5  T
     SCC iter.                  ...        0 min,  0.188 sec
     gradient                   ...        0 min,  0.130 sec
 * total energy  :  -140.5279020 Eh     change        0.1563615E-03 Eh
   gradient norm :     0.0319453 Eh/α   predicted    -0.4159010E-03 (-365.99%)
   displ. norm   :     0.1698728 α      lambda       -0.1181284E-02
   maximum displ.:     0.0707622 α      in ANC's #30, #22, #7, ...
 * RMSD in coord.:     0.6305262 α      energy gain  -0.2771555E-01 Eh

generating ANC from model Hessian ...
Using Lindh-Hessian (1995)
 Shifting diagonal of input Hessian by    9.8735868059557329E-003
 Lowest  eigenvalues of input Hessian
    0.000000    0.000000    0.000000    0.000000    0.000000    0.000000
    0.010000    0.010197    0.010360    0.010558    0.010567    0.010689
    0.010767    0.010832    0.010997    0.011342    0.011594    0.012448
 Highest eigenvalues
    2.033214    2.041004    2.043922    2.332083    2.346085    2.381709


........................................................................
.............................. CYCLE   21 ..............................
........................................................................
   1   -142.1287588 -0.142129E+03  0.604E-02    3.01       0.0  T
   2   -142.1287860 -0.272428E-04  0.356E-02    2.97       1.0  T
   3   -142.1287845  0.151107E-05  0.173E-02    2.98       1.0  T
   4   -142.1287908 -0.628750E-05  0.364E-03    2.97       3.2  T
   5   -142.1287914 -0.578222E-06  0.173E-03    2.97       6.8  T
   6   -142.1287915 -0.106232E-06  0.796E-04    2.97      14.8  T
   7   -142.1287915 -0.528337E-08  0.260E-04    2.97      45.3  T
     SCC iter.                  ...        0 min,  0.161 sec
     gradient                   ...        0 min,  0.157 sec
 * total energy  :  -140.5284324 Eh     change       -0.5303734E-03 Eh
   gradient norm :     0.0108901 Eh/α   predicted     0.0000000E+00 (-100.00%)
   displ. norm   :     0.0808100 α      lambda       -0.2654085E-03
   maximum displ.:     0.0305095 α      in ANC's #4, #3, #1, ...

........................................................................
.............................. CYCLE   22 ..............................
........................................................................
   1   -142.1273211 -0.142127E+03  0.288E-02    2.99       0.0  T
   2   -142.1273247 -0.367469E-05  0.171E-02    2.99       1.0  T
   3   -142.1273237  0.998214E-06  0.710E-03    2.99       1.7  T
   4   -142.1273253 -0.158520E-05  0.178E-03    2.99       6.6  T
   5   -142.1273255 -0.175535E-06  0.602E-04    2.99      19.6  T
   6   -142.1273255 -0.655996E-08  0.331E-04    2.99      35.6  T
     SCC iter.                  ...        0 min,  0.136 sec
     gradient                   ...        0 min,  0.140 sec
 * total energy  :  -140.5286281 Eh     change       -0.1957217E-03 Eh
   gradient norm :     0.0045377 Eh/α   predicted    -0.1336280E-03 ( -31.73%)
   displ. norm   :     0.1874631 α      lambda       -0.2811959E-03
   maximum displ.:     0.0775132 α      in ANC's #4, #3, #1, ...

........................................................................
.............................. CYCLE   23 ..............................
........................................................................
   1   -142.1255109 -0.142126E+03  0.495E-02    3.00       0.0  T
   2   -142.1255173 -0.637883E-05  0.293E-02    3.00       1.0  T
   3   -142.1255136  0.368144E-05  0.104E-02    3.01       1.1  T
   4   -142.1255185 -0.493842E-05  0.260E-03    3.00       4.5  T
   5   -142.1255189 -0.329741E-06  0.101E-03    3.00      11.7  T
   6   -142.1255189 -0.123916E-07  0.554E-04    3.00      21.3  T
   7   -142.1255189 -0.240541E-08  0.161E-04    3.00      73.4  T
     SCC iter.                  ...        0 min,  0.157 sec
     gradient                   ...        0 min,  0.147 sec
 * total energy  :  -140.5288348 Eh     change       -0.2066774E-03 Eh
   gradient norm :     0.0047797 Eh/α   predicted    -0.1456127E-03 ( -29.55%)
   displ. norm   :     0.3126213 α      lambda       -0.3108425E-03
   maximum displ.:     0.1328131 α      in ANC's #4, #3, #1, ...

........................................................................
.............................. CYCLE   24 ..............................
........................................................................
   1   -142.1234298 -0.142123E+03  0.815E-02    2.97       0.0  T
   2   -142.1234358 -0.603882E-05  0.481E-02    2.98       1.0  T
   3   -142.1234276  0.820141E-05  0.129E-02    2.99       1.0  T
   4   -142.1234381 -0.105119E-04  0.279E-03    2.98       4.2  T
   5   -142.1234383 -0.191329E-06  0.150E-03    2.98       7.9  T
   6   -142.1234383 -0.110722E-07  0.652E-04    2.98      18.1  T
   7   -142.1234384 -0.812463E-08  0.167E-04    2.98      70.6  T
     SCC iter.                  ...        0 min,  0.162 sec
     gradient                   ...        0 min,  0.128 sec
 * total energy  :  -140.5290863 Eh     change       -0.2515329E-03 Eh
   gradient norm :     0.0116449 Eh/α   predicted    -0.1706612E-03 ( -32.15%)
   displ. norm   :     0.4985892 α      lambda       -0.4679526E-03
   maximum displ.:     0.2162963 α      in ANC's #4, #3, #1, ...

........................................................................
.............................. CYCLE   25 ..............................
........................................................................
   1   -142.1205248 -0.142121E+03  0.123E-01    2.90       0.0  T
   2   -142.1205389 -0.140968E-04  0.718E-02    2.92       1.0  T
   3   -142.1205230  0.158829E-04  0.196E-02    2.91       1.0  T
   4   -142.1205448 -0.217039E-04  0.424E-03    2.92       2.8  T
   5   -142.1205451 -0.390034E-06  0.246E-03    2.92       4.8  T
   6   -142.1205452 -0.520861E-07  0.707E-04    2.92      16.7  T
   7   -142.1205452 -0.669831E-08  0.222E-04    2.92      53.2  T
     SCC iter.                  ...        0 min,  0.152 sec
     gradient                   ...        0 min,  0.115 sec
 * total energy  :  -140.5293758 Eh     change       -0.2894491E-03 Eh
   gradient norm :     0.0219053 Eh/α   predicted    -0.2921427E-03 (   0.93%)
   displ. norm   :     0.2239571 α      lambda       -0.4450547E-03
   maximum displ.:     0.1146468 α      in ANC's #4, #1, #3, ...

........................................................................
.............................. CYCLE   26 ..............................
........................................................................
   1   -142.1242141 -0.142124E+03  0.395E-02    2.97       0.0  T
   2   -142.1242222 -0.810168E-05  0.225E-02    2.96       1.0  T
   3   -142.1242217  0.552258E-06  0.727E-03    2.96       1.6  T
   4   -142.1242225 -0.866568E-06  0.252E-03    2.96       4.7  T
   5   -142.1242229 -0.352390E-06  0.818E-04    2.96      14.4  T
   6   -142.1242229 -0.103302E-07  0.440E-04    2.96      26.8  T
     SCC iter.                  ...        0 min,  0.139 sec
     gradient                   ...        0 min,  0.142 sec
 * total energy  :  -140.5297250 Eh     change       -0.3491986E-03 Eh
   gradient norm :     0.0119187 Eh/α   predicted    -0.2336888E-03 ( -33.08%)
   displ. norm   :     0.4306559 α      lambda       -0.5909398E-03
   maximum displ.:     0.2274246 α      in ANC's #4, #1, #3, ...

........................................................................
.............................. CYCLE   27 ..............................
........................................................................
   1   -142.1283818 -0.142128E+03  0.855E-02    2.99       0.0  T
   2   -142.1283918 -0.100495E-04  0.501E-02    2.99       1.0  T
   3   -142.1283861  0.572926E-05  0.118E-02    2.99       1.0  T
   4   -142.1283940 -0.786961E-05  0.317E-03    2.99       3.7  T
   5   -142.1283943 -0.373148E-06  0.159E-03    2.99       7.4  T
   6   -142.1283944 -0.249912E-07  0.705E-04    2.99      16.7  T
   7   -142.1283944 -0.657212E-08  0.222E-04    2.99      53.2  T
     SCC iter.                  ...        0 min,  0.157 sec
     gradient                   ...        0 min,  0.136 sec
 * total energy  :  -140.5301586 Eh     change       -0.4335947E-03 Eh
   gradient norm :     0.0079839 Eh/α   predicted    -0.3502739E-03 ( -19.22%)
   displ. norm   :     0.4737142 α      lambda       -0.4302970E-03
   maximum displ.:     0.2630184 α      in ANC's #4, #1, #3, ...

........................................................................
.............................. CYCLE   28 ..............................
........................................................................
   1   -142.1289300 -0.142129E+03  0.882E-02    2.99       0.0  T
   2   -142.1289387 -0.870151E-05  0.512E-02    2.99       1.0  T
   3   -142.1289346  0.410383E-05  0.104E-02    2.99       1.1  T
   4   -142.1289406 -0.596181E-05  0.313E-03    2.99       3.8  T
   5   -142.1289409 -0.340497E-06  0.156E-03    2.99       7.5  T
   6   -142.1289409 -0.272605E-07  0.732E-04    2.99      16.1  T
   7   -142.1289409 -0.787864E-08  0.219E-04    2.99      53.7  T
     SCC iter.                  ...        0 min,  0.157 sec
     gradient                   ...        0 min,  0.145 sec
 * total energy  :  -140.5304962 Eh     change       -0.3376410E-03 Eh
   gradient norm :     0.0092921 Eh/α   predicted    -0.2634305E-03 ( -21.98%)
   displ. norm   :     0.4473188 α      lambda       -0.5390150E-03
   maximum displ.:     0.2702290 α      in ANC's #4, #1, #5, ...

........................................................................
.............................. CYCLE   29 ..............................
........................................................................
   1   -142.1339220 -0.142134E+03  0.740E-02    3.15       0.0  T
   2   -142.1339519 -0.299324E-04  0.440E-02    3.11       1.0  T
   3   -142.1339495  0.235042E-05  0.192E-02    3.12       1.0  T
   4   -142.1339583 -0.876893E-05  0.282E-03    3.11       4.2  T
   5   -142.1339586 -0.281347E-06  0.158E-03    3.11       7.4  T
   6   -142.1339587 -0.616506E-07  0.734E-04    3.11      16.1  T
   7   -142.1339587 -0.372330E-08  0.265E-04    3.11      44.5  T
     SCC iter.                  ...        0 min,  0.157 sec
     gradient                   ...        0 min,  0.125 sec
 * total energy  :  -140.5306112 Eh     change       -0.1150308E-03 Eh
   gradient norm :     0.0188581 Eh/α   predicted    -0.3234505E-03 ( 181.19%)
   displ. norm   :     0.4901537 α      lambda       -0.7315042E-03
   maximum displ.:     0.2715909 α      in ANC's #4, #1, #3, ...

........................................................................
.............................. CYCLE   30 ..............................
........................................................................
   1   -142.1261430 -0.142126E+03  0.108E-01    2.94       0.0  T
   2   -142.1261751 -0.320759E-04  0.639E-02    2.98       1.0  T
   3   -142.1261619  0.132376E-04  0.232E-02    2.97       1.0  T
   4   -142.1261840 -0.221449E-04  0.402E-03    2.98       2.9  T
   5   -142.1261844 -0.352591E-06  0.238E-03    2.98       4.9  T
   6   -142.1261845 -0.848697E-07  0.789E-04    2.98      14.9  T
   7   -142.1261845 -0.622774E-08  0.304E-04    2.98      38.8  T
     SCC iter.                  ...        0 min,  0.158 sec
     gradient                   ...        0 min,  0.141 sec
 * total energy  :  -140.5309549 Eh     change       -0.3436948E-03 Eh
   gradient norm :     0.0155252 Eh/α   predicted    -0.4536262E-03 (  31.99%)
   displ. norm   :     0.0703855 α      lambda       -0.2407997E-03
   maximum displ.:     0.0418520 α      in ANC's #4, #5, #1, ...

........................................................................
.............................. CYCLE   31 ..............................
........................................................................
   1   -142.1283857 -0.142128E+03  0.188E-02    3.03       0.0  T
   2   -142.1283922 -0.651656E-05  0.112E-02    3.02       1.0  T
   3   -142.1283923 -0.967003E-07  0.556E-03    3.02       2.1  T
   4   -142.1283923  0.570486E-08  0.193E-03    3.02       6.1  T
   5   -142.1283926 -0.254612E-06  0.460E-04    3.02      25.6  T
   6   -142.1283926 -0.853504E-08  0.209E-04    3.02      56.3  T
     SCC iter.                  ...        0 min,  0.135 sec
     gradient                   ...        0 min,  0.155 sec
 * total energy  :  -140.5311262 Eh     change       -0.1712691E-03 Eh
   gradient norm :     0.0073845 Eh/α   predicted    -0.1210044E-03 ( -29.35%)
   displ. norm   :     0.3748911 α      lambda       -0.3365261E-03
   maximum displ.:     0.2439808 α      in ANC's #4, #1, #5, ...

........................................................................
.............................. CYCLE   32 ..............................
........................................................................
   1   -142.1301604 -0.142130E+03  0.569E-02    3.05       0.0  T
   2   -142.1301663 -0.590806E-05  0.334E-02    3.05       1.0  T
   3   -142.1301621  0.419435E-05  0.105E-02    3.06       1.1  T
   4   -142.1301676 -0.554853E-05  0.234E-03    3.05       5.0  T
   5   -142.1301679 -0.264863E-06  0.105E-03    3.05      11.2  T
   6   -142.1301679 -0.131557E-07  0.508E-04    3.05      23.2  T
   7   -142.1301679 -0.230142E-08  0.153E-04    3.05      76.9  T
     SCC iter.                  ...        0 min,  0.159 sec
     gradient                   ...        0 min,  0.113 sec
 * total energy  :  -140.5313811 Eh     change       -0.2548681E-03 Eh
   gradient norm :     0.0046765 Eh/α   predicted    -0.1919125E-03 ( -24.70%)
   displ. norm   :     0.5604976 α      lambda       -0.2840937E-03
   maximum displ.:     0.3636789 α      in ANC's #4, #1, #5, ...

........................................................................
.............................. CYCLE   33 ..............................
........................................................................
   1   -142.1281673 -0.142128E+03  0.871E-02    3.02       0.0  T
   2   -142.1281725 -0.525758E-05  0.512E-02    3.03       1.0  T
   3   -142.1281637  0.884392E-05  0.132E-02    3.03       1.0  T
   4   -142.1281750 -0.113133E-04  0.267E-03    3.03       4.4  T
   5   -142.1281751 -0.127560E-06  0.153E-03    3.03       7.7  T
   6   -142.1281752 -0.215317E-07  0.508E-04    3.03      23.2  T
   7   -142.1281752 -0.356241E-08  0.171E-04    3.03      68.9  T
     SCC iter.                  ...        0 min,  0.158 sec
     gradient                   ...        0 min,  0.143 sec
 * total energy  :  -140.5315836 Eh     change       -0.2025332E-03 Eh
   gradient norm :     0.0064918 Eh/α   predicted    -0.1866733E-03 (  -7.83%)
   displ. norm   :     0.3762005 α      lambda       -0.1884679E-03
   maximum displ.:     0.2558681 α      in ANC's #4, #5, #1, ...

........................................................................
.............................. CYCLE   34 ..............................
........................................................................
   1   -142.1297966 -0.142130E+03  0.552E-02    3.06       0.0  T
   2   -142.1298074 -0.108076E-04  0.325E-02    3.05       1.0  T
   3   -142.1298037  0.364489E-05  0.123E-02    3.06       1.0  T
   4   -142.1298089 -0.520048E-05  0.301E-03    3.05       3.9  T
   5   -142.1298094 -0.474364E-06  0.107E-03    3.05      11.0  T
   6   -142.1298094 -0.224322E-07  0.570E-04    3.05      20.7  T
   7   -142.1298094 -0.145496E-08  0.150E-04    3.05      78.7  T
     SCC iter.                  ...        0 min,  0.165 sec
     gradient                   ...        0 min,  0.136 sec
 * total energy  :  -140.5317026 Eh     change       -0.1189938E-03 Eh
   gradient norm :     0.0054922 Eh/α   predicted    -0.1075792E-03 (  -9.59%)
   displ. norm   :     0.3228616 α      lambda       -0.1066022E-03
   maximum displ.:     0.2222509 α      in ANC's #4, #1, #5, ...

........................................................................
.............................. CYCLE   35 ..............................
........................................................................
   1   -142.1295682 -0.142130E+03  0.456E-02    3.06       0.0  T
   2   -142.1295726 -0.436725E-05  0.265E-02    3.06       1.0  T
   3   -142.1295699  0.274574E-05  0.833E-03    3.05       1.4  T
   4   -142.1295734 -0.350072E-05  0.216E-03    3.06       5.5  T
   5   -142.1295736 -0.215118E-06  0.818E-04    3.06      14.4  T
   6   -142.1295736 -0.951667E-08  0.448E-04    3.06      26.3  T
     SCC iter.                  ...        0 min,  0.138 sec
     gradient                   ...        0 min,  0.125 sec
 * total energy  :  -140.5317767 Eh     change       -0.7406529E-04 Eh
   gradient norm :     0.0032342 Eh/α   predicted    -0.5886440E-04 ( -20.52%)
   displ. norm   :     0.1821347 α      lambda       -0.8352265E-04
   maximum displ.:     0.1241322 α      in ANC's #4, #5, #3, ...

........................................................................
.............................. CYCLE   36 ..............................
........................................................................
   1   -142.1323657 -0.142132E+03  0.282E-02    3.09       0.0  T
   2   -142.1323674 -0.168203E-05  0.166E-02    3.08       1.0  T
   3   -142.1323663  0.106053E-05  0.550E-03    3.08       2.1  T
   4   -142.1323677 -0.138734E-05  0.119E-03    3.08       9.9  T
   5   -142.1323678 -0.608165E-07  0.479E-04    3.08      24.6  T
   6   -142.1323678 -0.361743E-08  0.236E-04    3.08      49.9  T
     SCC iter.                  ...        0 min,  0.135 sec
     gradient                   ...        0 min,  0.134 sec
 * total energy  :  -140.5318285 Eh     change       -0.5187496E-04 Eh
   gradient norm :     0.0051507 Eh/α   predicted    -0.4314737E-04 ( -16.82%)
   displ. norm   :     0.2617400 α      lambda       -0.6736576E-04
   maximum displ.:     0.1823083 α      in ANC's #4, #5, #3, ...

........................................................................
.............................. CYCLE   37 ..............................
........................................................................
   1   -142.1313666 -0.142131E+03  0.384E-02    3.07       0.0  T
   2   -142.1313677 -0.110262E-05  0.226E-02    3.07       1.0  T
   3   -142.1313654  0.228068E-05  0.663E-03    3.07       1.8  T
   4   -142.1313682 -0.281061E-05  0.117E-03    3.07      10.1  T
   5   -142.1313682 -0.267474E-07  0.631E-04    3.07      18.7  T
   6   -142.1313682 -0.362093E-08  0.246E-04    3.07      47.9  T
     SCC iter.                  ...        0 min,  0.135 sec
     gradient                   ...        0 min,  0.139 sec
 * total energy  :  -140.5318718 Eh     change       -0.4325969E-04 Eh
   gradient norm :     0.0033545 Eh/α   predicted    -0.3599548E-04 ( -16.79%)
   displ. norm   :     0.1226518 α      lambda       -0.4441498E-04
   maximum displ.:     0.0673315 α      in ANC's #4, #10, #23, ...

........................................................................
.............................. CYCLE   38 ..............................
........................................................................
   1   -142.1316818 -0.142132E+03  0.199E-02    3.08       0.0  T
   2   -142.1316820 -0.232407E-06  0.117E-02    3.08       1.0  T
   3   -142.1316810  0.101865E-05  0.420E-03    3.08       2.8  T
   4   -142.1316822 -0.120407E-05  0.439E-04    3.08      26.8  T
   5   -142.1316822 -0.277103E-08  0.243E-04    3.08      48.6  T
   6   -142.1316822 -0.536204E-09  0.108E-04    3.08     108.9  T
     SCC iter.                  ...        0 min,  0.135 sec
     gradient                   ...        0 min,  0.146 sec
 * total energy  :  -140.5319066 Eh     change       -0.3480800E-04 Eh
   gradient norm :     0.0030003 Eh/α   predicted    -0.2254165E-04 ( -35.24%)
   displ. norm   :     0.1694708 α      lambda       -0.5739144E-04
   maximum displ.:     0.0750098 α      in ANC's #4, #10, #23, ...

........................................................................
.............................. CYCLE   39 ..............................
........................................................................
   1   -142.1312750 -0.142131E+03  0.274E-02    3.08       0.0  T
   2   -142.1312756 -0.636629E-06  0.162E-02    3.08       1.0  T
   3   -142.1312735  0.207914E-05  0.581E-03    3.08       2.0  T
   4   -142.1312760 -0.245774E-05  0.692E-04    3.08      17.0  T
   5   -142.1312760 -0.149812E-07  0.339E-04    3.08      34.8  T
   6   -142.1312760 -0.117006E-08  0.177E-04    3.08      66.7  T
     SCC iter.                  ...        0 min,  0.136 sec
     gradient                   ...        0 min,  0.155 sec
 * total energy  :  -140.5319456 Eh     change       -0.3896966E-04 Eh
   gradient norm :     0.0023193 Eh/α   predicted    -0.2952146E-04 ( -24.25%)
   displ. norm   :     0.1115490 α      lambda       -0.3001204E-04
   maximum displ.:     0.0426204 α      in ANC's #10, #4, #23, ...

........................................................................
.............................. CYCLE   40 ..............................
........................................................................
   1   -142.1310043 -0.142131E+03  0.179E-02    3.07       0.0  T
   2   -142.1310046 -0.296983E-06  0.106E-02    3.07       1.1  T
   3   -142.1310039  0.729380E-06  0.337E-03    3.07       3.5  T
   4   -142.1310048 -0.862861E-06  0.474E-04    3.07      24.9  T
   5   -142.1310048 -0.765519E-08  0.231E-04    3.07      51.1  T
     SCC iter.                  ...        0 min,  0.113 sec
     gradient                   ...        0 min,  0.136 sec
 * total energy  :  -140.5319678 Eh     change       -0.2227010E-04 Eh
   gradient norm :     0.0021977 Eh/α   predicted    -0.1519603E-04 ( -31.76%)
   displ. norm   :     0.1143977 α      lambda       -0.3092061E-04
   maximum displ.:     0.0459030 α      in ANC's #23, #4, #26, ...

........................................................................
.............................. CYCLE   41 ..............................
........................................................................
   1   -142.1307651 -0.142131E+03  0.184E-02    3.07       0.0  T
   2   -142.1307655 -0.336862E-06  0.109E-02    3.07       1.1  T
   3   -142.1307648  0.681030E-06  0.325E-03    3.07       3.6  T
   4   -142.1307656 -0.817591E-06  0.494E-04    3.07      23.9  T
   5   -142.1307656 -0.749046E-08  0.252E-04    3.07      46.9  T
     SCC iter.                  ...        0 min,  0.113 sec
     gradient                   ...        0 min,  0.140 sec
 * total energy  :  -140.5319894 Eh     change       -0.2151900E-04 Eh
   gradient norm :     0.0020996 Eh/α   predicted    -0.1566686E-04 ( -27.20%)
   displ. norm   :     0.0747759 α      lambda       -0.1979745E-04
   maximum displ.:     0.0284279 α      in ANC's #23, #26, #9, ...

........................................................................
.............................. CYCLE   42 ..............................
........................................................................
   1   -142.1311334 -0.142131E+03  0.121E-02    3.07       0.0  T
   2   -142.1311337 -0.244955E-06  0.712E-03    3.07       1.7  T
   3   -142.1311334  0.289129E-06  0.231E-03    3.07       5.1  T
   4   -142.1311337 -0.357242E-06  0.449E-04    3.07      26.3  T
   5   -142.1311338 -0.105795E-07  0.190E-04    3.07      62.0  T
     SCC iter.                  ...        0 min,  0.112 sec
     gradient                   ...        0 min,  0.145 sec
 * total energy  :  -140.5320027 Eh     change       -0.1334843E-04 Eh
   gradient norm :     0.0014728 Eh/α   predicted    -0.9955410E-05 ( -25.42%)
   displ. norm   :     0.1002960 α      lambda       -0.1245897E-04
   maximum displ.:     0.0480215 α      in ANC's #4, #23, #9, ...
 * RMSD in coord.:     0.5997404 α      energy gain  -0.4100694E-02 Eh

generating ANC from model Hessian ...
Using Lindh-Hessian (1995)
 Shifting diagonal of input Hessian by    9.8723432964408220E-003
 Lowest  eigenvalues of input Hessian
    0.000000    0.000000    0.000000    0.000000    0.000000    0.000000
    0.010000    0.010220    0.010322    0.010484    0.010569    0.010663
    0.010729    0.010843    0.010868    0.011400    0.011634    0.012447
 Highest eigenvalues
    2.031691    2.039097    2.043705    2.344561    2.353161    2.392466


........................................................................
.............................. CYCLE   43 ..............................
........................................................................
   1   -142.1310526 -0.142131E+03  0.144E-02    3.07       0.0  T
   2   -142.1310531 -0.423619E-06  0.849E-03    3.07       1.4  T
   3   -142.1310527  0.328083E-06  0.270E-03    3.07       4.4  T
   4   -142.1310531 -0.408616E-06  0.659E-04    3.07      17.9  T
   5   -142.1310532 -0.252601E-07  0.237E-04    3.07      49.7  T
     SCC iter.                  ...        0 min,  0.114 sec
     gradient                   ...        0 min,  0.143 sec
 * total energy  :  -140.5320110 Eh     change       -0.8265840E-05 Eh
   gradient norm :     0.0017160 Eh/α   predicted     0.0000000E+00 (-100.00%)
   displ. norm   :     0.0029809 α      lambda       -0.3107984E-05
   maximum displ.:     0.0014931 α      in ANC's #1, #120, #137, ...

........................................................................
.............................. CYCLE   44 ..............................
........................................................................
   1   -142.1310604 -0.142131E+03  0.236E-03    3.07       0.0  T
   2   -142.1310606 -0.167545E-06  0.142E-03    3.07       8.3  T
   3   -142.1310606 -0.336510E-07  0.827E-04    3.07      14.2  T
   4   -142.1310606 -0.238850E-08  0.355E-04    3.07      33.2  T
     SCC iter.                  ...        0 min,  0.099 sec
     gradient                   ...        0 min,  0.143 sec
 * total energy  :  -140.5320134 Eh     change       -0.2457498E-05 Eh
   gradient norm :     0.0010246 Eh/α   predicted    -0.1558925E-05 ( -36.56%)
   displ. norm   :     0.0029129 α      lambda        0.1969563E-05
   maximum displ.:     0.0013518 α      in ANC's #1, #120, #137, ...

........................................................................
.............................. CYCLE   45 ..............................
........................................................................
   1   -142.1310667 -0.142131E+03  0.238E-03    3.07       0.0  T
   2   -142.1310669 -0.164433E-06  0.144E-03    3.07       8.2  T
   3   -142.1310669 -0.353485E-07  0.845E-04    3.07      13.9  T
   4   -142.1310669 -0.270325E-08  0.354E-04    3.07      33.3  T
     SCC iter.                  ...        0 min,  0.093 sec
     gradient                   ...        0 min,  0.151 sec
 * total energy  :  -140.5320120 Eh     change        0.1470134E-05 Eh
   gradient norm :     0.0024176 Eh/α   predicted     0.9847405E-06 ( -33.02%)
   displ. norm   :     0.0154956 α      lambda       -0.8375094E-05
   maximum displ.:     0.0055074 α      in ANC's #30, #7, #20, ...

........................................................................
.............................. CYCLE   46 ..............................
........................................................................
   1   -142.1314223 -0.142131E+03  0.365E-03    3.07       0.0  T
   2   -142.1314224 -0.184767E-06  0.218E-03    3.07       5.4  T
   3   -142.1314224 -0.126036E-07  0.122E-03    3.07       9.6  T
   4   -142.1314225 -0.194406E-07  0.376E-04    3.07      31.4  T
   5   -142.1314225 -0.703318E-08  0.921E-05    3.07     127.9  T
     SCC iter.                  ...        0 min,  0.116 sec
     gradient                   ...        0 min,  0.138 sec
 * total energy  :  -140.5320184 Eh     change       -0.6451875E-05 Eh
   gradient norm :     0.0008215 Eh/α   predicted    -0.4201054E-05 ( -34.89%)
   displ. norm   :     0.0538696 α      lambda       -0.9562355E-05
   maximum displ.:     0.0184911 α      in ANC's #30, #7, #9, ...

........................................................................
.............................. CYCLE   47 ..............................
........................................................................
   1   -142.1318213 -0.142132E+03  0.103E-02    3.08       0.0  T
   2   -142.1318219 -0.533977E-06  0.610E-03    3.08       1.9  T
   3   -142.1318217  0.202479E-06  0.300E-03    3.08       3.9  T
   4   -142.1318220 -0.328168E-06  0.646E-04    3.07      18.2  T
   5   -142.1318220 -0.225108E-07  0.182E-04    3.07      64.7  T
     SCC iter.                  ...        0 min,  0.113 sec
     gradient                   ...        0 min,  0.120 sec
 * total energy  :  -140.5320256 Eh     change       -0.7158161E-05 Eh
   gradient norm :     0.0020477 Eh/α   predicted    -0.4834191E-05 ( -32.47%)
   displ. norm   :     0.0193353 α      lambda       -0.3701168E-05
   maximum displ.:     0.0072263 α      in ANC's #7, #9, #30, ...

........................................................................
.............................. CYCLE   48 ..............................
........................................................................
   1   -142.1316518 -0.142132E+03  0.314E-03    3.07       0.0  T
   2   -142.1316518 -0.319213E-07  0.184E-03    3.07       6.4  T
   3   -142.1316518  0.157964E-07  0.682E-04    3.07      17.3  T
   4   -142.1316518 -0.219058E-07  0.149E-04    3.07      79.0  T
     SCC iter.                  ...        0 min,  0.095 sec
     gradient                   ...        0 min,  0.136 sec
 * total energy  :  -140.5320290 Eh     change       -0.3382257E-05 Eh
   gradient norm :     0.0015325 Eh/α   predicted    -0.1870714E-05 ( -44.69%)
   displ. norm   :     0.1526262 α      lambda       -0.1637997E-04
   maximum displ.:     0.0577521 α      in ANC's #7, #9, #30, ...

........................................................................
.............................. CYCLE   49 ..............................
........................................................................
   1   -142.1306131 -0.142131E+03  0.238E-02    3.07       0.0  T
   2   -142.1306145 -0.141055E-05  0.140E-02    3.07       1.0  T
   3   -142.1306135  0.103051E-05  0.498E-03    3.07       2.4  T
   4   -142.1306148 -0.135585E-05  0.997E-04    3.07      11.8  T
   5   -142.1306149 -0.614044E-07  0.367E-04    3.07      32.1  T
   6   -142.1306149 -0.165815E-08  0.185E-04    3.07      63.6  T
     SCC iter.                  ...        0 min,  0.128 sec
     gradient                   ...        0 min,  0.140 sec
 * total energy  :  -140.5320379 Eh     change       -0.8903650E-05 Eh
   gradient norm :     0.0019101 Eh/α   predicted    -0.8280607E-05 (  -7.00%)
   displ. norm   :     0.0162557 α      lambda       -0.3675636E-05
   maximum displ.:     0.0056937 α      in ANC's #20, #19, #16, ...

........................................................................
.............................. CYCLE   50 ..............................
........................................................................
   1   -142.1311509 -0.142131E+03  0.404E-03    3.07       0.0  T
   2   -142.1311510 -0.962479E-07  0.238E-03    3.07       5.0  T
   3   -142.1311510  0.139207E-07  0.981E-04    3.07      12.0  T
   4   -142.1311510 -0.251036E-07  0.265E-04    3.07      44.5  T
     SCC iter.                  ...        0 min,  0.093 sec
     gradient                   ...        0 min,  0.144 sec
 * total energy  :  -140.5320419 Eh     change       -0.4069718E-05 Eh
   gradient norm :     0.0007977 Eh/α   predicted    -0.1866629E-05 ( -54.13%)
   displ. norm   :     0.0163003 α      lambda       -0.1407260E-05
   maximum displ.:     0.0056957 α      in ANC's #20, #19, #16, ...

   *** GEOMETRY OPTIMIZATION CONVERGED AFTER 50 ITERATIONS ***

------------------------------------------------------------------------
 total energy gain   :        -0.0318555 Eh      -19.9896 kcal/mol
 total RMSD          :         1.0078374 a0        0.5333 Å
 total power (kW/mol):        -1.6727304 (step)   -3.7139 (real)
------------------------------------------------------------------------

 ANCopt (total)                0 d,  0 h,  0 min, 22.520 sec
 optimizer setup                ...        0 min,  0.000 sec (  0.001%)
 model hessian                  ...        0 min,  0.163 sec (  0.723%)
 ANC generation                 ...        0 min,  0.041 sec (  0.181%)
 coordinate transformation      ...        0 min,  0.004 sec (  0.018%)
 single point calculation       ...        0 min, 21.631 sec ( 96.053%)
 optimization log               ...        0 min,  0.060 sec (  0.267%)
 hessian update                 ...        0 min,  0.569 sec (  2.527%)
 rational function              ...        0 min,  0.015 sec (  0.067%)

================
 final structure:
================
72
 xtb: 6.3.3 (4ae9cef)
C         1.57501420194261   -3.47354712785208   -0.58393212110258
C         0.61132824583043   -3.87450601434600   -1.66501420020636
F         0.61418573302312   -3.05650604892843   -2.73316767373220
F        -0.67086302489283   -3.89178040365526   -1.22887406145095
F         0.84140202915687   -5.10168232225694   -2.14691427615868
C         2.54330821436321   -4.38921261363468   -0.18934502870551
C         3.43623915226218   -4.07096806620422    0.81499105909967
C         3.36009652834494   -2.83601462901820    1.43435136930541
C         2.39525064498700   -1.92842205425826    1.04594119924826
C         1.49319251226480   -2.22395541575605    0.03015608700997
C         0.45770327064847   -1.19466050100536   -0.33510128257771
C        -0.57607501698209   -0.96401149494544    0.79188884524897
C        -1.79536592719923   -1.83619342578935    0.64492328859501
C        -2.10000448596593   -2.86919120482369    1.53178219424697
C        -1.20749974268477   -3.18436465773125    2.69891451260358
F         0.04078499475874   -3.53895120273443    2.30885613666753
F        -1.65215759580288   -4.20369421046737    3.44283885741313
F        -1.03640509203502   -2.15712627265960    3.55100337759511
C        -3.23293559916096   -3.65097363502558    1.33936388525351
C        -4.07042135526408   -3.41362879531308    0.26736819208752
C        -3.77147394073300   -2.39816886925452   -0.62359590654672
C        -2.64352385685403   -1.62453714377806   -0.43625848374962
N        -0.89175992004482    0.45366192569992    0.64690178511338
C        -2.03428206622168    1.01773760654512    1.12661403476555
C        -2.20695702563199    2.43980758717776    0.74043254208131
C        -3.18015756379032    2.89719206920232   -0.11091363959667
C        -4.24051401010406    2.16693233505071   -0.85252645144808
O        -3.08239430644117    4.23098608656174   -0.24450461655858
C        -2.06845825684758    4.64292402445039    0.53875975012569
C        -1.48363749134431    3.59358407345312    1.17957990716551
C        -0.36435127514158    3.64518262754375    2.16303070944893
O        -2.84646936574164    0.38995278251465    1.77083229450506
C         0.09891747168815    1.15094936868536   -0.13380246997288
C        -0.49041844091502    1.76846409547201   -1.41918285957045
O        -1.25336717805399    0.90364627304131   -2.08353140156588
O        -0.23725302245997    2.87207563883790   -1.81280931917249
N         1.05735233365277    0.12681103633630   -0.47256794004541
C         2.22080226314486    0.33664368943678   -1.16240888923605
C         2.68990621682607    1.73905288033488   -1.13783664424082
C         2.83861373043895    2.57361661194955   -2.21321120409794
C         2.51610841303529    2.37113691896313   -3.64736467881652
O         3.31835997811877    3.76122650719704   -1.80910809650323
C         3.50528384373243    3.69238897702288   -0.47761056989182
C         3.14015722986875    2.47441941158311    0.00688502263959
C         3.27287669408678    1.97746113064632    1.40504161016637
O         2.81668962007174   -0.57052435987074   -1.70054407077365
H         2.59495467714931   -5.35168254991246   -0.67379916602057
H         4.18657975532191   -4.78662899443916    1.11203611748766
H         4.05170203374030   -2.58028175413005    2.22250757582748
H         2.34199325466480   -0.96529723593986    1.52990672383879
H        -0.06581531744131   -1.45623169329388   -1.26068177515069
H        -0.09425327978159   -1.11525076732841    1.76350086651416
H        -3.45647774994125   -4.44493756926635    2.03459628426535
H        -4.95050362555800   -4.02178964142808    0.12933564569248
H        -4.41775535204966   -2.20937600303487   -1.46738200785526
H        -2.41504640810379   -0.83309652730579   -1.13286504085680
H        -5.21371788351326    2.59808343383202   -0.62393047093330
H        -4.08736656704114    2.24367610660532   -1.92907456085293
H        -4.23690701332863    1.12255926273279   -0.55365975088468
H        -1.85870737445292    5.69313032763655    0.56020752871214
H         0.57738893982733    3.88340243592250    1.66701787489932
H        -0.55341846058037    4.42270707357780    2.90042043009369
H        -0.26992261874615    2.69426935839635    2.68205452208071
H         0.57341360807110    1.97029751688669    0.42058877912581
H        -1.56836106913369    1.28419600008140   -2.91999222923818
H         3.28268518541265    2.82909811534662   -4.26809244172762
H         2.46050705844767    1.30738176082820   -3.86157849613801
H         1.56063743357073    2.83997092801371   -3.88445855302322
H         3.90688709293593    4.55866295650701    0.00898191961488
H         2.32659398446695    1.60505870865956    1.79490904023721
H         3.62425237972606    2.77782468194607    2.05123246858625
H         3.99382455441261    1.16102788070604    1.43788194103398

 Bond Distances (Angstroems)
 ---------------------------
C1-C2=1.5027         C1-C6=1.3899         C1-C10=1.3947        C2-C1=1.5027         C2-F3=1.3454         C2-F4=1.3544         
C2-F5=1.3383         F3-C2=1.3454         F4-C2=1.3544         F5-C2=1.3383         C6-C1=1.3899         C6-C7=1.3810         
C6-H47=1.0788        C7-C6=1.3810         C7-C8=1.3837         C7-H48=1.0786        C8-C7=1.3837         C8-C9=1.3804         
C8-H49=1.0793        C9-C8=1.3804         C9-C10=1.3903        C9-H50=1.0792        C10-C1=1.3947        C10-C9=1.3903        
C10-C11=1.5050       C11-C10=1.5050       C11-C12=1.5466       C11-N37=1.4577       C11-H51=1.0951       C12-C11=1.5466       
C12-C13=1.5063       C12-N23=1.4596       C12-H52=1.0950       C13-C12=1.5063       C13-C14=1.3951       C13-C22=1.3904       
C14-C13=1.3951       C14-C15=1.5027       C14-C19=1.3899       C15-C14=1.5027       C15-F16=1.3550       C15-F17=1.3380       
C15-F18=1.3456       F16-C15=1.3550       F17-C15=1.3380       F18-C15=1.3456       C19-C14=1.3899       C19-C20=1.3809       
C19-H53=1.0787       C20-C19=1.3809       C20-C21=1.3836       C20-H54=1.0786       C21-C20=1.3836       C21-C22=1.3805       
C21-H55=1.0795       C22-C13=1.3904       C22-C21=1.3805       C22-H56=1.0788       N23-C12=1.4596       N23-C24=1.3615       
N23-C33=1.4412       C24-N23=1.3615       C24-C25=1.4837       C24-O32=1.2119       C25-C24=1.4837       C25-C26=1.3715       
C25-C30=1.4308       C26-C25=1.3715       C26-C27=1.4858       C26-O28=1.3440       C27-C26=1.4858       C27-H57=1.0887       
C27-H58=1.0901       C27-H59=1.0863       O28-C26=1.3440       O28-C29=1.3458       C29-O28=1.3458       C29-C30=1.3615       
C29-H60=1.0712       C30-C25=1.4308       C30-C29=1.3615       C30-C31=1.4909       C31-C30=1.4909       C31-H61=1.0907       
C31-H62=1.0881       C31-H63=1.0874       O32-C24=1.2119       C33-N23=1.4412       C33-C34=1.5430       C33-N37=1.4430       
C33-H64=1.0972       C34-C33=1.5430       C34-O35=1.3309       C34-O36=1.1987       O35-C34=1.3309       O35-H65=0.9714       
O36-C34=1.1987       N37-C11=1.4577       N37-C33=1.4430       N37-C38=1.3688       C38-N37=1.3688       C38-C39=1.4790       
C38-O46=1.2115       C39-C38=1.4790       C39-C40=1.3693       C39-C44=1.4331       C40-C39=1.3693       C40-C41=1.4838       
C40-O42=1.3431       C41-C40=1.4838       C41-H66=1.0875       C41-H67=1.0865       C41-H68=1.0904       O42-C40=1.3431       
O42-C43=1.3463       C43-O42=1.3463       C43-C44=1.3607       C43-H69=1.0717       C44-C39=1.4331       C44-C43=1.3607       
C44-C45=1.4898       C45-C44=1.4898       C45-H70=1.0891       C45-H71=1.0870       C45-H72=1.0897       O46-C38=1.2115       
H47-C6=1.0788        H48-C7=1.0786        H49-C8=1.0793        H50-C9=1.0792        H51-C11=1.0951       H52-C12=1.0950       
H53-C19=1.0787       H54-C20=1.0786       H55-C21=1.0795       H56-C22=1.0788       H57-C27=1.0887       H58-C27=1.0901       
H59-C27=1.0863       H60-C29=1.0712       H61-C31=1.0907       H62-C31=1.0881       H63-C31=1.0874       H64-C33=1.0972       
H65-O35=0.9714       H66-C41=1.0875       H67-C41=1.0865       H68-C41=1.0904       H69-C43=1.0717       H70-C45=1.0891       
H71-C45=1.0870       H72-C45=1.0897       
 C  H  Rav=1.0849 sigma=0.0069  Rmin=1.0712  Rmax=1.0972    25
 C  C  Rav=1.4329 sigma=0.0595  Rmin=1.3607  Rmax=1.5466    30
 N  C  Rav=1.4220 sigma=0.0408  Rmin=1.3615  Rmax=1.4596     6
 O  H  Rav=0.9714 sigma=0.0000  Rmin=0.9714  Rmax=0.9714     1
 O  C  Rav=1.2915 sigma=0.0655  Rmin=1.1987  Rmax=1.3463     8
 F  C  Rav=1.3461 sigma=0.0068  Rmin=1.3380  Rmax=1.3550     6

 selected bond angles (degree)
 --------------------
C6-C1-C2=118.37                C10-C1-C2=121.21               C10-C1-C6=120.41               F3-C2-C1=114.05                
F4-C2-C1=112.26                F4-C2-F3=105.39                F5-C2-C1=113.17                F5-C2-F3=105.74                
F5-C2-F4=105.49                C7-C6-C1=120.34                H47-C6-C1=119.58               H47-C6-C7=120.08               
C8-C7-C6=119.71                H48-C7-C6=119.81               H48-C7-C8=120.48               C9-C8-C7=119.96                
H49-C8-C7=120.20               H49-C8-C9=119.84               C10-C9-C8=121.29               H50-C9-C8=119.67               
H50-C9-C10=119.03              C9-C10-C1=118.30               C11-C10-C1=123.11              C11-C10-C9=118.58              

 selected dihedral angles (degree)
 ---------------------------------
F3-C2-C1-C6=237.58            F3-C2-C1-C10= 58.66           F4-C2-C1-C6=117.79            F4-C2-C1-C10=298.87           
F5-C2-C1-C6=358.52            F5-C2-C1-C10=179.60           C7-C6-C1-C2=181.02            C7-C6-C1-C10=359.95           
H47-C6-C1-C2=  1.11           H47-C6-C1-C10=180.04          C8-C7-C6-C1=  0.32            C8-C7-C6-H47=180.22           
H48-C7-C6-C1=180.22           H48-C7-C6-H47=  0.13          C9-C8-C7-C6=359.93            C9-C8-C7-H48=180.02           
H49-C8-C7-C6=179.79           H49-C8-C7-H48=359.88          C10-C9-C8-C7=359.56           C10-C9-C8-H49=179.70          
H50-C9-C8-C7=180.20           H50-C9-C8-H49=  0.34          C9-C10-C1-C2=178.46           C9-C10-C1-C6=359.56           
C11-C10-C1-C2=359.79          C11-C10-C1-C6=180.90          C1-C10-C9-C8=  0.69           C1-C10-C9-H50=180.06          
C11-C10-C9-C8=179.41          C11-C10-C9-H50=358.78         
           -------------------------------------------------
          |                Final Singlepoint                |
           -------------------------------------------------

          ...................................................
          :                      SETUP                      :
          :.................................................:
          :  # basis functions                 210          :
          :  # atomic orbitals                 210          :
          :  # shells                          118          :
          :  # electrons                       242          :
          :  max. iterations                   250          :
          :  Hamiltonian                  GFN2-xTB          :
          :  restarted?                      false          :
          :  GBSA solvation                  false          :
          :  PC potential                    false          :
          :  electronic temp.          300.0000000     K    :
          :  accuracy                    1.0000000          :
          :  -> integral cutoff          0.2500000E+02      :
          :  -> integral neglect         0.1000000E-07      :
          :  -> SCF convergence          0.1000000E-05 Eh   :
          :  -> wf. convergence          0.1000000E-03 e    :
          :  Broyden damping             0.4000000          :
          ...................................................

 iter      E             dE          RMSdq      gap      omega  full diag
   1   -142.1311510 -0.142131E+03  0.741E-05    3.07       0.0  T
   2   -142.1311510 -0.770228E-10  0.467E-05    3.07     252.2  T
   3   -142.1311510 -0.340208E-10  0.290E-05    3.07     406.9  T

   *** convergence criteria satisfied after 3 iterations ***

         #    Occupation            Energy/Eh            Energy/eV
      -------------------------------------------------------------
         1        2.0000           -0.8773104             -23.8728
       ...           ...                  ...                  ...
       115        2.0000           -0.4243313             -11.5466
       116        2.0000           -0.4203635             -11.4387
       117        2.0000           -0.4092128             -11.1352
       118        2.0000           -0.4068351             -11.0705
       119        2.0000           -0.4063213             -11.0566
       120        2.0000           -0.3937171             -10.7136
       121        2.0000           -0.3917861             -10.6610 (HOMO)
       122                         -0.2789083              -7.5895 (LUMO)
       123                         -0.2636468              -7.1742
       124                         -0.2593224              -7.0565
       125                         -0.2535416              -6.8992
       126                         -0.2502176              -6.8088
       ...                                ...                  ...
       210                          0.6739946              18.3403
      -------------------------------------------------------------
                  HL-Gap            0.1128778 Eh            3.0716 eV
             Fermi-level           -0.3353472 Eh           -9.1253 eV

[...]
       ...           ...                  ...                  ...
       109        2.0000           -0.4503638             -12.2550
       110        2.0000           -0.4371610             -11.8958
       111        2.0000           -0.4365943             -11.8803
       112        2.0000           -0.4336174             -11.7993
       113        2.0000           -0.4326605             -11.7733
       114        2.0000           -0.4268710             -11.6158
       115        2.0000           -0.4243313             -11.5466
       116        2.0000           -0.4203635             -11.4387
       117        2.0000           -0.4092128             -11.1352
       118        2.0000           -0.4068351             -11.0705
       119        2.0000           -0.4063213             -11.0566
       120        2.0000           -0.3937171             -10.7136
       121        2.0000           -0.3917861             -10.6610 (HOMO)
       122                         -0.2789083              -7.5895 (LUMO)
       123                         -0.2636468              -7.1742
       124                         -0.2593224              -7.0565
       125                         -0.2535416              -6.8992
       126                         -0.2502176              -6.8088
       127                         -0.2398646              -6.5270
       128                         -0.2358791              -6.4186
       129                         -0.2175609              -5.9201
       130                         -0.2141252              -5.8266
       131                         -0.1708883              -4.6501
       132                         -0.1693610              -4.6085
       ...                                ...                  ...
       210                          0.6739946              18.3403
      -------------------------------------------------------------
                  HL-Gap            0.1128778 Eh            3.0716 eV
             Fermi-level           -0.3353472 Eh           -9.1253 eV

     #   Z          covCN         q      C6AA      α(0)
     1   6 C        2.977    -0.024    28.604     8.773
     2   6 C        3.336     0.486    17.296     6.587
     3   9 F        0.791    -0.206    11.299     3.971
     4   9 F        0.791    -0.224    11.486     4.003
     5   9 F        0.792    -0.200    11.237     3.960
     6   6 C        2.923    -0.019    28.476     8.751
     7   6 C        2.920    -0.020    28.498     8.754
     8   6 C        2.919    -0.015    28.382     8.736
     9   6 C        2.928    -0.021    28.533     8.760
    10   6 C        2.972     0.027    27.400     8.586
    11   6 C        3.829     0.047    19.767     6.326
    12   6 C        3.824     0.046    19.780     6.329
    13   6 C        2.971     0.027    27.394     8.585
    14   6 C        2.977    -0.025    28.618     8.775
    15   6 C        3.336     0.485    17.300     6.588
    16   9 F        0.791    -0.225    11.494     4.005
    17   9 F        0.792    -0.200    11.232     3.959
    18   9 F        0.791    -0.206    11.301     3.971
    19   6 C        2.924    -0.019    28.479     8.752
    20   6 C        2.920    -0.020    28.504     8.755
    21   6 C        2.919    -0.016    28.410     8.741
    22   6 C        2.927    -0.025    28.616     8.773
    23   7 N        2.769    -0.115    23.500     7.200
    24   6 C        2.757     0.275    22.353     7.742
    25   6 C        3.082    -0.080    29.891     8.963
    26   6 C        3.093     0.118    25.310     8.246
    27   6 C        3.753    -0.117    22.806     6.810
    28   8 O        1.729    -0.180    17.020     5.570
    29   6 C        3.066     0.056    26.679     8.470
    30   6 C        3.045    -0.017    28.401     8.741
    31   6 C        3.753    -0.109    22.650     6.786
    32   8 O        0.859    -0.418    22.053     6.296
    33   6 C        3.760     0.083    19.245     6.254
    34   6 C        2.688     0.348    21.087     7.515
    35   8 O        1.659    -0.359    20.068     6.048
    36   8 O        0.856    -0.388    21.445     6.209
    37   7 N        2.772    -0.120    23.605     7.216
    38   6 C        2.756     0.276    22.336     7.739
    39   6 C        3.082    -0.080    29.891     8.963
    40   6 C        3.091     0.127    25.122     8.215
    41   6 C        3.753    -0.120    22.849     6.816
    42   8 O        1.730    -0.177    16.973     5.563
    43   6 C        3.065     0.052    26.777     8.485
    44   6 C        3.045    -0.020    28.474     8.752
    45   6 C        3.754    -0.107    22.600     6.779
    46   8 O        0.859    -0.415    21.985     6.287
    47   1 H        0.926     0.068     2.106     2.269
    48   1 H        0.926     0.059     2.213     2.326
    49   1 H        0.926     0.057     2.238     2.339
    50   1 H        0.926     0.052     2.290     2.366
    51   1 H        0.924     0.065     2.143     2.290
    52   1 H        0.924     0.063     2.163     2.300
    53   1 H        0.926     0.068     2.111     2.272
    54   1 H        0.926     0.058     2.224     2.332
    55   1 H        0.926     0.054     2.269     2.356
    56   1 H        0.926     0.060     2.194     2.316
    57   1 H        0.925     0.072     2.059     2.244
    58   1 H        0.925     0.056     2.242     2.341
    59   1 H        0.925     0.065     2.145     2.290
    60   1 H        0.926     0.058     2.228     2.334
    61   1 H        0.924     0.049     2.330     2.387
    62   1 H        0.925     0.056     2.241     2.341
    63   1 H        0.925     0.047     2.354     2.400
    64   1 H        0.924     0.084     1.941     2.179
    65   1 H        0.804     0.343     0.605     1.222
    66   1 H        0.925     0.071     2.077     2.254
    67   1 H        0.925     0.064     2.150     2.293
    68   1 H        0.924     0.068     2.104     2.268
    69   1 H        0.926     0.053     2.284     2.363
    70   1 H        0.925     0.041     2.437     2.441
    71   1 H        0.925     0.048     2.341     2.393
    72   1 H        0.925     0.055     2.256     2.349

 Mol. C6AA /au·bohr⁶  :      64554.591666
 Mol. C8AA /au·bohr⁸  :    1537584.009534
 Mol. α(0) /au        :        389.371587


Wiberg/Mayer (AO) data.
largest (>0.10) Wiberg bond orders for each atom

 ---------------------------------------------------------------------------
     #   Z sym  total        # sym  WBO       # sym  WBO       # sym  WBO
 ---------------------------------------------------------------------------
     1   6 C    3.969 --     6 C    1.411    10 C    1.387     2 C    0.952
                             8 C    0.104
     2   6 C    3.820 --     5 F    0.957     1 C    0.952     3 F    0.944
                             4 F    0.928
     3   9 F    1.074 --     2 C    0.944
     4   9 F    1.055 --     2 C    0.928
     5   9 F    1.079 --     2 C    0.957
     6   6 C    3.987 --     7 C    1.445     1 C    1.411    47 H    0.966
                             9 C    0.109
     7   6 C    3.988 --     6 C    1.445     8 C    1.431    48 H    0.969
                            10 C    0.108
     8   6 C    3.990 --     9 C    1.451     7 C    1.431    49 H    0.969
                             1 C    0.104
     9   6 C    3.990 --     8 C    1.451    10 C    1.406    50 H    0.964
                             6 C    0.109
    10   6 C    3.986 --     9 C    1.406     1 C    1.387    11 C    0.997
                             7 C    0.108
    11   6 C    3.968 --    10 C    0.997    37 N    0.958    51 H    0.951
                            12 C    0.947
    12   6 C    3.968 --    13 C    0.997    23 N    0.956    52 H    0.952
                            11 C    0.947
    13   6 C    3.986 --    22 C    1.406    14 C    1.386    12 C    0.997
                            20 C    0.108
    14   6 C    3.969 --    19 C    1.411    13 C    1.386    15 C    0.952
                            21 C    0.104
    15   6 C    3.820 --    17 F    0.957    14 C    0.952    18 F    0.944
                            16 F    0.927
    16   9 F    1.054 --    15 C    0.927
    17   9 F    1.080 --    15 C    0.957
    18   9 F    1.074 --    15 C    0.944
    19   6 C    3.987 --    20 C    1.445    14 C    1.411    53 H    0.966
                            22 C    0.109
    20   6 C    3.988 --    19 C    1.445    21 C    1.431    54 H    0.969
                            13 C    0.108
    21   6 C    3.990 --    22 C    1.451    20 C    1.431    55 H    0.969
                            14 C    0.104
    22   6 C    3.989 --    21 C    1.451    13 C    1.406    56 H    0.960
                            19 C    0.109
    23   7 N    3.456 --    24 C    1.196    33 C    0.988    12 C    0.956
                            32 O    0.190
    24   6 C    3.946 --    32 O    1.694    23 N    1.196    25 C    0.975
    25   6 C    3.969 --    26 C    1.521    30 C    1.224    24 C    0.975
    26   6 C    3.916 --    25 C    1.521    28 O    1.134    27 C    1.031
                            29 C    0.136
    27   6 C    3.992 --    26 C    1.031    59 H    0.981    58 H    0.968
                            57 H    0.968
    28   8 O    2.445 --    26 C    1.134    29 C    1.118
    29   6 C    3.900 --    30 C    1.594    28 O    1.118    60 H    0.965
                            26 C    0.136
    30   6 C    3.981 --    29 C    1.594    25 C    1.224    31 C    1.029
    31   6 C    3.996 --    30 C    1.029    63 H    0.984    62 H    0.975
                            61 H    0.968
    32   8 O    2.029 --    24 C    1.694    23 N    0.190
    33   6 C    3.967 --    23 N    0.988    37 N    0.983    64 H    0.935
                            34 C    0.908
    34   6 C    3.920 --    36 O    1.777    35 O    1.150    33 C    0.908
    35   8 O    2.223 --    34 C    1.150    65 H    0.855    36 O    0.180
    36   8 O    2.061 --    34 C    1.777    35 O    0.180
    37   7 N    3.440 --    38 C    1.173    33 C    0.983    11 C    0.958
                            46 O    0.180
    38   6 C    3.942 --    46 O    1.704    37 N    1.173    39 C    0.983
    39   6 C    3.967 --    40 C    1.532    44 C    1.216    38 C    0.983
    40   6 C    3.919 --    39 C    1.532    42 O    1.137    41 C    1.032
                            43 C    0.131
    41   6 C    3.992 --    40 C    1.032    67 H    0.980    66 H    0.973
                            68 H    0.962
    42   8 O    2.447 --    40 C    1.137    43 C    1.116
    43   6 C    3.899 --    44 C    1.594    42 O    1.116    69 H    0.965
                            40 C    0.131
    44   6 C    3.980 --    43 C    1.594    39 C    1.216    45 C    1.031
    45   6 C    3.996 --    44 C    1.031    71 H    0.984    70 H    0.971
                            72 H    0.970
    46   8 O    2.033 --    38 C    1.704    37 N    0.180
    47   1 H    0.995 --     6 C    0.966
    48   1 H    0.996 --     7 C    0.969
    49   1 H    0.996 --     8 C    0.969
    50   1 H    0.997 --     9 C    0.964
    51   1 H    0.995 --    11 C    0.951
    52   1 H    0.995 --    12 C    0.952
    53   1 H    0.995 --    19 C    0.966
    54   1 H    0.996 --    20 C    0.969
    55   1 H    0.996 --    21 C    0.969
    56   1 H    0.996 --    22 C    0.960
    57   1 H    0.994 --    27 C    0.968
    58   1 H    0.997 --    27 C    0.968
    59   1 H    0.996 --    27 C    0.981
    60   1 H    0.996 --    29 C    0.965
    61   1 H    0.997 --    31 C    0.968
    62   1 H    0.996 --    31 C    0.975
    63   1 H    0.998 --    31 C    0.984
    64   1 H    0.992 --    33 C    0.935
    65   1 H    0.882 --    35 O    0.855
    66   1 H    0.995 --    41 C    0.973
    67   1 H    0.996 --    41 C    0.980
    68   1 H    0.995 --    41 C    0.962
    69   1 H    0.996 --    43 C    0.965
    70   1 H    0.998 --    45 C    0.971
    71   1 H    0.997 --    45 C    0.984
    72   1 H    0.997 --    45 C    0.970
 ---------------------------------------------------------------------------

Topologies differ in total number of bonds
Writing topology from bond orders to xtbtopo.mol

molecular dipole:
                 x           y           z       tot (Debye)
 q only:       -0.053       0.922      -0.307
   full:       -0.082       1.266      -0.458       3.428
molecular quadrupole (traceless):
                xx          xy          yy          xz          yz          zz
 q only:       13.977       3.028      -4.084      26.339       0.778      -9.893
  q+dip:       10.525       3.299      -2.404      34.047      -0.600      -8.121
   full:       11.838       2.408      -4.398      30.239       0.766      -7.439

           -------------------------------------------------
          |                Geometry Summary                 |
           -------------------------------------------------

      molecular mass/u    :      648.5502632
   center of mass at/Å    :       -0.0663671      -0.4217679       0.0032027
  moments of inertia/u·Å² :        0.5159745E+04   0.7048666E+04   0.9154022E+04
rotational constants/cm⁻¹ :        0.3267144E-02   0.2391606E-02   0.1841555E-02

 * 68 selected distances

     #   Z          #   Z                                           value/Å
     2   6 C        3   9 F                                       1.3453936
     2   6 C        4   9 F                                       1.3544486
     2   6 C        5   9 F                                       1.3383286
     1   6 C        6   6 C                                       1.3898689
     6   6 C        7   6 C                                       1.3810490
     7   6 C        8   6 C                                       1.3836600
     8   6 C        9   6 C                                       1.3804037
     1   6 C       10   6 C                                       1.3947324
     9   6 C       10   6 C                                       1.3902763
    13   6 C       14   6 C                                       1.3951372
    15   6 C       16   9 F                                       1.3550247
    15   6 C       17   9 F                                       1.3379749
    15   6 C       18   9 F                                       1.3455659
    14   6 C       19   6 C                                       1.3898710
    19   6 C       20   6 C                                       1.3809018
    20   6 C       21   6 C                                       1.3835987
    13   6 C       22   6 C                                       1.3903684
    21   6 C       22   6 C                                       1.3805335
    12   6 C       23   7 N                                       1.4596151
    23   7 N       24   6 C                                       1.3614926
    25   6 C       26   6 C                                       1.3715357
    26   6 C       27   6 C                                       1.4858077
    26   6 C       28   8 O                                       1.3440278
    28   8 O       29   6 C                                       1.3458314
    25   6 C       30   6 C                                       1.4308186
    29   6 C       30   6 C                                       1.3615359
    30   6 C       31   6 C                                       1.4908519 (max)
    24   6 C       32   8 O                                       1.2119320
    23   7 N       33   6 C                                       1.4412323
    34   6 C       35   8 O                                       1.3309244
    34   6 C       36   8 O                                       1.1987464
    11   6 C       37   7 N                                       1.4576567
    33   6 C       37   7 N                                       1.4429895
    37   7 N       38   6 C                                       1.3687681
    39   6 C       40   6 C                                       1.3693214
    40   6 C       41   6 C                                       1.4838477
    40   6 C       42   8 O                                       1.3430834
    42   8 O       43   6 C                                       1.3463153
    39   6 C       44   6 C                                       1.4331356
    43   6 C       44   6 C                                       1.3606996
    44   6 C       45   6 C                                       1.4897731
    38   6 C       46   8 O                                       1.2114558
     6   6 C       47   1 H                                       1.0787546
     7   6 C       48   1 H                                       1.0786183
     8   6 C       49   1 H                                       1.0793089
     9   6 C       50   1 H                                       1.0791980
    11   6 C       51   1 H                                       1.0950755
    12   6 C       52   1 H                                       1.0950139
    19   6 C       53   1 H                                       1.0787483
    20   6 C       54   1 H                                       1.0786368
    21   6 C       55   1 H                                       1.0794894
    22   6 C       56   1 H                                       1.0788146
    27   6 C       57   1 H                                       1.0887025
    27   6 C       58   1 H                                       1.0900915
    27   6 C       59   1 H                                       1.0863008
    29   6 C       60   1 H                                       1.0711623
    31   6 C       61   1 H                                       1.0907117
    31   6 C       62   1 H                                       1.0881334
    31   6 C       63   1 H                                       1.0874459
    33   6 C       64   1 H                                       1.0971908
    35   8 O       65   1 H                                       0.9714453 (min)
    41   6 C       66   1 H                                       1.0875069
    41   6 C       67   1 H                                       1.0865331
    41   6 C       68   1 H                                       1.0903869
    43   6 C       69   1 H                                       1.0716753
    45   6 C       70   1 H                                       1.0890965
    45   6 C       71   1 H                                       1.0870185
    45   6 C       72   1 H                                       1.0896823

 * 6 distinct bonds (by element types)

   Z      Z             #   av. dist./Å        max./Å        min./Å
   1 H    6 C          25     1.0849319     1.0971908     1.0711623
   6 C    6 C          22     1.4053513     1.4908519     1.3606996
   6 C    7 N           6     1.4219590     1.4596151     1.3614926
   1 H    8 O           1     0.9714453     0.9714453     0.9714453
   6 C    8 O           8     1.2915396     1.3463153     1.1987464
   6 C    9 F           6     1.3461227     1.3550247     1.3379749


optimized geometry written to: xtbopt.xyz


           -------------------------------------------------
          | TOTAL ENERGY             -140.532041930680 Eh   |
          | GRADIENT NORM               0.000801979311 Eh/α |
          | HOMO-LUMO GAP               3.071560442476 eV   |
           -------------------------------------------------

------------------------------------------------------------------------
 * finished run on 2022/03/17 at 01:26:19.300     
------------------------------------------------------------------------
 total:
 * wall-time:     0 d,  0 h,  0 min, 23.617 sec
 *  cpu-time:     0 d,  0 h,  8 min, 19.444 sec
 * ratio c/w:    21.148 speedup
 SCF:
 * wall-time:     0 d,  0 h,  0 min,  0.580 sec
 *  cpu-time:     0 d,  0 h,  0 min,  9.473 sec
 * ratio c/w:    16.340 speedup
 ANC optimizer:
 * wall-time:     0 d,  0 h,  0 min, 22.892 sec
 *  cpu-time:     0 d,  0 h,  8 min,  5.834 sec
 * ratio c/w:    21.223 speedup

